                               Psi4 1.3.2 release

  ==> Input File <==

--------------------------------------------------------------------------
#psi4
#
memory 32 gb

molecule  {
0 1
  O       -0.0417540     2.1858230    -0.3073980
  N        2.4805920     1.9330880     0.7500480
  C        1.1160800     0.1042180    -0.1414450
  C       -1.4416830     0.3069060    -0.0388060
  C       -0.1006150     0.9516510    -0.1728080
  C        2.3602096     0.5504417     0.2186360
  C        1.0541080    -1.2200940    -0.6155900
  C        3.4881200    -0.2081800     0.2578510
  C       -1.6559060    -0.7921710     0.8065690
  C       -2.5248970     0.8906690    -0.7109620
  C        2.1811870    -2.0318670    -0.6465910
  C        3.4033030    -1.5159070    -0.2032770
  C       -2.9440810    -1.3050920     0.9648860
  C       -3.8044560     0.3593180    -0.5664320
  C       -4.0170070    -0.7392060     0.2722830
  H        0.1024420    -1.6051810    -0.9713120
  H        4.4463530     0.1894450     0.5890330
  H       -0.8230280    -1.2242950     1.3551890
  H       -2.3449380     1.7597130    -1.3385060
  H        2.1152040    -3.0473210    -1.0273030
  H        4.2948280    -2.1392510    -0.2075020
  H       -3.1109310    -2.1478130     1.6315680
  H       -4.6398270     0.8046650    -1.1014830
  H       -5.0175780    -1.1483650     0.3907290
  H        1.7883890     2.5757360     0.3792320
  H        3.4241960     2.3021350     0.7487690
units angstrom
no_reorient  #important for SAPT in psi4, default
symmetry c1  #important for SAPT in psi4, default
}

set PROPERTIES_ORIGIN ["COM"]
properties('MP2/aug-cc-pvtz', properties = ['dipole'])
--------------------------------------------------------------------------

    Molecular point group: c1
  Charge       = 0
  Multiplicity = 1
  Basis Set: AUG-CC-PVTZ
    Blend: AUG-CC-PVTZ
  Basis Set: (AUG-CC-PVTZ AUX)
    Blend: AUG-CC-PVTZ-JKFIT

    Orbital Energies [Eh]
    ---------------------

    Doubly Occupied:

       1A    -20.544545     2A    -15.548191     3A    -11.345656
       4A    -11.290143     5A    -11.256363     6A    -11.256191
       7A    -11.254588     8A    -11.253067     9A    -11.252559
      10A    -11.249960    11A    -11.247407    12A    -11.245938
      13A    -11.241799    14A    -11.235068    15A    -11.233429
      16A     -1.376236    17A     -1.206035    18A     -1.165758
      19A     -1.133685    20A     -1.062630    21A     -1.029558
      22A     -1.025150    23A     -1.004402    24A     -0.897694
      25A     -0.853939    26A     -0.841235    27A     -0.820183
      28A     -0.773445    29A     -0.722089    30A     -0.696541
      31A     -0.677291    32A     -0.664704    33A     -0.649548
      34A     -0.634360    35A     -0.622752    36A     -0.613037
      37A     -0.599171    38A     -0.597536    39A     -0.587340
      40A     -0.555751    41A     -0.535387    42A     -0.527386
      43A     -0.522714    44A     -0.511120    45A     -0.503875
      46A     -0.490053    47A     -0.438933    48A     -0.426182
      49A     -0.354998    50A     -0.348109    51A     -0.346285
      52A     -0.313702

  @DF-RHF Final Energy:  -628.21443857804434

   => Energetics <=

    Nuclear Repulsion Energy =            893.8455998178297932
    One-Electron Energy =               -2626.9526362652836724
    Two-Electron Energy =                1104.8925978694096557
    Total Energy =                       -628.2144385780443372
  Basis Set: (AUG-CC-PVTZ AUX)
    Blend: AUG-CC-PVTZ-RI
    Molecular point group: c1

    Geometry (in Angstrom), charge = 0, multiplicity = 1:

       Center              X                  Y                   Z               Mass
    ------------   -----------------  -----------------  -----------------  -----------------
         O           -0.040116945413     2.172985154834    -0.302982948667    15.994914619570
         N            2.482229054587     1.920250154834     0.754463051333    14.003074004430
         C            1.117717054587     0.091380154834    -0.137029948667    12.000000000000
         C           -1.440045945413     0.294068154834    -0.034390948667    12.000000000000
         C           -0.098977945413     0.938813154834    -0.168392948667    12.000000000000
         C            2.361846654587     0.537603854834     0.223051051333    12.000000000000
         C            1.055745054587    -1.232931845166    -0.611174948667    12.000000000000
         C            3.489757054587    -0.221017845166     0.262266051333    12.000000000000
         C           -1.654268945413    -0.805008845166     0.810984051333    12.000000000000
         C           -2.523259945413     0.877831154834    -0.706546948667    12.000000000000
         C            2.182824054587    -2.044704845166    -0.642175948667    12.000000000000
         C            3.404940054587    -1.528744845166    -0.198861948667    12.000000000000
         C           -2.942443945413    -1.317929845166     0.969301051333    12.000000000000
         C           -3.802818945413     0.346480154834    -0.562016948667    12.000000000000
         C           -4.015369945413    -0.752043845166     0.276698051333    12.000000000000
         H            0.104079054587    -1.618018845166    -0.966896948667     1.007825032230
         H            4.447990054587     0.176607154834     0.593448051333     1.007825032230
         H           -0.821390945413    -1.237132845166     1.359604051333     1.007825032230
         H           -2.343300945413     1.746875154834    -1.334090948667     1.007825032230
         H            2.116841054587    -3.060158845166    -1.022887948667     1.007825032230
         H            4.296465054587    -2.152088845166    -0.203086948667     1.007825032230
         H           -3.109293945413    -2.160650845166     1.635983051333     1.007825032230
         H           -4.638189945413     0.791827154834    -1.097067948667     1.007825032230
         H           -5.015940945413    -1.161202845166     0.395144051333     1.007825032230
         H            1.790026054587     2.562898154834     0.383647051333     1.007825032230
         H            3.425833054587     2.289297154834     0.753184051333     1.007825032230

  Basis Set: AUG-CC-PVTZ
    Blend: AUG-CC-PVTZ
  Basis Set: (AUG-CC-PVTZ AUX)
    Blend: AUG-CC-PVTZ-JKFIT
	 Reference Energy          =    -628.2144385780443372 [Eh]
	 Singles Energy            =      -0.0000000000000000 [Eh]
	 Same-Spin Energy          =      -0.6913876019897034 [Eh]
	 Opposite-Spin Energy      =      -2.1102943279193496 [Eh]
	 Correlation Energy        =      -2.8016819299090532 [Eh]
	 Total Energy              =    -631.0161205079533602 [Eh]

	 ================> DF-SCS-MP2 Energies <==================
	-----------------------------------------------------------
	 SCS Same-Spin Scale       =       0.3333333333333333 [-]
	 SCS Opposite-Spin Scale   =       1.2000000000000000 [-]
	 SCS Same-Spin Energy      =      -0.2304625339965678 [Eh]
	 SCS Opposite-Spin Energy  =      -2.5323531935032193 [Eh]
	 SCS Correlation Energy    =      -2.7628157274997873 [Eh]
	 SCS Total Energy          =    -630.9772543055440792 [Eh]
	-----------------------------------------------------------

  Dipole Moment: [D]
     X:     0.1228      Y:    -2.2092      Z:    -0.3382     Total:     2.2383

*** Psi4 exiting successfully. Buy a developer a beer!
