                               Psi4 1.3.2 release

  ==> Input File <==

--------------------------------------------------------------------------
#psi4
#
memory 32 gb

molecule  {
0 1
  O       -0.0417540     2.1858230    -0.3073980
  N        2.4567200     1.9359651     0.7473796
  C        1.1160800     0.1042180    -0.1414450
  C       -1.4416830     0.3069060    -0.0388060
  C       -0.1006150     0.9516510    -0.1728080
  C        2.3683100     0.6434780     0.2543940
  C        1.0541080    -1.2200940    -0.6155900
  C        3.4881200    -0.2081800     0.2578510
  C       -1.6559060    -0.7921710     0.8065690
  C       -2.5248970     0.8906690    -0.7109620
  C        2.1811870    -2.0318670    -0.6465910
  C        3.4033030    -1.5159070    -0.2032770
  C       -2.9440810    -1.3050920     0.9648860
  C       -3.8044560     0.3593180    -0.5664320
  C       -4.0170070    -0.7392060     0.2722830
  H        0.1024420    -1.6051810    -0.9713120
  H        4.4463530     0.1894450     0.5890330
  H       -0.8230280    -1.2242950     1.3551890
  H       -2.3449380     1.7597130    -1.3385060
  H        2.1152040    -3.0473210    -1.0273030
  H        4.2948280    -2.1392510    -0.2075020
  H       -3.1109310    -2.1478130     1.6315680
  H       -4.6398270     0.8046650    -1.1014830
  H       -5.0175780    -1.1483650     0.3907290
  H        1.7883890     2.5757360     0.3792320
  H        3.4241960     2.3021350     0.7487690
units angstrom
no_reorient  #important for SAPT in psi4, default
symmetry c1  #important for SAPT in psi4, default
}

set PROPERTIES_ORIGIN ["COM"]
properties('MP2/aug-cc-pvtz', properties = ['dipole'])
--------------------------------------------------------------------------

    Molecular point group: c1
  Charge       = 0
  Multiplicity = 1
  Basis Set: AUG-CC-PVTZ
    Blend: AUG-CC-PVTZ
  Basis Set: (AUG-CC-PVTZ AUX)
    Blend: AUG-CC-PVTZ-JKFIT

    Orbital Energies [Eh]
    ---------------------

    Doubly Occupied:

       1A    -20.541206     2A    -15.562468     3A    -11.341286
       4A    -11.299024     5A    -11.254846     6A    -11.254129
       7A    -11.252495     8A    -11.251374     9A    -11.250078
      10A    -11.247984    11A    -11.245750    12A    -11.244330
      13A    -11.240756    14A    -11.234193    15A    -11.229972
      16A     -1.374157    17A     -1.228526    18A     -1.164257
      19A     -1.138613    20A     -1.057468    21A     -1.026416
      22A     -1.021052    23A     -0.997967    24A     -0.893361
      25A     -0.849211    26A     -0.838706    27A     -0.819998
      28A     -0.770985    29A     -0.717951    30A     -0.700285
      31A     -0.691159    32A     -0.669334    33A     -0.647578
      34A     -0.634811    35A     -0.614756    36A     -0.611022
      37A     -0.605507    38A     -0.597128    39A     -0.587287
      40A     -0.554966    41A     -0.536199    42A     -0.526686
      43A     -0.519710    44A     -0.509117    45A     -0.502213
      46A     -0.490703    47A     -0.454299    48A     -0.421987
      49A     -0.352074    50A     -0.346220    51A     -0.344455
      52A     -0.302411

  @DF-RHF Final Energy:  -628.22507658764391

   => Energetics <=

    Nuclear Repulsion Energy =            893.4342808013723243
    One-Electron Energy =               -2626.1817896156389907
    Two-Electron Energy =                1104.5224322266226409
    Total Energy =                       -628.2250765876440255
  Basis Set: (AUG-CC-PVTZ AUX)
    Blend: AUG-CC-PVTZ-RI
    Molecular point group: c1

    Geometry (in Angstrom), charge = 0, multiplicity = 1:

       Center              X                  Y                   Z               Mass
    ------------   -----------------  -----------------  -----------------  -----------------
         O           -0.038914024295     2.167115964698    -0.304970578663    15.994914619570
         N            2.459559975705     1.917258064698     0.749807021337    14.003074004430
         C            1.118919975705     0.085510964698    -0.139017578663    12.000000000000
         C           -1.438843024295     0.288198964698    -0.036378578663    12.000000000000
         C           -0.097775024295     0.932943964698    -0.170380578663    12.000000000000
         C            2.371149975705     0.624770964698     0.256821421337    12.000000000000
         C            1.056947975705    -1.238801035302    -0.613162578663    12.000000000000
         C            3.490959975705    -0.226887035302     0.260278421337    12.000000000000
         C           -1.653066024295    -0.810878035302     0.808996421337    12.000000000000
         C           -2.522057024295     0.871961964698    -0.708534578663    12.000000000000
         C            2.184026975705    -2.050574035302    -0.644163578663    12.000000000000
         C            3.406142975705    -1.534614035302    -0.200849578663    12.000000000000
         C           -2.941241024295    -1.323799035302     0.967313421337    12.000000000000
         C           -3.801616024295     0.340610964698    -0.564004578663    12.000000000000
         C           -4.014167024295    -0.757913035302     0.274710421337    12.000000000000
         H            0.105281975705    -1.623888035302    -0.968884578663     1.007825032230
         H            4.449192975705     0.170737964698     0.591460421337     1.007825032230
         H           -0.820188024295    -1.243002035302     1.357616421337     1.007825032230
         H           -2.342098024295     1.741005964698    -1.336078578663     1.007825032230
         H            2.118043975705    -3.066028035302    -1.024875578663     1.007825032230
         H            4.297667975705    -2.157958035302    -0.205074578663     1.007825032230
         H           -3.108091024295    -2.166520035302     1.633995421337     1.007825032230
         H           -4.636987024295     0.785957964698    -1.099055578663     1.007825032230
         H           -5.014738024295    -1.167072035302     0.393156421337     1.007825032230
         H            1.791228975705     2.557028964698     0.381659421337     1.007825032230
         H            3.427035975705     2.283427964698     0.751196421337     1.007825032230

  Basis Set: AUG-CC-PVTZ
    Blend: AUG-CC-PVTZ
  Basis Set: (AUG-CC-PVTZ AUX)
    Blend: AUG-CC-PVTZ-JKFIT
	 Reference Energy          =    -628.2250765876439118 [Eh]
	 Singles Energy            =      -0.0000000000000000 [Eh]
	 Same-Spin Energy          =      -0.6915850301689230 [Eh]
	 Opposite-Spin Energy      =      -2.1097079384481563 [Eh]
	 Correlation Energy        =      -2.8012929686170791 [Eh]
	 Total Energy              =    -631.0263695562609882 [Eh]

	 ================> DF-SCS-MP2 Energies <==================
	-----------------------------------------------------------
	 SCS Same-Spin Scale       =       0.3333333333333333 [-]
	 SCS Opposite-Spin Scale   =       1.2000000000000000 [-]
	 SCS Same-Spin Energy      =      -0.2305283433896410 [Eh]
	 SCS Opposite-Spin Energy  =      -2.5316495261377874 [Eh]
	 SCS Correlation Energy    =      -2.7621778695274282 [Eh]
	 SCS Total Energy          =    -630.9872544571713888 [Eh]
	-----------------------------------------------------------

  Dipole Moment: [D]
     X:     0.3801      Y:    -1.6434      Z:    -0.1029     Total:     1.6899

*** Psi4 exiting successfully. Buy a developer a beer!
