                               Psi4 1.3.2 release

  ==> Input File <==

--------------------------------------------------------------------------
#psi4
#
memory 32 gb

molecule  {
0 1
  O       -0.0417540     2.1858230    -0.3073980
  N        2.4805920     1.9330880     0.7500480
  C        1.1448285     0.1468543    -0.1473942
  C       -1.4416830     0.3069060    -0.0388060
  C       -0.1006150     0.9516510    -0.1728080
  C        2.3683100     0.6434780     0.2543940
  C        1.0541080    -1.2200940    -0.6155900
  C        3.4881200    -0.2081800     0.2578510
  C       -1.6559060    -0.7921710     0.8065690
  C       -2.5248970     0.8906690    -0.7109620
  C        2.1811870    -2.0318670    -0.6465910
  C        3.4033030    -1.5159070    -0.2032770
  C       -2.9440810    -1.3050920     0.9648860
  C       -3.8044560     0.3593180    -0.5664320
  C       -4.0170070    -0.7392060     0.2722830
  H        0.1024420    -1.6051810    -0.9713120
  H        4.4463530     0.1894450     0.5890330
  H       -0.8230280    -1.2242950     1.3551890
  H       -2.3449380     1.7597130    -1.3385060
  H        2.1152040    -3.0473210    -1.0273030
  H        4.2948280    -2.1392510    -0.2075020
  H       -3.1109310    -2.1478130     1.6315680
  H       -4.6398270     0.8046650    -1.1014830
  H       -5.0175780    -1.1483650     0.3907290
  H        1.7883890     2.5757360     0.3792320
  H        3.4241960     2.3021350     0.7487690
units angstrom
no_reorient  #important for SAPT in psi4, default
symmetry c1  #important for SAPT in psi4, default
}

set PROPERTIES_ORIGIN ["COM"]
properties('MP2/aug-cc-pvtz', properties = ['dipole'])
--------------------------------------------------------------------------

    Molecular point group: c1
  Charge       = 0
  Multiplicity = 1
  Basis Set: AUG-CC-PVTZ
    Blend: AUG-CC-PVTZ
  Basis Set: (AUG-CC-PVTZ AUX)
    Blend: AUG-CC-PVTZ-JKFIT

    Orbital Energies [Eh]
    ---------------------

    Doubly Occupied:

       1A    -20.540051     2A    -15.559163     3A    -11.341010
       4A    -11.293951     5A    -11.256807     6A    -11.254378
       7A    -11.253224     8A    -11.251917     9A    -11.251511
      10A    -11.248816    11A    -11.246239    12A    -11.244867
      13A    -11.239795    14A    -11.235203    15A    -11.231112
      16A     -1.374000    17A     -1.229296    18A     -1.164553
      19A     -1.136166    20A     -1.055749    21A     -1.026719
      22A     -1.020278    23A     -1.000338    24A     -0.892969
      25A     -0.852173    26A     -0.839803    27A     -0.818896
      28A     -0.769691    29A     -0.718869    30A     -0.702458
      31A     -0.685768    32A     -0.670448    33A     -0.647663
      34A     -0.635674    35A     -0.617439    36A     -0.613211
      37A     -0.604033    38A     -0.597429    39A     -0.583384
      40A     -0.555895    41A     -0.534089    42A     -0.527015
      43A     -0.520451    44A     -0.511466    45A     -0.502613
      46A     -0.490228    47A     -0.451788    48A     -0.421912
      49A     -0.349662    50A     -0.345917    51A     -0.343812
      52A     -0.305818

  @DF-RHF Final Energy:  -628.22362209398284

   => Energetics <=

    Nuclear Repulsion Energy =            893.1932784017542417
    One-Electron Energy =               -2625.7023644724381484
    Two-Electron Energy =                1104.2854639767010667
    Total Energy =                       -628.2236220939828399
  Basis Set: (AUG-CC-PVTZ AUX)
    Blend: AUG-CC-PVTZ-RI
    Molecular point group: c1

    Geometry (in Angstrom), charge = 0, multiplicity = 1:

       Center              X                  Y                   Z               Mass
    ------------   -----------------  -----------------  -----------------  -----------------
         O           -0.042360591049     2.164724359074    -0.304797938640    15.994914619570
         N            2.479985408951     1.911989359074     0.752648061360    14.003074004430
         C            1.144221908951     0.125755659074    -0.144794138640    12.000000000000
         C           -1.442289591049     0.285807359074    -0.036205938640    12.000000000000
         C           -0.101221591049     0.930552359074    -0.170207938640    12.000000000000
         C            2.367703408951     0.622379359074     0.256994061360    12.000000000000
         C            1.053501408951    -1.241192640926    -0.612989938640    12.000000000000
         C            3.487513408951    -0.229278640926     0.260451061360    12.000000000000
         C           -1.656512591049    -0.813269640926     0.809169061360    12.000000000000
         C           -2.525503591049     0.869570359074    -0.708361938640    12.000000000000
         C            2.180580408951    -2.052965640926    -0.643990938640    12.000000000000
         C            3.402696408951    -1.537005640926    -0.200676938640    12.000000000000
         C           -2.944687591049    -1.326190640926     0.967486061360    12.000000000000
         C           -3.805062591049     0.338219359074    -0.563831938640    12.000000000000
         C           -4.017613591049    -0.760304640926     0.274883061360    12.000000000000
         H            0.101835408951    -1.626279640926    -0.968711938640     1.007825032230
         H            4.445746408951     0.168346359074     0.591633061360     1.007825032230
         H           -0.823634591049    -1.245393640926     1.357789061360     1.007825032230
         H           -2.345544591049     1.738614359074    -1.335905938640     1.007825032230
         H            2.114597408951    -3.068419640926    -1.024702938640     1.007825032230
         H            4.294221408951    -2.160349640926    -0.204901938640     1.007825032230
         H           -3.111537591049    -2.168911640926     1.634168061360     1.007825032230
         H           -4.640433591049     0.783566359074    -1.098882938640     1.007825032230
         H           -5.018184591049    -1.169463640926     0.393329061360     1.007825032230
         H            1.787782408951     2.554637359074     0.381832061360     1.007825032230
         H            3.423589408951     2.281036359074     0.751369061360     1.007825032230

  Basis Set: AUG-CC-PVTZ
    Blend: AUG-CC-PVTZ
  Basis Set: (AUG-CC-PVTZ AUX)
    Blend: AUG-CC-PVTZ-JKFIT
	 Reference Energy          =    -628.2236220939828399 [Eh]
	 Singles Energy            =      -0.0000000000000000 [Eh]
	 Same-Spin Energy          =      -0.6913935009542073 [Eh]
	 Opposite-Spin Energy      =      -2.1097656523872015 [Eh]
	 Correlation Energy        =      -2.8011591533414086 [Eh]
	 Total Energy              =    -631.0247812473241993 [Eh]

	 ================> DF-SCS-MP2 Energies <==================
	-----------------------------------------------------------
	 SCS Same-Spin Scale       =       0.3333333333333333 [-]
	 SCS Opposite-Spin Scale   =       1.2000000000000000 [-]
	 SCS Same-Spin Energy      =      -0.2304645003180691 [Eh]
	 SCS Opposite-Spin Energy  =      -2.5317187828646417 [Eh]
	 SCS Correlation Energy    =      -2.7621832831827109 [Eh]
	 SCS Total Energy          =    -630.9858053771655477 [Eh]
	-----------------------------------------------------------

  Dipole Moment: [D]
     X:     0.3211      Y:    -1.7099      Z:    -0.1158     Total:     1.7436

*** Psi4 exiting successfully. Buy a developer a beer!
