                               Psi4 1.3.2 release

  ==> Input File <==

--------------------------------------------------------------------------
#psi4
#
memory 32 gb

molecule  {
0 1
  O       -0.0417540     2.1858230    -0.3073980
  N        2.4805920     1.9330880     0.7500480
  C        1.1977401     0.2350152    -0.1593782
  C       -1.4416830     0.3069060    -0.0388060
  C       -0.1006150     0.9516510    -0.1728080
  C        2.3683100     0.6434780     0.2543940
  C        1.0541080    -1.2200940    -0.6155900
  C        3.4881200    -0.2081800     0.2578510
  C       -1.6559060    -0.7921710     0.8065690
  C       -2.5248970     0.8906690    -0.7109620
  C        2.1811870    -2.0318670    -0.6465910
  C        3.4033030    -1.5159070    -0.2032770
  C       -2.9440810    -1.3050920     0.9648860
  C       -3.8044560     0.3593180    -0.5664320
  C       -4.0170070    -0.7392060     0.2722830
  H        0.1024420    -1.6051810    -0.9713120
  H        4.4463530     0.1894450     0.5890330
  H       -0.8230280    -1.2242950     1.3551890
  H       -2.3449380     1.7597130    -1.3385060
  H        2.1152040    -3.0473210    -1.0273030
  H        4.2948280    -2.1392510    -0.2075020
  H       -3.1109310    -2.1478130     1.6315680
  H       -4.6398270     0.8046650    -1.1014830
  H       -5.0175780    -1.1483650     0.3907290
  H        1.7883890     2.5757360     0.3792320
  H        3.4241960     2.3021350     0.7487690
units angstrom
no_reorient  #important for SAPT in psi4, default
symmetry c1  #important for SAPT in psi4, default
}

set PROPERTIES_ORIGIN ["COM"]
properties('MP2/aug-cc-pvtz', properties = ['dipole'])
--------------------------------------------------------------------------

    Molecular point group: c1
  Charge       = 0
  Multiplicity = 1
  Basis Set: AUG-CC-PVTZ
    Blend: AUG-CC-PVTZ
  Basis Set: (AUG-CC-PVTZ AUX)
    Blend: AUG-CC-PVTZ-JKFIT

    Orbital Energies [Eh]
    ---------------------

    Doubly Occupied:

       1A    -20.538051     2A    -15.553192     3A    -11.341140
       4A    -11.282718     5A    -11.260559     6A    -11.255267
       7A    -11.254157     8A    -11.253975     9A    -11.253027
      10A    -11.250484    11A    -11.247237    12A    -11.245968
      13A    -11.237871    14A    -11.237090    15A    -11.233222
      16A     -1.374298    17A     -1.231525    18A     -1.165422
      19A     -1.131545    20A     -1.053357    21A     -1.027760
      22A     -1.021074    23A     -1.002328    24A     -0.892843
      25A     -0.857792    26A     -0.841422    27A     -0.817645
      28A     -0.767613    29A     -0.720595    30A     -0.702856
      31A     -0.680102    32A     -0.671469    33A     -0.647872
      34A     -0.638402    35A     -0.620973    36A     -0.614833
      37A     -0.603087    38A     -0.598050    39A     -0.574752
      40A     -0.558777    41A     -0.531516    42A     -0.527356
      43A     -0.522765    44A     -0.510695    45A     -0.502801
      46A     -0.487814    47A     -0.447469    48A     -0.420078
      49A     -0.349462    50A     -0.346621    51A     -0.338253
      52A     -0.312968

  @DF-RHF Final Energy:  -628.20159768519113

   => Energetics <=

    Nuclear Repulsion Energy =            893.2146249400400393
    One-Electron Energy =               -2625.7161489043774054
    Two-Electron Energy =                1104.2999262791463480
    Total Energy =                       -628.2015976851910182
  Basis Set: (AUG-CC-PVTZ AUX)
    Blend: AUG-CC-PVTZ-RI
    Molecular point group: c1

    Geometry (in Angstrom), charge = 0, multiplicity = 1:

       Center              X                  Y                   Z               Mass
    ------------   -----------------  -----------------  -----------------  -----------------
         O           -0.045582257921     2.159356442569    -0.304068260162    15.994914619570
         N            2.476763742079     1.906621442569     0.753377739838    14.003074004430
         C            1.193911842079     0.208548642569    -0.156048460162    12.000000000000
         C           -1.445511257921     0.280439442569    -0.035476260162    12.000000000000
         C           -0.104443257921     0.925184442569    -0.169478260162    12.000000000000
         C            2.364481742079     0.617011442569     0.257723739838    12.000000000000
         C            1.050279742079    -1.246560557431    -0.612260260162    12.000000000000
         C            3.484291742079    -0.234646557431     0.261180739838    12.000000000000
         C           -1.659734257921    -0.818637557431     0.809898739838    12.000000000000
         C           -2.528725257921     0.864202442569    -0.707632260162    12.000000000000
         C            2.177358742079    -2.058333557431    -0.643261260162    12.000000000000
         C            3.399474742079    -1.542373557431    -0.199947260162    12.000000000000
         C           -2.947909257921    -1.331558557431     0.968215739838    12.000000000000
         C           -3.808284257921     0.332851442569    -0.563102260162    12.000000000000
         C           -4.020835257921    -0.765672557431     0.275612739838    12.000000000000
         H            0.098613742079    -1.631647557431    -0.967982260162     1.007825032230
         H            4.442524742079     0.162978442569     0.592362739838     1.007825032230
         H           -0.826856257921    -1.250761557431     1.358518739838     1.007825032230
         H           -2.348766257921     1.733246442569    -1.335176260162     1.007825032230
         H            2.111375742079    -3.073787557431    -1.023973260162     1.007825032230
         H            4.290999742079    -2.165717557431    -0.204172260162     1.007825032230
         H           -3.114759257921    -2.174279557431     1.634897739838     1.007825032230
         H           -4.643655257921     0.778198442569    -1.098153260162     1.007825032230
         H           -5.021406257921    -1.174831557431     0.394058739838     1.007825032230
         H            1.784560742079     2.549269442569     0.382561739838     1.007825032230
         H            3.420367742079     2.275668442569     0.752098739838     1.007825032230

  Basis Set: AUG-CC-PVTZ
    Blend: AUG-CC-PVTZ
  Basis Set: (AUG-CC-PVTZ AUX)
    Blend: AUG-CC-PVTZ-JKFIT
	 Reference Energy          =    -628.2015976851911319 [Eh]
	 Singles Energy            =      -0.0000000000000000 [Eh]
	 Same-Spin Energy          =      -0.6910170835867355 [Eh]
	 Opposite-Spin Energy      =      -2.1109274385144641 [Eh]
	 Correlation Energy        =      -2.8019445221011994 [Eh]
	 Total Energy              =    -631.0035422072922984 [Eh]

	 ================> DF-SCS-MP2 Energies <==================
	-----------------------------------------------------------
	 SCS Same-Spin Scale       =       0.3333333333333333 [-]
	 SCS Opposite-Spin Scale   =       1.2000000000000000 [-]
	 SCS Same-Spin Energy      =      -0.2303390278622452 [Eh]
	 SCS Opposite-Spin Energy  =      -2.5331129262173566 [Eh]
	 SCS Correlation Energy    =      -2.7634519540796019 [Eh]
	 SCS Total Energy          =    -630.9650496392707737 [Eh]
	-----------------------------------------------------------

  Dipole Moment: [D]
     X:     0.2314      Y:    -1.8658      Z:    -0.1495     Total:     1.8860

*** Psi4 exiting successfully. Buy a developer a beer!
