                               Psi4 1.3.2 release

  ==> Input File <==

--------------------------------------------------------------------------
#psi4
#
memory 32 gb

molecule  {
0 1
  O       -0.0417540     2.1858230    -0.3073980
  N        2.6228519     1.9076150     0.7628625
  C        1.1160800     0.1042180    -0.1414450
  C       -1.4416830     0.3069060    -0.0388060
  C       -0.1006150     0.9516510    -0.1728080
  C        2.3683100     0.6434780     0.2543940
  C        1.0541080    -1.2200940    -0.6155900
  C        3.4881200    -0.2081800     0.2578510
  C       -1.6559060    -0.7921710     0.8065690
  C       -2.5248970     0.8906690    -0.7109620
  C        2.1811870    -2.0318670    -0.6465910
  C        3.4033030    -1.5159070    -0.2032770
  C       -2.9440810    -1.3050920     0.9648860
  C       -3.8044560     0.3593180    -0.5664320
  C       -4.0170070    -0.7392060     0.2722830
  H        0.1024420    -1.6051810    -0.9713120
  H        4.4463530     0.1894450     0.5890330
  H       -0.8230280    -1.2242950     1.3551890
  H       -2.3449380     1.7597130    -1.3385060
  H        2.1152040    -3.0473210    -1.0273030
  H        4.2948280    -2.1392510    -0.2075020
  H       -3.1109310    -2.1478130     1.6315680
  H       -4.6398270     0.8046650    -1.1014830
  H       -5.0175780    -1.1483650     0.3907290
  H        1.7883890     2.5757360     0.3792320
  H        3.4241960     2.3021350     0.7487690
units angstrom
no_reorient  #important for SAPT in psi4, default
symmetry c1  #important for SAPT in psi4, default
}

set PROPERTIES_ORIGIN ["COM"]
properties('MP2/aug-cc-pvtz', properties = ['dipole'])
--------------------------------------------------------------------------

    Molecular point group: c1
  Charge       = 0
  Multiplicity = 1
  Basis Set: AUG-CC-PVTZ
    Blend: AUG-CC-PVTZ
  Basis Set: (AUG-CC-PVTZ AUX)
    Blend: AUG-CC-PVTZ-JKFIT

    Orbital Energies [Eh]
    ---------------------

    Doubly Occupied:

       1A    -20.543898     2A    -15.557932     3A    -11.343525
       4A    -11.301066     5A    -11.254983     6A    -11.253530
       7A    -11.252571     8A    -11.252313     9A    -11.251094
      10A    -11.249039    11A    -11.246592    12A    -11.245190
      13A    -11.244283    14A    -11.230486    15A    -11.229618
      16A     -1.376153    17A     -1.232334    18A     -1.165275
      19A     -1.140161    20A     -1.057994    21A     -1.027322
      22A     -1.021802    23A     -0.999996    24A     -0.894856
      25A     -0.849685    26A     -0.840842    27A     -0.825222
      28A     -0.769323    29A     -0.729489    30A     -0.714268
      31A     -0.676394    32A     -0.671449    33A     -0.648421
      34A     -0.635515    35A     -0.622492    36A     -0.610597
      37A     -0.601566    38A     -0.597967    39A     -0.574504
      40A     -0.555007    41A     -0.533072    42A     -0.527943
      43A     -0.517953    44A     -0.512269    45A     -0.503119
      46A     -0.492416    47A     -0.453085    48A     -0.421378
      49A     -0.352210    50A     -0.347415    51A     -0.345327
      52A     -0.300831

  @DF-RHF Final Energy:  -628.19528283682189

   => Energetics <=

    Nuclear Repulsion Energy =            892.0659530303038309
    One-Electron Energy =               -2623.3189279978259947
    Two-Electron Energy =                1103.0576921307003886
    Total Energy =                       -628.1952828368218888
  Basis Set: (AUG-CC-PVTZ AUX)
    Blend: AUG-CC-PVTZ-RI
    Molecular point group: c1

    Geometry (in Angstrom), charge = 0, multiplicity = 1:

       Center              X                  Y                   Z               Mass
    ------------   -----------------  -----------------  -----------------  -----------------
         O           -0.050717907588     2.169130275446    -0.306070658447    15.994914619570
         N            2.613887992412     1.890922275446     0.764189841553    14.003074004430
         C            1.107116092412     0.087525275446    -0.140117658447    12.000000000000
         C           -1.450646907588     0.290213275446    -0.037478658447    12.000000000000
         C           -0.109578907588     0.934958275446    -0.171480658447    12.000000000000
         C            2.359346092412     0.626785275446     0.255721341553    12.000000000000
         C            1.045144092412    -1.236786724554    -0.614262658447    12.000000000000
         C            3.479156092412    -0.224872724554     0.259178341553    12.000000000000
         C           -1.664869907588    -0.808863724554     0.807896341553    12.000000000000
         C           -2.533860907588     0.873976275446    -0.709634658447    12.000000000000
         C            2.172223092412    -2.048559724554    -0.645263658447    12.000000000000
         C            3.394339092412    -1.532599724554    -0.201949658447    12.000000000000
         C           -2.953044907588    -1.321784724554     0.966213341553    12.000000000000
         C           -3.813419907588     0.342625275446    -0.565104658447    12.000000000000
         C           -4.025970907588    -0.755898724554     0.273610341553    12.000000000000
         H            0.093478092412    -1.621873724554    -0.969984658447     1.007825032230
         H            4.437389092412     0.172752275446     0.590360341553     1.007825032230
         H           -0.831991907588    -1.240987724554     1.356516341553     1.007825032230
         H           -2.353901907588     1.743020275446    -1.337178658447     1.007825032230
         H            2.106240092412    -3.064013724554    -1.025975658447     1.007825032230
         H            4.285864092412    -2.155943724554    -0.206174658447     1.007825032230
         H           -3.119894907588    -2.164505724554     1.632895341553     1.007825032230
         H           -4.648790907588     0.787972275446    -1.100155658447     1.007825032230
         H           -5.026541907588    -1.165057724554     0.392056341553     1.007825032230
         H            1.779425092412     2.559043275446     0.380559341553     1.007825032230
         H            3.415232092412     2.285442275446     0.750096341553     1.007825032230

  Basis Set: AUG-CC-PVTZ
    Blend: AUG-CC-PVTZ
  Basis Set: (AUG-CC-PVTZ AUX)
    Blend: AUG-CC-PVTZ-JKFIT
	 Reference Energy          =    -628.1952828368218888 [Eh]
	 Singles Energy            =      -0.0000000000000000 [Eh]
	 Same-Spin Energy          =      -0.6919525062693461 [Eh]
	 Opposite-Spin Energy      =      -2.1106474407957885 [Eh]
	 Correlation Energy        =      -2.8025999470651346 [Eh]
	 Total Energy              =    -630.9978827838870075 [Eh]

	 ================> DF-SCS-MP2 Energies <==================
	-----------------------------------------------------------
	 SCS Same-Spin Scale       =       0.3333333333333333 [-]
	 SCS Opposite-Spin Scale   =       1.2000000000000000 [-]
	 SCS Same-Spin Energy      =      -0.2306508354231154 [Eh]
	 SCS Opposite-Spin Energy  =      -2.5327769289549460 [Eh]
	 SCS Correlation Energy    =      -2.7634277643780614 [Eh]
	 SCS Total Energy          =    -630.9587106011999822 [Eh]
	-----------------------------------------------------------

  Dipole Moment: [D]
     X:     0.1437      Y:    -1.6428      Z:    -0.1196     Total:     1.6534

*** Psi4 exiting successfully. Buy a developer a beer!
