                               Psi4 1.3.2 release

  ==> Input File <==

--------------------------------------------------------------------------
#psi4
#
memory 32 gb

molecule  {
0 1
  O       -0.1716960     2.1858514    -0.3010904
  N        2.4805920     1.9330880     0.7500480
  C        1.1160800     0.1042180    -0.1414450
  C       -1.4416830     0.3069060    -0.0388060
  C       -0.1006150     0.9516510    -0.1728080
  C        2.3683100     0.6434780     0.2543940
  C        1.0541080    -1.2200940    -0.6155900
  C        3.4881200    -0.2081800     0.2578510
  C       -1.6559060    -0.7921710     0.8065690
  C       -2.5248970     0.8906690    -0.7109620
  C        2.1811870    -2.0318670    -0.6465910
  C        3.4033030    -1.5159070    -0.2032770
  C       -2.9440810    -1.3050920     0.9648860
  C       -3.8044560     0.3593180    -0.5664320
  C       -4.0170070    -0.7392060     0.2722830
  H        0.1024420    -1.6051810    -0.9713120
  H        4.4463530     0.1894450     0.5890330
  H       -0.8230280    -1.2242950     1.3551890
  H       -2.3449380     1.7597130    -1.3385060
  H        2.1152040    -3.0473210    -1.0273030
  H        4.2948280    -2.1392510    -0.2075020
  H       -3.1109310    -2.1478130     1.6315680
  H       -4.6398270     0.8046650    -1.1014830
  H       -5.0175780    -1.1483650     0.3907290
  H        1.7883890     2.5757360     0.3792320
  H        3.4241960     2.3021350     0.7487690
units angstrom
no_reorient  #important for SAPT in psi4, default
symmetry c1  #important for SAPT in psi4, default
}

set PROPERTIES_ORIGIN ["COM"]
properties('MP2/aug-cc-pvtz', properties = ['dipole'])
--------------------------------------------------------------------------

    Molecular point group: c1
  Charge       = 0
  Multiplicity = 1
  Basis Set: AUG-CC-PVTZ
    Blend: AUG-CC-PVTZ
  Basis Set: (AUG-CC-PVTZ AUX)
    Blend: AUG-CC-PVTZ-JKFIT

    Orbital Energies [Eh]
    ---------------------

    Doubly Occupied:

       1A    -20.541157     2A    -15.567610     3A    -11.340897
       4A    -11.302856     5A    -11.257919     6A    -11.257807
       7A    -11.247848     8A    -11.247297     9A    -11.246081
      10A    -11.245088    11A    -11.243219    12A    -11.242291
      13A    -11.240794    14A    -11.236488    15A    -11.232752
      16A     -1.374053    17A     -1.233652    18A     -1.160172
      19A     -1.141662    20A     -1.057471    21A     -1.023204
      22A     -1.019443    23A     -1.001082    24A     -0.893712
      25A     -0.849920    26A     -0.836452    27A     -0.820800
      28A     -0.768919    29A     -0.718284    30A     -0.703360
      31A     -0.692662    32A     -0.671101    33A     -0.642618
      34A     -0.633965    35A     -0.615748    36A     -0.611234
      37A     -0.606654    38A     -0.594286    39A     -0.591603
      40A     -0.555659    41A     -0.536470    42A     -0.526519
      43A     -0.519023    44A     -0.510083    45A     -0.498287
      46A     -0.489799    47A     -0.457696    48A     -0.421650
      49A     -0.354831    50A     -0.342979    51A     -0.339527
      52A     -0.305852

  @DF-RHF Final Energy:  -628.22245897808818

   => Energetics <=

    Nuclear Repulsion Energy =            892.9451278912853240
    One-Electron Energy =               -2625.1941027611551362
    Two-Electron Energy =                1104.0265158917818553
    Total Energy =                       -628.2224589780880706
  Basis Set: (AUG-CC-PVTZ AUX)
    Blend: AUG-CC-PVTZ-RI
    Molecular point group: c1

    Geometry (in Angstrom), charge = 0, multiplicity = 1:

       Center              X                  Y                   Z               Mass
    ------------   -----------------  -----------------  -----------------  -----------------
         O           -0.160006349808     2.167346481439    -0.299364483003    15.994914619570
         N            2.492281650192     1.914583081439     0.751773916997    14.003074004430
         C            1.127769650192     0.085713081439    -0.139719083003    12.000000000000
         C           -1.429993349808     0.288401081439    -0.037080083003    12.000000000000
         C           -0.088925349808     0.933146081439    -0.171082083003    12.000000000000
         C            2.379999650192     0.624973081439     0.256119916997    12.000000000000
         C            1.065797650192    -1.238598918561    -0.613864083003    12.000000000000
         C            3.499809650192    -0.226684918561     0.259576916997    12.000000000000
         C           -1.644216349808    -0.810675918561     0.808294916997    12.000000000000
         C           -2.513207349808     0.872164081439    -0.709236083003    12.000000000000
         C            2.192876650192    -2.050371918561    -0.644865083003    12.000000000000
         C            3.414992650192    -1.534411918561    -0.201551083003    12.000000000000
         C           -2.932391349808    -1.323596918561     0.966611916997    12.000000000000
         C           -3.792766349808     0.340813081439    -0.564706083003    12.000000000000
         C           -4.005317349808    -0.757710918561     0.274008916997    12.000000000000
         H            0.114131650192    -1.623685918561    -0.969586083003     1.007825032230
         H            4.458042650192     0.170940081439     0.590758916997     1.007825032230
         H           -0.811338349808    -1.242799918561     1.356914916997     1.007825032230
         H           -2.333248349808     1.741208081439    -1.336780083003     1.007825032230
         H            2.126893650192    -3.065825918561    -1.025577083003     1.007825032230
         H            4.306517650192    -2.157755918561    -0.205776083003     1.007825032230
         H           -3.099241349808    -2.166317918561     1.633293916997     1.007825032230
         H           -4.628137349808     0.786160081439    -1.099757083003     1.007825032230
         H           -5.005888349808    -1.166869918561     0.392454916997     1.007825032230
         H            1.800078650192     2.557231081439     0.380957916997     1.007825032230
         H            3.435885650192     2.283630081439     0.750494916997     1.007825032230

  Basis Set: AUG-CC-PVTZ
    Blend: AUG-CC-PVTZ
  Basis Set: (AUG-CC-PVTZ AUX)
    Blend: AUG-CC-PVTZ-JKFIT
	 Reference Energy          =    -628.2224589780881843 [Eh]
	 Singles Energy            =      -0.0000000000000000 [Eh]
	 Same-Spin Energy          =      -0.6914843502700541 [Eh]
	 Opposite-Spin Energy      =      -2.1097310849664068 [Eh]
	 Correlation Energy        =      -2.8012154352364611 [Eh]
	 Total Energy              =    -631.0236744133246702 [Eh]

	 ================> DF-SCS-MP2 Energies <==================
	-----------------------------------------------------------
	 SCS Same-Spin Scale       =       0.3333333333333333 [-]
	 SCS Opposite-Spin Scale   =       1.2000000000000000 [-]
	 SCS Same-Spin Energy      =      -0.2304947834233513 [Eh]
	 SCS Opposite-Spin Energy  =      -2.5316773019596881 [Eh]
	 SCS Correlation Energy    =      -2.7621720853830394 [Eh]
	 SCS Total Energy          =    -630.9846310634711699 [Eh]
	-----------------------------------------------------------

  Dipole Moment: [D]
     X:     0.9195      Y:    -1.6247      Z:    -0.1316     Total:     1.8715

*** Psi4 exiting successfully. Buy a developer a beer!
