                               Psi4 1.3.2 release

  ==> Input File <==

--------------------------------------------------------------------------
#psi4
#
memory 32 gb

molecule  {
0 1
  O       -0.0417540     2.1858230    -0.3073980
  N        2.4805920     1.9330880     0.7500480
  C        1.1160800     0.1042180    -0.1414450
  C       -1.4416830     0.3069060    -0.0388060
  C       -0.1006150     0.9516510    -0.1728080
  C        2.3683100     0.6434780     0.2543940
  C        1.0541080    -1.2200940    -0.6155900
  C        3.4881200    -0.2081800     0.2578510
  C       -1.6078983    -0.7930246     0.8162062
  C       -2.5248970     0.8906690    -0.7109620
  C        2.1811870    -2.0318670    -0.6465910
  C        3.4033030    -1.5159070    -0.2032770
  C       -2.9440810    -1.3050920     0.9648860
  C       -3.8044560     0.3593180    -0.5664320
  C       -4.0170070    -0.7392060     0.2722830
  H        0.1024420    -1.6051810    -0.9713120
  H        4.4463530     0.1894450     0.5890330
  H       -0.8230280    -1.2242950     1.3551890
  H       -2.3449380     1.7597130    -1.3385060
  H        2.1152040    -3.0473210    -1.0273030
  H        4.2948280    -2.1392510    -0.2075020
  H       -3.1109310    -2.1478130     1.6315680
  H       -4.6398270     0.8046650    -1.1014830
  H       -5.0175780    -1.1483650     0.3907290
  H        1.7883890     2.5757360     0.3792320
  H        3.4241960     2.3021350     0.7487690
units angstrom
no_reorient  #important for SAPT in psi4, default
symmetry c1  #important for SAPT in psi4, default
}

set PROPERTIES_ORIGIN ["COM"]
properties('MP2/aug-cc-pvtz', properties = ['dipole'])
--------------------------------------------------------------------------

    Molecular point group: c1
  Charge       = 0
  Multiplicity = 1
  Basis Set: AUG-CC-PVTZ
    Blend: AUG-CC-PVTZ
  Basis Set: (AUG-CC-PVTZ AUX)
    Blend: AUG-CC-PVTZ-JKFIT

    Orbital Energies [Eh]
    ---------------------

    Doubly Occupied:

       1A    -20.540867     2A    -15.561839     3A    -11.340339
       4A    -11.298989     5A    -11.254495     6A    -11.254432
       7A    -11.254127     8A    -11.251619     9A    -11.251384
      10A    -11.250371    11A    -11.248025    12A    -11.245369
      13A    -11.241096    14A    -11.233587    15A    -11.229860
      16A     -1.373840    17A     -1.228503    18A     -1.161171
      19A     -1.138341    20A     -1.058411    21A     -1.023822
      22A     -1.020069    23A     -0.997783    24A     -0.892324
      25A     -0.849538    26A     -0.842028    27A     -0.819521
      28A     -0.769030    29A     -0.719018    30A     -0.702934
      31A     -0.688564    32A     -0.670872    33A     -0.650639
      34A     -0.633658    35A     -0.617085    36A     -0.611880
      37A     -0.604670    38A     -0.596456    39A     -0.587274
      40A     -0.554699    41A     -0.535693    42A     -0.526023
      43A     -0.518154    44A     -0.508988    45A     -0.506669
      46A     -0.489725    47A     -0.454083    48A     -0.420460
      49A     -0.352092    50A     -0.347606    51A     -0.340676
      52A     -0.302087

  @DF-RHF Final Energy:  -628.22229558438266

   => Energetics <=

    Nuclear Repulsion Energy =            893.0193871692474659
    One-Electron Energy =               -2625.3417937712652019
    Two-Electron Energy =                1104.1001110176350721
    Total Energy =                       -628.2222955843826639
  Basis Set: (AUG-CC-PVTZ AUX)
    Blend: AUG-CC-PVTZ-RI
    Molecular point group: c1

    Geometry (in Angstrom), charge = 0, multiplicity = 1:

       Center              X                  Y                   Z               Mass
    ------------   -----------------  -----------------  -----------------  -----------------
         O           -0.043533239894     2.167372360082    -0.305746959054    15.994914619570
         N            2.478812760106     1.914637360082     0.751699040946    14.003074004430
         C            1.114300760106     0.085767360082    -0.139793959054    12.000000000000
         C           -1.443462239894     0.288455360082    -0.037154959054    12.000000000000
         C           -0.102394239894     0.933200360082    -0.171156959054    12.000000000000
         C            2.366530760106     0.625027360082     0.256045040946    12.000000000000
         C            1.052328760106    -1.238544639918    -0.613938959054    12.000000000000
         C            3.486340760106    -0.226630639918     0.259502040946    12.000000000000
         C           -1.609677539894    -0.811475239918     0.817857240946    12.000000000000
         C           -2.526676239894     0.872218360082    -0.709310959054    12.000000000000
         C            2.179407760106    -2.050317639918    -0.644939959054    12.000000000000
         C            3.401523760106    -1.534357639918    -0.201625959054    12.000000000000
         C           -2.945860239894    -1.323542639918     0.966537040946    12.000000000000
         C           -3.806235239894     0.340867360082    -0.564780959054    12.000000000000
         C           -4.018786239894    -0.757656639918     0.273934040946    12.000000000000
         H            0.100662760106    -1.623631639918    -0.969660959054     1.007825032230
         H            4.444573760106     0.170994360082     0.590684040946     1.007825032230
         H           -0.824807239894    -1.242745639918     1.356840040946     1.007825032230
         H           -2.346717239894     1.741262360082    -1.336854959054     1.007825032230
         H            2.113424760106    -3.065771639918    -1.025651959054     1.007825032230
         H            4.293048760106    -2.157701639918    -0.205850959054     1.007825032230
         H           -3.112710239894    -2.166263639918     1.633219040946     1.007825032230
         H           -4.641606239894     0.786214360082    -1.099831959054     1.007825032230
         H           -5.019357239894    -1.166815639918     0.392380040946     1.007825032230
         H            1.786609760106     2.557285360082     0.380883040946     1.007825032230
         H            3.422416760106     2.283684360082     0.750420040946     1.007825032230

  Basis Set: AUG-CC-PVTZ
    Blend: AUG-CC-PVTZ
  Basis Set: (AUG-CC-PVTZ AUX)
    Blend: AUG-CC-PVTZ-JKFIT
	 Reference Energy          =    -628.2222955843826639 [Eh]
	 Singles Energy            =      -0.0000000000000000 [Eh]
	 Same-Spin Energy          =      -0.6916056489212015 [Eh]
	 Opposite-Spin Energy      =      -2.1100510738493425 [Eh]
	 Correlation Energy        =      -2.8016567227705442 [Eh]
	 Total Energy              =    -631.0239523071531949 [Eh]

	 ================> DF-SCS-MP2 Energies <==================
	-----------------------------------------------------------
	 SCS Same-Spin Scale       =       0.3333333333333333 [-]
	 SCS Opposite-Spin Scale   =       1.2000000000000000 [-]
	 SCS Same-Spin Energy      =      -0.2305352163070671 [Eh]
	 SCS Opposite-Spin Energy  =      -2.5320612886192109 [Eh]
	 SCS Correlation Energy    =      -2.7625965049262780 [Eh]
	 SCS Total Energy          =    -630.9848920893089144 [Eh]
	-----------------------------------------------------------

  Dipole Moment: [D]
     X:     0.3390      Y:    -1.6415      Z:    -0.0972     Total:     1.6789

*** Psi4 exiting successfully. Buy a developer a beer!
