                               Psi4 1.4a2.dev612

  ==> Input File <==

--------------------------------------------------------------------------
#psi4
#
memory 32 gb

molecule  {
0 1
  O        3.0945450    -0.5978990    -0.2227500
  N        0.8732720    -0.9469790     0.1890630
  C        0.1786250     1.7001670     0.9719610
  C        1.1438980     2.1917080    -0.1170310
  C       -0.8608580     0.7595260     0.4300750
  C        1.5348037     0.9789263    -1.1967219
  C       -0.4811190    -0.5451200     0.0537530
  C        1.9260440    -0.2179400    -0.3394640
  C       -2.2011530     1.1304640     0.2820740
  C       -1.4377800    -1.4595290    -0.4043930
  C        1.1800400    -2.2400020     0.7973640
  C       -3.1574580     0.2247240    -0.1803460
  C       -2.7731680    -1.0742070    -0.5192260
  H       -0.3080960     2.5514800     1.4609130
  H        0.7541300     1.1728590     1.7431030
  H        0.6757450     2.9910460    -0.7037420
  H        2.0370980     2.6179610     0.3539850
  H        2.4176540     1.3419220    -1.6627910
  H        0.7204100     0.8435550    -1.7555650
  H       -2.5026250     2.1373940     0.5668430
  H       -1.1292290    -2.4616270    -0.6921390
  H        1.2028300    -3.0439780     0.0536200
  H        0.4229280    -2.4619330     1.5509630
  H        2.1652810    -2.1715440     1.2577890
  H       -4.1964680     0.5304710    -0.2745970
  H       -3.5107020    -1.7878430    -0.8784520
units angstrom
no_reorient  #important for SAPT in psi4, default
symmetry c1  #important for SAPT in psi4, default
}

set PROPERTIES_ORIGIN ["COM"]
properties('MP2/aug-cc-pvtz', properties = ['dipole'])
--------------------------------------------------------------------------

    Molecular point group: c1
  Charge       = 0
  Multiplicity = 1
  Basis Set: AUG-CC-PVTZ
    Blend: AUG-CC-PVTZ
  Basis Set: (AUG-CC-PVTZ AUX)
    Blend: AUG-CC-PVTZ-JKFIT

    Orbital Energies [Eh]
    ---------------------

    Doubly Occupied:

       1A    -20.517542     2A    -15.592966     3A    -11.350595
       4A    -11.285619     5A    -11.257230     6A    -11.250110
       7A    -11.246959     8A    -11.246213     9A    -11.245273
      10A    -11.244809    11A    -11.242310    12A    -11.238721
      13A    -11.233169    14A     -1.373018    15A     -1.260676
      16A     -1.153309    17A     -1.090180    18A     -1.028098
      19A     -1.018908    20A     -0.978001    21A     -0.926272
      22A     -0.866490    23A     -0.838491    24A     -0.798428
      25A     -0.754753    26A     -0.697398    27A     -0.686134
      28A     -0.669442    29A     -0.655384    30A     -0.622833
      31A     -0.617432    32A     -0.606872    33A     -0.591839
      34A     -0.588294    35A     -0.570004    36A     -0.556879
      37A     -0.536399    38A     -0.529319    39A     -0.523733
      40A     -0.505865    41A     -0.495437    42A     -0.487822
      43A     -0.455742    44A     -0.417116    45A     -0.405907
      46A     -0.342435    47A     -0.318234

  @DF-RHF Final Energy:  -553.61907696012224

   => Energetics <=

    Nuclear Repulsion Energy =            795.8184686249546758
    One-Electron Energy =               -2331.0377644233863066
    Two-Electron Energy =                 981.6002188383093880
    Total Energy =                       -553.6190769601222428
  Basis Set: (AUG-CC-PVTZ AUX)
    Blend: AUG-CC-PVTZ-RI
    Molecular point group: c1

    Geometry (in Angstrom), charge = 0, multiplicity = 1:

       Center              X                  Y                   Z               Mass
    ------------   -----------------  -----------------  -----------------  -----------------
         O            3.088336317994    -0.579841248320    -0.208181433285    15.994914619570
         N            0.867063317994    -0.928921248320     0.203631566715    14.003074004430
         C            0.172416317994     1.718224751680     0.986529566715    12.000000000000
         C            1.137689317994     2.209765751680    -0.102462433285    12.000000000000
         C           -0.867066682006     0.777583751680     0.444643566715    12.000000000000
         C            1.528595017994     0.996984051680    -1.182153333285    12.000000000000
         C           -0.487327682006    -0.527062248320     0.068321566715    12.000000000000
         C            1.919835317994    -0.199882248320    -0.324895433285    12.000000000000
         C           -2.207361682006     1.148521751680     0.296642566715    12.000000000000
         C           -1.443988682006    -1.441471248320    -0.389824433285    12.000000000000
         C            1.173831317994    -2.221944248320     0.811932566715    12.000000000000
         C           -3.163666682006     0.242781751680    -0.165777433285    12.000000000000
         C           -2.779376682006    -1.056149248320    -0.504657433285    12.000000000000
         H           -0.314304682006     2.569537751680     1.475481566715     1.007825032230
         H            0.747921317994     1.190916751680     1.757671566715     1.007825032230
         H            0.669536317994     3.009103751680    -0.689173433285     1.007825032230
         H            2.030889317994     2.636018751680     0.368553566715     1.007825032230
         H            2.411445317994     1.359979751680    -1.648222433285     1.007825032230
         H            0.714201317994     0.861612751680    -1.740996433285     1.007825032230
         H           -2.508833682006     2.155451751680     0.581411566715     1.007825032230
         H           -1.135437682006    -2.443569248320    -0.677570433285     1.007825032230
         H            1.196621317994    -3.025920248320     0.068188566715     1.007825032230
         H            0.416719317994    -2.443875248320     1.565531566715     1.007825032230
         H            2.159072317994    -2.153486248320     1.272357566715     1.007825032230
         H           -4.202676682006     0.548528751680    -0.260028433285     1.007825032230
         H           -3.516910682006    -1.769785248320    -0.863883433285     1.007825032230

  Basis Set: AUG-CC-PVTZ
    Blend: AUG-CC-PVTZ
  Basis Set: (AUG-CC-PVTZ AUX)
    Blend: AUG-CC-PVTZ-JKFIT
	 Reference Energy          =    -553.6190769601222428 [Eh]
	 Singles Energy            =      -0.0000000000000000 [Eh]
	 Same-Spin Energy          =      -0.6033359266247921 [Eh]
	 Opposite-Spin Energy      =      -1.9031832673738245 [Eh]
	 Correlation Energy        =      -2.5065191939986167 [Eh]
	 Total Energy              =    -556.1255961541208990 [Eh]

	 ================> DF-SCS-MP2 Energies <==================
	-----------------------------------------------------------
	 SCS Same-Spin Scale       =       0.3333333333333333 [-]
	 SCS Opposite-Spin Scale   =       1.2000000000000000 [-]
	 SCS Same-Spin Energy      =      -0.2011119755415973 [Eh]
	 SCS Opposite-Spin Energy  =      -2.2838199208485892 [Eh]
	 SCS Correlation Energy    =      -2.4849318963901865 [Eh]
	 SCS Total Energy          =    -556.1040088565124506 [Eh]
	-----------------------------------------------------------

  Dipole Moment: [D]
     X:    -3.2304      Y:     0.6126      Z:     0.2516     Total:     3.2976

*** Psi4 exiting successfully. Buy a developer a beer!
