                               Psi4 1.4a2.dev612

  ==> Input File <==

--------------------------------------------------------------------------
#psi4
#
memory 32 gb

molecule  {
0 1
  O        3.0945450    -0.5978990    -0.2227500
  N        0.8732720    -0.9469790     0.1890630
  C        0.1786250     1.7001670     0.9719610
  C        1.1438980     2.1917080    -0.1170310
  C       -0.8608580     0.7595260     0.4300750
  C        1.5465590     1.0555900    -1.0683300
  C       -0.4811190    -0.5451200     0.0537530
  C        1.9260440    -0.2179400    -0.3394640
  C       -2.1915816     1.1466044     0.2357288
  C       -1.4377800    -1.4595290    -0.4043930
  C        1.1800400    -2.2400020     0.7973640
  C       -3.1574580     0.2247240    -0.1803460
  C       -2.7731680    -1.0742070    -0.5192260
  H       -0.3080960     2.5514800     1.4609130
  H        0.7541300     1.1728590     1.7431030
  H        0.6757450     2.9910460    -0.7037420
  H        2.0370980     2.6179610     0.3539850
  H        2.4176540     1.3419220    -1.6627910
  H        0.7204100     0.8435550    -1.7555650
  H       -2.5026250     2.1373940     0.5668430
  H       -1.1292290    -2.4616270    -0.6921390
  H        1.2028300    -3.0439780     0.0536200
  H        0.4229280    -2.4619330     1.5509630
  H        2.1652810    -2.1715440     1.2577890
  H       -4.1964680     0.5304710    -0.2745970
  H       -3.5107020    -1.7878430    -0.8784520
units angstrom
no_reorient  #important for SAPT in psi4, default
symmetry c1  #important for SAPT in psi4, default
}

set PROPERTIES_ORIGIN ["COM"]
properties('MP2/aug-cc-pvtz', properties = ['dipole'])
--------------------------------------------------------------------------

    Molecular point group: c1
  Charge       = 0
  Multiplicity = 1
  Basis Set: AUG-CC-PVTZ
    Blend: AUG-CC-PVTZ
  Basis Set: (AUG-CC-PVTZ AUX)
    Blend: AUG-CC-PVTZ-JKFIT

    Orbital Energies [Eh]
    ---------------------

    Doubly Occupied:

       1A    -20.518433     2A    -15.593859     3A    -11.349824
       4A    -11.285496     5A    -11.257375     6A    -11.250413
       7A    -11.246175     8A    -11.245534     9A    -11.244885
      10A    -11.242791    11A    -11.240190    12A    -11.238385
      13A    -11.236554    14A     -1.373850    15A     -1.261266
      16A     -1.153377    17A     -1.099343    18A     -1.032178
      19A     -1.018674    20A     -0.976824    21A     -0.925355
      22A     -0.868031    23A     -0.837642    24A     -0.799123
      25A     -0.754275    26A     -0.690190    27A     -0.683870
      28A     -0.669229    29A     -0.654085    30A     -0.623310
      31A     -0.617355    32A     -0.610140    33A     -0.597594
      34A     -0.578272    35A     -0.572338    36A     -0.554605
      37A     -0.535502    38A     -0.523830    39A     -0.517409
      40A     -0.507681    41A     -0.496588    42A     -0.485485
      43A     -0.473696    44A     -0.420559    45A     -0.405107
      46A     -0.342310    47A     -0.318547

  @DF-RHF Final Energy:  -553.63573214777944

   => Energetics <=

    Nuclear Repulsion Energy =            797.2341383817407632
    One-Electron Energy =               -2333.8846422398678442
    Two-Electron Energy =                 983.0147717103477589
    Total Energy =                       -553.6357321477794358
  Basis Set: (AUG-CC-PVTZ AUX)
    Blend: AUG-CC-PVTZ-RI
    Molecular point group: c1

    Geometry (in Angstrom), charge = 0, multiplicity = 1:

       Center              X                  Y                   Z               Mass
    ------------   -----------------  -----------------  -----------------  -----------------
         O            3.086874748503    -0.586201334092    -0.213804288841    15.994914619570
         N            0.865601748503    -0.935281334092     0.198008711159    14.003074004430
         C            0.170954748503     1.711864665908     0.980906711159    12.000000000000
         C            1.136227748503     2.203405665908    -0.108085288841    12.000000000000
         C           -0.868528251497     0.771223665908     0.439020711159    12.000000000000
         C            1.538888748503     1.067287665908    -1.059384288841    12.000000000000
         C           -0.488789251497    -0.533422334092     0.062698711159    12.000000000000
         C            1.918373748503    -0.206242334092    -0.330518288841    12.000000000000
         C           -2.199251851497     1.158302065908     0.244674511159    12.000000000000
         C           -1.445450251497    -1.447831334092    -0.395447288841    12.000000000000
         C            1.172369748503    -2.228304334092     0.806309711159    12.000000000000
         C           -3.165128251497     0.236421665908    -0.171400288841    12.000000000000
         C           -2.780838251497    -1.062509334092    -0.510280288841    12.000000000000
         H           -0.315766251497     2.563177665908     1.469858711159     1.007825032230
         H            0.746459748503     1.184556665908     1.752048711159     1.007825032230
         H            0.668074748503     3.002743665908    -0.694796288841     1.007825032230
         H            2.029427748503     2.629658665908     0.362930711159     1.007825032230
         H            2.409983748503     1.353619665908    -1.653845288841     1.007825032230
         H            0.712739748503     0.855252665908    -1.746619288841     1.007825032230
         H           -2.510295251497     2.149091665908     0.575788711159     1.007825032230
         H           -1.136899251497    -2.449929334092    -0.683193288841     1.007825032230
         H            1.195159748503    -3.032280334092     0.062565711159     1.007825032230
         H            0.415257748503    -2.450235334092     1.559908711159     1.007825032230
         H            2.157610748503    -2.159846334092     1.266734711159     1.007825032230
         H           -4.204138251497     0.542168665908    -0.265651288841     1.007825032230
         H           -3.518372251497    -1.776145334092    -0.869506288841     1.007825032230

  Basis Set: AUG-CC-PVTZ
    Blend: AUG-CC-PVTZ
  Basis Set: (AUG-CC-PVTZ AUX)
    Blend: AUG-CC-PVTZ-JKFIT
	 Reference Energy          =    -553.6357321477794358 [Eh]
	 Singles Energy            =      -0.0000000000000000 [Eh]
	 Same-Spin Energy          =      -0.6036569235564289 [Eh]
	 Opposite-Spin Energy      =      -1.9030013083577169 [Eh]
	 Correlation Energy        =      -2.5066582319141455 [Eh]
	 Total Energy              =    -556.1423903796935519 [Eh]

	 ================> DF-SCS-MP2 Energies <==================
	-----------------------------------------------------------
	 SCS Same-Spin Scale       =       0.3333333333333333 [-]
	 SCS Opposite-Spin Scale   =       1.2000000000000000 [-]
	 SCS Same-Spin Energy      =      -0.2012189745188096 [Eh]
	 SCS Opposite-Spin Energy  =      -2.2836015700292602 [Eh]
	 SCS Correlation Energy    =      -2.4848205445480698 [Eh]
	 SCS Total Energy          =    -556.1205526923274647 [Eh]
	-----------------------------------------------------------

  Dipole Moment: [D]
     X:    -3.2239      Y:     0.5694      Z:     0.2959     Total:     3.2871

*** Psi4 exiting successfully. Buy a developer a beer!
