                               Psi4 1.4a2.dev612

  ==> Input File <==

--------------------------------------------------------------------------
#psi4
#
memory 32 gb

molecule  {
0 1
  O        3.0945450    -0.5978990    -0.2227500
  N        0.8732720    -0.9469790     0.1890630
  C        0.1786250     1.7001670     0.9719610
  C        1.1438980     2.1917080    -0.1170310
  C       -0.8608580     0.7595260     0.4300750
  C        1.5465590     1.0555900    -1.0683300
  C       -0.4811190    -0.5451200     0.0537530
  C        1.9260440    -0.2179400    -0.3394640
  C       -2.2011530     1.1304640     0.2820740
  C       -1.4722224    -1.5209658    -0.2172053
  C        1.1800400    -2.2400020     0.7973640
  C       -3.1574580     0.2247240    -0.1803460
  C       -2.7731680    -1.0742070    -0.5192260
  H       -0.3080960     2.5514800     1.4609130
  H        0.7541300     1.1728590     1.7431030
  H        0.6757450     2.9910460    -0.7037420
  H        2.0370980     2.6179610     0.3539850
  H        2.4176540     1.3419220    -1.6627910
  H        0.7204100     0.8435550    -1.7555650
  H       -2.5026250     2.1373940     0.5668430
  H       -1.1292290    -2.4616270    -0.6921390
  H        1.2028300    -3.0439780     0.0536200
  H        0.4229280    -2.4619330     1.5509630
  H        2.1652810    -2.1715440     1.2577890
  H       -4.1964680     0.5304710    -0.2745970
  H       -3.5107020    -1.7878430    -0.8784520
units angstrom
no_reorient  #important for SAPT in psi4, default
symmetry c1  #important for SAPT in psi4, default
}

set PROPERTIES_ORIGIN ["COM"]
properties('MP2/aug-cc-pvtz', properties = ['dipole'])
--------------------------------------------------------------------------

    Molecular point group: c1
  Charge       = 0
  Multiplicity = 1
  Basis Set: AUG-CC-PVTZ
    Blend: AUG-CC-PVTZ
  Basis Set: (AUG-CC-PVTZ AUX)
    Blend: AUG-CC-PVTZ-JKFIT

    Orbital Energies [Eh]
    ---------------------

    Doubly Occupied:

       1A    -20.519436     2A    -15.596222     3A    -11.350913
       4A    -11.290594     5A    -11.257535     6A    -11.249521
       7A    -11.249080     8A    -11.247635     9A    -11.247151
      10A    -11.240799    11A    -11.240341    12A    -11.238487
      13A    -11.237478    14A     -1.374908    15A     -1.262473
      16A     -1.152670    17A     -1.099163    18A     -1.031734
      19A     -1.017213    20A     -0.977223    21A     -0.925819
      22A     -0.867883    23A     -0.836550    24A     -0.798656
      25A     -0.753306    26A     -0.689738    27A     -0.683033
      28A     -0.667185    29A     -0.653675    30A     -0.622325
      31A     -0.616609    32A     -0.609901    33A     -0.596126
      34A     -0.577681    35A     -0.572041    36A     -0.555210
      37A     -0.536122    38A     -0.521491    39A     -0.517248
      40A     -0.509201    41A     -0.493132    42A     -0.486055
      43A     -0.473790    44A     -0.420737    45A     -0.409384
      46A     -0.342485    47A     -0.314113

  @DF-RHF Final Energy:  -553.62331843135553

   => Energetics <=

    Nuclear Repulsion Energy =            796.5641037633723727
    One-Electron Energy =               -2332.5146997178371748
    Two-Electron Energy =                 982.3272775231093874
    Total Energy =                       -553.6233184313555284
  Basis Set: (AUG-CC-PVTZ AUX)
    Blend: AUG-CC-PVTZ-RI
    Molecular point group: c1

    Geometry (in Angstrom), charge = 0, multiplicity = 1:

       Center              X                  Y                   Z               Mass
    ------------   -----------------  -----------------  -----------------  -----------------
         O            3.089891118934    -0.580884784005    -0.229808854098    15.994914619570
         N            0.868618118934    -0.929964784005     0.182004145902    14.003074004430
         C            0.173971118934     1.717181215995     0.964902145902    12.000000000000
         C            1.139244118934     2.208722215995    -0.124089854098    12.000000000000
         C           -0.865511881066     0.776540215995     0.423016145902    12.000000000000
         C            1.541905118934     1.072604215995    -1.075388854098    12.000000000000
         C           -0.485772881066    -0.528105784005     0.046694145902    12.000000000000
         C            1.921390118934    -0.200925784005    -0.346522854098    12.000000000000
         C           -2.205806881066     1.147478215995     0.275015145902    12.000000000000
         C           -1.476876281066    -1.503951584005    -0.224264154098    12.000000000000
         C            1.175386118934    -2.222987784005     0.790305145902    12.000000000000
         C           -3.162111881066     0.241738215995    -0.187404854098    12.000000000000
         C           -2.777821881066    -1.057192784005    -0.526284854098    12.000000000000
         H           -0.312749881066     2.568494215995     1.453854145902     1.007825032230
         H            0.749476118934     1.189873215995     1.736044145902     1.007825032230
         H            0.671091118934     3.008060215995    -0.710800854098     1.007825032230
         H            2.032444118934     2.634975215995     0.346926145902     1.007825032230
         H            2.413000118934     1.358936215995    -1.669849854098     1.007825032230
         H            0.715756118934     0.860569215995    -1.762623854098     1.007825032230
         H           -2.507278881066     2.154408215995     0.559784145902     1.007825032230
         H           -1.133882881066    -2.444612784005    -0.699197854098     1.007825032230
         H            1.198176118934    -3.026963784005     0.046561145902     1.007825032230
         H            0.418274118934    -2.444918784005     1.543904145902     1.007825032230
         H            2.160627118934    -2.154529784005     1.250730145902     1.007825032230
         H           -4.201121881066     0.547485215995    -0.281655854098     1.007825032230
         H           -3.515355881066    -1.770828784005    -0.885510854098     1.007825032230

  Basis Set: AUG-CC-PVTZ
    Blend: AUG-CC-PVTZ
  Basis Set: (AUG-CC-PVTZ AUX)
    Blend: AUG-CC-PVTZ-JKFIT
	 Reference Energy          =    -553.6233184313555284 [Eh]
	 Singles Energy            =      -0.0000000000000000 [Eh]
	 Same-Spin Energy          =      -0.6045220108301336 [Eh]
	 Opposite-Spin Energy      =      -1.9051845464932644 [Eh]
	 Correlation Energy        =      -2.5097065573233981 [Eh]
	 Total Energy              =    -556.1330249886789261 [Eh]

	 ================> DF-SCS-MP2 Energies <==================
	-----------------------------------------------------------
	 SCS Same-Spin Scale       =       0.3333333333333333 [-]
	 SCS Opposite-Spin Scale   =       1.2000000000000000 [-]
	 SCS Same-Spin Energy      =      -0.2015073369433779 [Eh]
	 SCS Opposite-Spin Energy  =      -2.2862214557919174 [Eh]
	 SCS Correlation Energy    =      -2.4877287927352953 [Eh]
	 SCS Total Energy          =    -556.1110472240908393 [Eh]
	-----------------------------------------------------------

  Dipole Moment: [D]
     X:    -3.1264      Y:     0.6887      Z:     0.1836     Total:     3.2066

*** Psi4 exiting successfully. Buy a developer a beer!
