                               Psi4 1.4a2.dev612

  ==> Input File <==

--------------------------------------------------------------------------
#psi4
#
memory 32 gb

molecule  {
0 1
  O        3.0945450    -0.5978990    -0.2227500
  N        0.8732720    -0.9469790     0.1890630
  C        0.1786250     1.7001670     0.9719610
  C        1.1438980     2.1917080    -0.1170310
  C       -0.8608580     0.7595260     0.4300750
  C        1.5465590     1.0555900    -1.0683300
  C       -0.4811190    -0.5451200     0.0537530
  C        1.9260440    -0.2179400    -0.3394640
  C       -2.1820103     1.1627448     0.1893836
  C       -1.4377800    -1.4595290    -0.4043930
  C        1.1800400    -2.2400020     0.7973640
  C       -3.1574580     0.2247240    -0.1803460
  C       -2.7731680    -1.0742070    -0.5192260
  H       -0.3080960     2.5514800     1.4609130
  H        0.7541300     1.1728590     1.7431030
  H        0.6757450     2.9910460    -0.7037420
  H        2.0370980     2.6179610     0.3539850
  H        2.4176540     1.3419220    -1.6627910
  H        0.7204100     0.8435550    -1.7555650
  H       -2.5026250     2.1373940     0.5668430
  H       -1.1292290    -2.4616270    -0.6921390
  H        1.2028300    -3.0439780     0.0536200
  H        0.4229280    -2.4619330     1.5509630
  H        2.1652810    -2.1715440     1.2577890
  H       -4.1964680     0.5304710    -0.2745970
  H       -3.5107020    -1.7878430    -0.8784520
units angstrom
no_reorient  #important for SAPT in psi4, default
symmetry c1  #important for SAPT in psi4, default
}

set PROPERTIES_ORIGIN ["COM"]
properties('MP2/aug-cc-pvtz', properties = ['dipole'])
--------------------------------------------------------------------------

    Molecular point group: c1
  Charge       = 0
  Multiplicity = 1
  Basis Set: AUG-CC-PVTZ
    Blend: AUG-CC-PVTZ
  Basis Set: (AUG-CC-PVTZ AUX)
    Blend: AUG-CC-PVTZ-JKFIT

    Orbital Energies [Eh]
    ---------------------

    Doubly Occupied:

       1A    -20.518512     2A    -15.593892     3A    -11.349866
       4A    -11.285372     5A    -11.257344     6A    -11.251203
       7A    -11.246391     8A    -11.246212     9A    -11.245143
      10A    -11.243650    11A    -11.240243    12A    -11.238456
      13A    -11.236517    14A     -1.373903    15A     -1.261283
      16A     -1.153025    17A     -1.099383    18A     -1.032043
      19A     -1.018252    20A     -0.976823    21A     -0.925370
      22A     -0.867758    23A     -0.837629    24A     -0.799009
      25A     -0.754000    26A     -0.690016    27A     -0.683624
      28A     -0.669054    29A     -0.654196    30A     -0.622962
      31A     -0.617027    32A     -0.609845    33A     -0.597246
      34A     -0.578307    35A     -0.572338    36A     -0.554663
      37A     -0.535289    38A     -0.524100    39A     -0.517119
      40A     -0.506663    41A     -0.496568    42A     -0.485660
      43A     -0.473467    44A     -0.420510    45A     -0.405231
      46A     -0.342317    47A     -0.318386

  @DF-RHF Final Energy:  -553.63314792572669

   => Energetics <=

    Nuclear Repulsion Energy =            797.2012710610346176
    One-Electron Energy =               -2333.8170989416144039
    Two-Electron Energy =                 982.9826799548529834
    Total Energy =                       -553.6331479257266892
  Basis Set: (AUG-CC-PVTZ AUX)
    Blend: AUG-CC-PVTZ-RI
    Molecular point group: c1

    Geometry (in Angstrom), charge = 0, multiplicity = 1:

       Center              X                  Y                   Z               Mass
    ------------   -----------------  -----------------  -----------------  -----------------
         O            3.086218804542    -0.587307474105    -0.210628142020    15.994914619570
         N            0.864945804542    -0.936387474105     0.201184857980    14.003074004430
         C            0.170298804542     1.710758525895     0.984082857980    12.000000000000
         C            1.135571804542     2.202299525895    -0.104909142020    12.000000000000
         C           -0.869184195458     0.770117525895     0.442196857980    12.000000000000
         C            1.538232804542     1.066181525895    -1.056208142020    12.000000000000
         C           -0.489445195458    -0.534528474105     0.065874857980    12.000000000000
         C            1.917717804542    -0.207348474105    -0.327342142020    12.000000000000
         C           -2.190336495458     1.173336325895     0.201505457980    12.000000000000
         C           -1.446106195458    -1.448937474105    -0.392271142020    12.000000000000
         C            1.171713804542    -2.229410474105     0.809485857980    12.000000000000
         C           -3.165784195458     0.235315525895    -0.168224142020    12.000000000000
         C           -2.781494195458    -1.063615474105    -0.507104142020    12.000000000000
         H           -0.316422195458     2.562071525895     1.473034857980     1.007825032230
         H            0.745803804542     1.183450525895     1.755224857980     1.007825032230
         H            0.667418804542     3.001637525895    -0.691620142020     1.007825032230
         H            2.028771804542     2.628552525895     0.366106857980     1.007825032230
         H            2.409327804542     1.352513525895    -1.650669142020     1.007825032230
         H            0.712083804542     0.854146525895    -1.743443142020     1.007825032230
         H           -2.510951195458     2.147985525895     0.578964857980     1.007825032230
         H           -1.137555195458    -2.451035474105    -0.680017142020     1.007825032230
         H            1.194503804542    -3.033386474105     0.065741857980     1.007825032230
         H            0.414601804542    -2.451341474105     1.563084857980     1.007825032230
         H            2.156954804542    -2.160952474105     1.269910857980     1.007825032230
         H           -4.204794195458     0.541062525895    -0.262475142020     1.007825032230
         H           -3.519028195458    -1.777251474105    -0.866330142020     1.007825032230

  Basis Set: AUG-CC-PVTZ
    Blend: AUG-CC-PVTZ
  Basis Set: (AUG-CC-PVTZ AUX)
    Blend: AUG-CC-PVTZ-JKFIT
	 Reference Energy          =    -553.6331479257266892 [Eh]
	 Singles Energy            =      -0.0000000000000000 [Eh]
	 Same-Spin Energy          =      -0.6038130683949356 [Eh]
	 Opposite-Spin Energy      =      -1.9034386959218774 [Eh]
	 Correlation Energy        =      -2.5072517643168131 [Eh]
	 Total Energy              =    -556.1403996900435232 [Eh]

	 ================> DF-SCS-MP2 Energies <==================
	-----------------------------------------------------------
	 SCS Same-Spin Scale       =       0.3333333333333333 [-]
	 SCS Opposite-Spin Scale   =       1.2000000000000000 [-]
	 SCS Same-Spin Energy      =      -0.2012710227983119 [Eh]
	 SCS Opposite-Spin Energy  =      -2.2841264351062529 [Eh]
	 SCS Correlation Energy    =      -2.4853974579045648 [Eh]
	 SCS Total Energy          =    -556.1185453836312718 [Eh]
	-----------------------------------------------------------

  Dipole Moment: [D]
     X:    -3.2170      Y:     0.5462      Z:     0.3210     Total:     3.2788

*** Psi4 exiting successfully. Buy a developer a beer!
