                               Psi4 1.4a2.dev612

  ==> Input File <==

--------------------------------------------------------------------------
#psi4
#
memory 32 gb

molecule  {
0 1
  O        3.0945450    -0.5978990    -0.2227500
  N        0.8732720    -0.9469790     0.1890630
  C        0.1786250     1.7001670     0.9719610
  C        1.1438980     2.1917080    -0.1170310
  C       -0.8608580     0.7595260     0.4300750
  C        1.5465590     1.0555900    -1.0683300
  C       -0.4811190    -0.5451200     0.0537530
  C        1.9260440    -0.2179400    -0.3394640
  C       -2.1532962     1.2111661     0.0503481
  C       -1.4377800    -1.4595290    -0.4043930
  C        1.1800400    -2.2400020     0.7973640
  C       -3.1574580     0.2247240    -0.1803460
  C       -2.7731680    -1.0742070    -0.5192260
  H       -0.3080960     2.5514800     1.4609130
  H        0.7541300     1.1728590     1.7431030
  H        0.6757450     2.9910460    -0.7037420
  H        2.0370980     2.6179610     0.3539850
  H        2.4176540     1.3419220    -1.6627910
  H        0.7204100     0.8435550    -1.7555650
  H       -2.5026250     2.1373940     0.5668430
  H       -1.1292290    -2.4616270    -0.6921390
  H        1.2028300    -3.0439780     0.0536200
  H        0.4229280    -2.4619330     1.5509630
  H        2.1652810    -2.1715440     1.2577890
  H       -4.1964680     0.5304710    -0.2745970
  H       -3.5107020    -1.7878430    -0.8784520
units angstrom
no_reorient  #important for SAPT in psi4, default
symmetry c1  #important for SAPT in psi4, default
}

set PROPERTIES_ORIGIN ["COM"]
properties('MP2/aug-cc-pvtz', properties = ['dipole'])
--------------------------------------------------------------------------

    Molecular point group: c1
  Charge       = 0
  Multiplicity = 1
  Basis Set: AUG-CC-PVTZ
    Blend: AUG-CC-PVTZ
  Basis Set: (AUG-CC-PVTZ AUX)
    Blend: AUG-CC-PVTZ-JKFIT

    Orbital Energies [Eh]
    ---------------------

    Doubly Occupied:

       1A    -20.518807     2A    -15.594062     3A    -11.350049
       4A    -11.284814     5A    -11.257428     6A    -11.256039
       7A    -11.250790     8A    -11.249188     9A    -11.248802
      10A    -11.244820    11A    -11.240603    12A    -11.238824
      13A    -11.236492    14A     -1.374135    15A     -1.261442
      16A     -1.151045    17A     -1.099696    18A     -1.031376
      19A     -1.016053    20A     -0.976812    21A     -0.925355
      22A     -0.866539    23A     -0.837253    24A     -0.798041
      25A     -0.752395    26A     -0.689202    27A     -0.683132
      28A     -0.667715    29A     -0.654764    30A     -0.621064
      31A     -0.615321    32A     -0.607809    33A     -0.595463
      34A     -0.577689    35A     -0.572589    36A     -0.554699
      37A     -0.534527    38A     -0.524516    39A     -0.515832
      40A     -0.502699    41A     -0.495526    42A     -0.485425
      43A     -0.472479    44A     -0.420312    45A     -0.405528
      46A     -0.342532    47A     -0.317383

  @DF-RHF Final Energy:  -553.61572209378176

   => Energetics <=

    Nuclear Repulsion Energy =            796.7705926586968417
    One-Electron Energy =               -2332.9385014912600127
    Two-Electron Energy =                 982.5521867387814154
    Total Energy =                       -553.6157220937817556
  Basis Set: (AUG-CC-PVTZ AUX)
    Blend: AUG-CC-PVTZ-RI
    Molecular point group: c1

    Geometry (in Angstrom), charge = 0, multiplicity = 1:

       Center              X                  Y                   Z               Mass
    ------------   -----------------  -----------------  -----------------  -----------------
         O            3.084250958952    -0.590625900998    -0.201099708413    15.994914619570
         N            0.862977958952    -0.939705900998     0.210713291587    14.003074004430
         C            0.168330958952     1.707440099002     0.993611291587    12.000000000000
         C            1.133603958952     2.198981099002    -0.095380708413    12.000000000000
         C           -0.871152041048     0.766799099002     0.451725291587    12.000000000000
         C            1.536264958952     1.062863099002    -1.046679708413    12.000000000000
         C           -0.491413041048    -0.537846900998     0.075403291587    12.000000000000
         C            1.915749958952    -0.210666900998    -0.317813708413    12.000000000000
         C           -2.163590241048     1.218439199002     0.071998391587    12.000000000000
         C           -1.448074041048    -1.452255900998    -0.382742708413    12.000000000000
         C            1.169745958952    -2.232728900998     0.819014291587    12.000000000000
         C           -3.167752041048     0.231997099002    -0.158695708413    12.000000000000
         C           -2.783462041048    -1.066933900998    -0.497575708413    12.000000000000
         H           -0.318390041048     2.558753099002     1.482563291587     1.007825032230
         H            0.743835958952     1.180132099002     1.764753291587     1.007825032230
         H            0.665450958952     2.998319099002    -0.682091708413     1.007825032230
         H            2.026803958952     2.625234099002     0.375635291587     1.007825032230
         H            2.407359958952     1.349195099002    -1.641140708413     1.007825032230
         H            0.710115958952     0.850828099002    -1.733914708413     1.007825032230
         H           -2.512919041048     2.144667099002     0.588493291587     1.007825032230
         H           -1.139523041048    -2.454353900998    -0.670488708413     1.007825032230
         H            1.192535958952    -3.036704900998     0.075270291587     1.007825032230
         H            0.412633958952    -2.454659900998     1.572613291587     1.007825032230
         H            2.154986958952    -2.164270900998     1.279439291587     1.007825032230
         H           -4.206762041048     0.537744099002    -0.252946708413     1.007825032230
         H           -3.520996041048    -1.780569900998    -0.856801708413     1.007825032230

  Basis Set: AUG-CC-PVTZ
    Blend: AUG-CC-PVTZ
  Basis Set: (AUG-CC-PVTZ AUX)
    Blend: AUG-CC-PVTZ-JKFIT
	 Reference Energy          =    -553.6157220937817556 [Eh]
	 Singles Energy            =      -0.0000000000000000 [Eh]
	 Same-Spin Energy          =      -0.6047416350068509 [Eh]
	 Opposite-Spin Energy      =      -1.9061819079879707 [Eh]
	 Correlation Energy        =      -2.5109235429948216 [Eh]
	 Total Energy              =    -556.1266456367766295 [Eh]

	 ================> DF-SCS-MP2 Energies <==================
	-----------------------------------------------------------
	 SCS Same-Spin Scale       =       0.3333333333333333 [-]
	 SCS Opposite-Spin Scale   =       1.2000000000000000 [-]
	 SCS Same-Spin Energy      =      -0.2015805450022836 [Eh]
	 SCS Opposite-Spin Energy  =      -2.2874182895855646 [Eh]
	 SCS Correlation Energy    =      -2.4889988345878482 [Eh]
	 SCS Total Energy          =    -556.1047209283696020 [Eh]
	-----------------------------------------------------------

  Dipole Moment: [D]
     X:    -3.1696      Y:     0.4200      Z:     0.3868     Total:     3.2206

*** Psi4 exiting successfully. Buy a developer a beer!
