                               Psi4 1.4a2.dev612

  ==> Input File <==

--------------------------------------------------------------------------
#psi4
#
memory 32 gb

molecule  {
0 1
  O        3.0945450    -0.5978990    -0.2227500
  N        0.8732720    -0.9469790     0.1890630
  C        0.1786250     1.7001670     0.9719610
  C        1.1438980     2.1917080    -0.1170310
  C       -0.8608580     0.7595260     0.4300750
  C        1.5465590     1.0555900    -1.0683300
  C       -0.4811190    -0.5451200     0.0537530
  C        1.9260440    -0.2179400    -0.3394640
  C       -2.2011530     1.1304640     0.2820740
  C       -1.4808330    -1.5363250    -0.1704084
  C        1.1800400    -2.2400020     0.7973640
  C       -3.1574580     0.2247240    -0.1803460
  C       -2.7731680    -1.0742070    -0.5192260
  H       -0.3080960     2.5514800     1.4609130
  H        0.7541300     1.1728590     1.7431030
  H        0.6757450     2.9910460    -0.7037420
  H        2.0370980     2.6179610     0.3539850
  H        2.4176540     1.3419220    -1.6627910
  H        0.7204100     0.8435550    -1.7555650
  H       -2.5026250     2.1373940     0.5668430
  H       -1.1292290    -2.4616270    -0.6921390
  H        1.2028300    -3.0439780     0.0536200
  H        0.4229280    -2.4619330     1.5509630
  H        2.1652810    -2.1715440     1.2577890
  H       -4.1964680     0.5304710    -0.2745970
  H       -3.5107020    -1.7878430    -0.8784520
units angstrom
no_reorient  #important for SAPT in psi4, default
symmetry c1  #important for SAPT in psi4, default
}

set PROPERTIES_ORIGIN ["COM"]
properties('MP2/aug-cc-pvtz', properties = ['dipole'])
--------------------------------------------------------------------------

    Molecular point group: c1
  Charge       = 0
  Multiplicity = 1
  Basis Set: AUG-CC-PVTZ
    Blend: AUG-CC-PVTZ
  Basis Set: (AUG-CC-PVTZ AUX)
    Blend: AUG-CC-PVTZ-JKFIT

    Orbital Energies [Eh]
    ---------------------

    Doubly Occupied:

       1A    -20.519859     2A    -15.597007     3A    -11.351331
       4A    -11.292831     5A    -11.257504     6A    -11.251313
       7A    -11.249172     8A    -11.249132     9A    -11.247956
      10A    -11.240458    11A    -11.240324    12A    -11.238601
      13A    -11.237796    14A     -1.375318    15A     -1.262848
      16A     -1.152287    17A     -1.099017    18A     -1.031519
      19A     -1.016297    20A     -0.977324    21A     -0.925898
      22A     -0.867630    23A     -0.836156    24A     -0.798393
      25A     -0.752963    26A     -0.689572    27A     -0.682559
      28A     -0.666368    29A     -0.653484    30A     -0.622055
      31A     -0.615977    32A     -0.609433    33A     -0.595170
      34A     -0.577415    35A     -0.571731    36A     -0.555213
      37A     -0.536211    38A     -0.521028    39A     -0.516930
      40A     -0.508985    41A     -0.491774    42A     -0.486292
      43A     -0.473504    44A     -0.420815    45A     -0.410363
      46A     -0.342595    47A     -0.312944

  @DF-RHF Final Energy:  -553.61602077299563

   => Energetics <=

    Nuclear Repulsion Energy =            796.2614699979731085
    One-Electron Energy =               -2331.8962725893024981
    Two-Electron Energy =                 982.0187818183337640
    Total Energy =                       -553.6160207729956255
  Basis Set: (AUG-CC-PVTZ AUX)
    Blend: AUG-CC-PVTZ-RI
    Molecular point group: c1

    Geometry (in Angstrom), charge = 0, multiplicity = 1:

       Center              X                  Y                   Z               Mass
    ------------   -----------------  -----------------  -----------------  -----------------
         O            3.090481223839    -0.579832181486    -0.233015956994    15.994914619570
         N            0.869208223839    -0.928912181486     0.178797043006    14.003074004430
         C            0.174561223839     1.718233818514     0.961695043006    12.000000000000
         C            1.139834223839     2.209774818514    -0.127296956994    12.000000000000
         C           -0.864921776161     0.777592818514     0.419809043006    12.000000000000
         C            1.542495223839     1.073656818514    -1.078595956994    12.000000000000
         C           -0.485182776161    -0.527053181486     0.043487043006    12.000000000000
         C            1.921980223839    -0.199873181486    -0.349729956994    12.000000000000
         C           -2.205216776161     1.148530818514     0.271808043006    12.000000000000
         C           -1.484896776161    -1.518258181486    -0.180674356994    12.000000000000
         C            1.175976223839    -2.221935181486     0.787098043006    12.000000000000
         C           -3.161521776161     0.242790818514    -0.190611956994    12.000000000000
         C           -2.777231776161    -1.056140181486    -0.529491956994    12.000000000000
         H           -0.312159776161     2.569546818514     1.450647043006     1.007825032230
         H            0.750066223839     1.190925818514     1.732837043006     1.007825032230
         H            0.671681223839     3.009112818514    -0.714007956994     1.007825032230
         H            2.033034223839     2.636027818514     0.343719043006     1.007825032230
         H            2.413590223839     1.359988818514    -1.673056956994     1.007825032230
         H            0.716346223839     0.861621818514    -1.765830956994     1.007825032230
         H           -2.506688776161     2.155460818514     0.556577043006     1.007825032230
         H           -1.133292776161    -2.443560181486    -0.702404956994     1.007825032230
         H            1.198766223839    -3.025911181486     0.043354043006     1.007825032230
         H            0.418864223839    -2.443866181486     1.540697043006     1.007825032230
         H            2.161217223839    -2.153477181486     1.247523043006     1.007825032230
         H           -4.200531776161     0.548537818514    -0.284862956994     1.007825032230
         H           -3.514765776161    -1.769776181486    -0.888717956994     1.007825032230

  Basis Set: AUG-CC-PVTZ
    Blend: AUG-CC-PVTZ
  Basis Set: (AUG-CC-PVTZ AUX)
    Blend: AUG-CC-PVTZ-JKFIT
	 Reference Energy          =    -553.6160207729956255 [Eh]
	 Singles Energy            =      -0.0000000000000000 [Eh]
	 Same-Spin Energy          =      -0.6049400357146513 [Eh]
	 Opposite-Spin Energy      =      -1.9063390934968301 [Eh]
	 Correlation Energy        =      -2.5112791292114816 [Eh]
	 Total Energy              =    -556.1272999022071417 [Eh]

	 ================> DF-SCS-MP2 Energies <==================
	-----------------------------------------------------------
	 SCS Same-Spin Scale       =       0.3333333333333333 [-]
	 SCS Opposite-Spin Scale   =       1.2000000000000000 [-]
	 SCS Same-Spin Energy      =      -0.2016466785715504 [Eh]
	 SCS Opposite-Spin Energy  =      -2.2876069121961962 [Eh]
	 SCS Correlation Energy    =      -2.4892535907677464 [Eh]
	 SCS Total Energy          =    -556.1052743637633284 [Eh]
	-----------------------------------------------------------

  Dipole Moment: [D]
     X:    -3.0977      Y:     0.7413      Z:     0.1666     Total:     3.1895

*** Psi4 exiting successfully. Buy a developer a beer!
