                               Psi4 1.4a2.dev612

  ==> Input File <==

--------------------------------------------------------------------------
#psi4
#
memory 32 gb

molecule  {
0 1
  O        3.0945450    -0.5978990    -0.2227500
  N        0.8732720    -0.9469790     0.1890630
  C        0.1786250     1.7001670     0.9719610
  C        1.1438980     2.1917080    -0.1170310
  C       -0.8608580     0.7595260     0.4300750
  C        1.5465590     1.0555900    -1.0683300
  C       -0.4811190    -0.5451200     0.0537530
  C        1.9260440    -0.2179400    -0.3394640
  C       -2.2011530     1.1304640     0.2820740
  C       -1.4894437    -1.5516841    -0.1236114
  C        1.1800400    -2.2400020     0.7973640
  C       -3.1574580     0.2247240    -0.1803460
  C       -2.7731680    -1.0742070    -0.5192260
  H       -0.3080960     2.5514800     1.4609130
  H        0.7541300     1.1728590     1.7431030
  H        0.6757450     2.9910460    -0.7037420
  H        2.0370980     2.6179610     0.3539850
  H        2.4176540     1.3419220    -1.6627910
  H        0.7204100     0.8435550    -1.7555650
  H       -2.5026250     2.1373940     0.5668430
  H       -1.1292290    -2.4616270    -0.6921390
  H        1.2028300    -3.0439780     0.0536200
  H        0.4229280    -2.4619330     1.5509630
  H        2.1652810    -2.1715440     1.2577890
  H       -4.1964680     0.5304710    -0.2745970
  H       -3.5107020    -1.7878430    -0.8784520
units angstrom
no_reorient  #important for SAPT in psi4, default
symmetry c1  #important for SAPT in psi4, default
}

set PROPERTIES_ORIGIN ["COM"]
properties('MP2/aug-cc-pvtz', properties = ['dipole'])
--------------------------------------------------------------------------

    Molecular point group: c1
  Charge       = 0
  Multiplicity = 1
  Basis Set: AUG-CC-PVTZ
    Blend: AUG-CC-PVTZ
  Basis Set: (AUG-CC-PVTZ AUX)
    Blend: AUG-CC-PVTZ-JKFIT

    Orbital Energies [Eh]
    ---------------------

    Doubly Occupied:

       1A    -20.520351     2A    -15.597873     3A    -11.351807
       4A    -11.295406     5A    -11.257441     6A    -11.253431
       7A    -11.250916     8A    -11.250204     9A    -11.248070
      10A    -11.240614    11A    -11.239836    12A    -11.238758
      13A    -11.238163    14A     -1.375787    15A     -1.263257
      16A     -1.151876    17A     -1.098844    18A     -1.031307
      19A     -1.015151    20A     -0.977429    21A     -0.925969
      22A     -0.867340    23A     -0.835709    24A     -0.798114
      25A     -0.752632    26A     -0.689472    27A     -0.682071
      28A     -0.665502    29A     -0.653291    30A     -0.621920
      31A     -0.615218    32A     -0.608854    33A     -0.593916
      34A     -0.577197    35A     -0.571228    36A     -0.555112
      37A     -0.536290    38A     -0.520681    39A     -0.516438
      40A     -0.508576    41A     -0.490224    42A     -0.486530
      43A     -0.473023    44A     -0.420911    45A     -0.411295
      46A     -0.342769    47A     -0.311789

  @DF-RHF Final Energy:  -553.60710607722433

   => Energetics <=

    Nuclear Repulsion Energy =            795.9063581866718096
    One-Electron Energy =               -2331.1697406051316648
    Two-Electron Energy =                 981.6562763412356389
    Total Energy =                       -553.6071060772243300
  Basis Set: (AUG-CC-PVTZ AUX)
    Blend: AUG-CC-PVTZ-RI
    Molecular point group: c1

    Geometry (in Angstrom), charge = 0, multiplicity = 1:

       Center              X                  Y                   Z               Mass
    ------------   -----------------  -----------------  -----------------  -----------------
         O            3.091071335596    -0.578779585821    -0.236223066744    15.994914619570
         N            0.869798335596    -0.927859585821     0.175589933256    14.003074004430
         C            0.175151335596     1.719286414179     0.958487933256    12.000000000000
         C            1.140424335596     2.210827414179    -0.130504066744    12.000000000000
         C           -0.864331664404     0.778645414179     0.416601933256    12.000000000000
         C            1.543085335596     1.074709414179    -1.081803066744    12.000000000000
         C           -0.484592664404    -0.526000585821     0.040279933256    12.000000000000
         C            1.922570335596    -0.198820585821    -0.352937066744    12.000000000000
         C           -2.204626664404     1.149583414179     0.268600933256    12.000000000000
         C           -1.492917364404    -1.532564685821    -0.137084466744    12.000000000000
         C            1.176566335596    -2.220882585821     0.783890933256    12.000000000000
         C           -3.160931664404     0.243843414179    -0.193819066744    12.000000000000
         C           -2.776641664404    -1.055087585821    -0.532699066744    12.000000000000
         H           -0.311569664404     2.570599414179     1.447439933256     1.007825032230
         H            0.750656335596     1.191978414179     1.729629933256     1.007825032230
         H            0.672271335596     3.010165414179    -0.717215066744     1.007825032230
         H            2.033624335596     2.637080414179     0.340511933256     1.007825032230
         H            2.414180335596     1.361041414179    -1.676264066744     1.007825032230
         H            0.716936335596     0.862674414179    -1.769038066744     1.007825032230
         H           -2.506098664404     2.156513414179     0.553369933256     1.007825032230
         H           -1.132702664404    -2.442507585821    -0.705612066744     1.007825032230
         H            1.199356335596    -3.024858585821     0.040146933256     1.007825032230
         H            0.419454335596    -2.442813585821     1.537489933256     1.007825032230
         H            2.161807335596    -2.152424585821     1.244315933256     1.007825032230
         H           -4.199941664404     0.549590414179    -0.288070066744     1.007825032230
         H           -3.514175664404    -1.768723585821    -0.891925066744     1.007825032230

  Basis Set: AUG-CC-PVTZ
    Blend: AUG-CC-PVTZ
  Basis Set: (AUG-CC-PVTZ AUX)
    Blend: AUG-CC-PVTZ-JKFIT
	 Reference Energy          =    -553.6071060772243300 [Eh]
	 Singles Energy            =      -0.0000000000000000 [Eh]
	 Same-Spin Energy          =      -0.6054164018018204 [Eh]
	 Opposite-Spin Energy      =      -1.9076889425571251 [Eh]
	 Correlation Energy        =      -2.5131053443589453 [Eh]
	 Total Energy              =    -556.1202114215832353 [Eh]

	 ================> DF-SCS-MP2 Energies <==================
	-----------------------------------------------------------
	 SCS Same-Spin Scale       =       0.3333333333333333 [-]
	 SCS Opposite-Spin Scale   =       1.2000000000000000 [-]
	 SCS Same-Spin Energy      =      -0.2018054672672735 [Eh]
	 SCS Opposite-Spin Energy  =      -2.2892267310685499 [Eh]
	 SCS Correlation Energy    =      -2.4910321983358235 [Eh]
	 SCS Total Energy          =    -556.0981382755601317 [Eh]
	-----------------------------------------------------------

  Dipole Moment: [D]
     X:    -3.0669      Y:     0.8037      Z:     0.1513     Total:     3.1741

*** Psi4 exiting successfully. Buy a developer a beer!
