                               Psi4 1.4a2.dev612

  ==> Input File <==

--------------------------------------------------------------------------
#psi4
#
memory 32 gb

molecule  {
0 1
  O        3.0945450    -0.5978990    -0.2227500
  N        0.8732720    -0.9469790     0.1890630
  C        0.1786250     1.7001670     0.9719610
  C        1.1438980     2.1917080    -0.1170310
  C       -0.8608580     0.7595260     0.4300750
  C        1.5465590     1.0555900    -1.0683300
  C       -0.4811190    -0.5451200     0.0537530
  C        1.9260440    -0.2179400    -0.3394640
  C       -2.2011530     1.1304640     0.2820740
  C       -1.4377800    -1.4595290    -0.4043930
  C        1.1800400    -2.2400020     0.7973640
  C       -3.1574580     0.2247240    -0.1803460
  C       -2.7731680    -1.0742070    -0.5192260
  H       -0.3080960     2.5514800     1.4609130
  H        0.7541300     1.1728590     1.7431030
  H        0.6757450     2.9910460    -0.7037420
  H        2.0370980     2.6179610     0.3539850
  H        2.4176540     1.3419220    -1.6627910
  H        0.7204100     0.8435550    -1.7555650
  H       -2.5026250     2.1373940     0.5668430
  H       -1.1292290    -2.4616270    -0.6921390
  H        1.2028300    -3.0439780     0.0536200
  H        0.4229280    -2.4619330     1.5509630
  H        2.1652810    -2.1715440     1.2577890
  H       -4.1964680     0.5304710    -0.2745970
  H       -3.5107020    -1.7878430    -0.8784520
units angstrom
no_reorient  #important for SAPT in psi4, default
symmetry c1  #important for SAPT in psi4, default
}

set PROPERTIES_ORIGIN ["COM"]
properties('MP2/aug-cc-pvtz', properties = ['dipole'])
--------------------------------------------------------------------------

    Molecular point group: c1
  Charge       = 0
  Multiplicity = 1
  Basis Set: AUG-CC-PVTZ
    Blend: AUG-CC-PVTZ
  Basis Set: (AUG-CC-PVTZ AUX)
    Blend: AUG-CC-PVTZ-JKFIT

    Orbital Energies [Eh]
    ---------------------

    Doubly Occupied:

       1A    -20.518362     2A    -15.593833     3A    -11.349789
       4A    -11.285576     5A    -11.257431     6A    -11.250061
       7A    -11.246159     8A    -11.245212     9A    -11.244764
      10A    -11.242311    11A    -11.240173    12A    -11.238341
      13A    -11.236609    14A     -1.373807    15A     -1.261261
      16A     -1.153558    17A     -1.099333    18A     -1.032257
      19A     -1.018943    20A     -0.976826    21A     -0.925332
      22A     -0.868215    23A     -0.837594    24A     -0.799116
      25A     -0.754385    26A     -0.690275    27A     -0.684137
      28A     -0.669253    29A     -0.654015    30A     -0.623368
      31A     -0.617584    32A     -0.610258    33A     -0.597818
      34A     -0.578171    35A     -0.572369    36A     -0.554523
      37A     -0.535691    38A     -0.523507    39A     -0.517630
      40A     -0.508488    41A     -0.496491    42A     -0.485225
      43A     -0.473902    44A     -0.420596    45A     -0.404962
      46A     -0.342319    47A     -0.318601

  @DF-RHF Final Energy:  -553.63674157236051

   => Energetics <=

    Nuclear Repulsion Energy =            797.2096166260849941
    One-Electron Energy =               -2333.8358514951301004
    Two-Electron Energy =                 982.9894932966847136
    Total Energy =                       -553.6367415723605063
  Basis Set: (AUG-CC-PVTZ AUX)
    Blend: AUG-CC-PVTZ-RI
    Molecular point group: c1

    Geometry (in Angstrom), charge = 0, multiplicity = 1:

       Center              X                  Y                   Z               Mass
    ------------   -----------------  -----------------  -----------------  -----------------
         O            3.087530699317    -0.585095194079    -0.216980435661    15.994914619570
         N            0.866257699317    -0.934175194079     0.194832564339    14.003074004430
         C            0.171610699317     1.712970805921     0.977730564339    12.000000000000
         C            1.136883699317     2.204511805921    -0.111261435661    12.000000000000
         C           -0.867872300683     0.772329805921     0.435844564339    12.000000000000
         C            1.539544699317     1.068393805921    -1.062560435661    12.000000000000
         C           -0.488133300683    -0.532316194079     0.059522564339    12.000000000000
         C            1.919029699317    -0.205136194079    -0.333694435661    12.000000000000
         C           -2.208167300683     1.143267805921     0.287843564339    12.000000000000
         C           -1.444794300683    -1.446725194079    -0.398623435661    12.000000000000
         C            1.173025699317    -2.227198194079     0.803133564339    12.000000000000
         C           -3.164472300683     0.237527805921    -0.174576435661    12.000000000000
         C           -2.780182300683    -1.061403194079    -0.513456435661    12.000000000000
         H           -0.315110300683     2.564283805921     1.466682564339     1.007825032230
         H            0.747115699317     1.185662805921     1.748872564339     1.007825032230
         H            0.668730699317     3.003849805921    -0.697972435661     1.007825032230
         H            2.030083699317     2.630764805921     0.359754564339     1.007825032230
         H            2.410639699317     1.354725805921    -1.657021435661     1.007825032230
         H            0.713395699317     0.856358805921    -1.749795435661     1.007825032230
         H           -2.509639300683     2.150197805921     0.572612564339     1.007825032230
         H           -1.136243300683    -2.448823194079    -0.686369435661     1.007825032230
         H            1.195815699317    -3.031174194079     0.059389564339     1.007825032230
         H            0.415913699317    -2.449129194079     1.556732564339     1.007825032230
         H            2.158266699317    -2.158740194079     1.263558564339     1.007825032230
         H           -4.203482300683     0.543274805921    -0.268827435661     1.007825032230
         H           -3.517716300683    -1.775039194079    -0.872682435661     1.007825032230

  Basis Set: AUG-CC-PVTZ
    Blend: AUG-CC-PVTZ
  Basis Set: (AUG-CC-PVTZ AUX)
    Blend: AUG-CC-PVTZ-JKFIT
	 Reference Energy          =    -553.6367415723605063 [Eh]
	 Singles Energy            =      -0.0000000000000000 [Eh]
	 Same-Spin Energy          =      -0.6035830558255763 [Eh]
	 Opposite-Spin Energy      =      -1.9027969896298473 [Eh]
	 Correlation Energy        =      -2.5063800454554235 [Eh]
	 Total Energy              =    -556.1431216178159502 [Eh]

	 ================> DF-SCS-MP2 Energies <==================
	-----------------------------------------------------------
	 SCS Same-Spin Scale       =       0.3333333333333333 [-]
	 SCS Opposite-Spin Scale   =       1.2000000000000000 [-]
	 SCS Same-Spin Energy      =      -0.2011943519418588 [Eh]
	 SCS Opposite-Spin Energy  =      -2.2833563875558167 [Eh]
	 SCS Correlation Energy    =      -2.4845507394976756 [Eh]
	 SCS Total Energy          =    -556.1212923118581557 [Eh]
	-----------------------------------------------------------

  Dipole Moment: [D]
     X:    -3.2261      Y:     0.5830      Z:     0.2688     Total:     3.2893

*** Psi4 exiting successfully. Buy a developer a beer!
