                               Psi4 1.4a2.dev612

  ==> Input File <==

--------------------------------------------------------------------------
#psi4
#
memory 32 gb

molecule  {
0 1
  O        3.0945450    -0.5978990    -0.2227500
  N        0.8732720    -0.9469790     0.1890630
  C        0.1786250     1.7001670     0.9719610
  C        1.1438980     2.1917080    -0.1170310
  C       -0.8608580     0.7595260     0.4300750
  C        1.5269669     0.9278171    -1.2823165
  C       -0.4811190    -0.5451200     0.0537530
  C        1.9260440    -0.2179400    -0.3394640
  C       -2.2011530     1.1304640     0.2820740
  C       -1.4377800    -1.4595290    -0.4043930
  C        1.1800400    -2.2400020     0.7973640
  C       -3.1574580     0.2247240    -0.1803460
  C       -2.7731680    -1.0742070    -0.5192260
  H       -0.3080960     2.5514800     1.4609130
  H        0.7541300     1.1728590     1.7431030
  H        0.6757450     2.9910460    -0.7037420
  H        2.0370980     2.6179610     0.3539850
  H        2.4176540     1.3419220    -1.6627910
  H        0.7204100     0.8435550    -1.7555650
  H       -2.5026250     2.1373940     0.5668430
  H       -1.1292290    -2.4616270    -0.6921390
  H        1.2028300    -3.0439780     0.0536200
  H        0.4229280    -2.4619330     1.5509630
  H        2.1652810    -2.1715440     1.2577890
  H       -4.1964680     0.5304710    -0.2745970
  H       -3.5107020    -1.7878430    -0.8784520
units angstrom
no_reorient  #important for SAPT in psi4, default
symmetry c1  #important for SAPT in psi4, default
}

set PROPERTIES_ORIGIN ["COM"]
properties('MP2/aug-cc-pvtz', properties = ['dipole'])
--------------------------------------------------------------------------

    Molecular point group: c1
  Charge       = 0
  Multiplicity = 1
  Basis Set: AUG-CC-PVTZ
    Blend: AUG-CC-PVTZ
  Basis Set: (AUG-CC-PVTZ AUX)
    Blend: AUG-CC-PVTZ-JKFIT

    Orbital Energies [Eh]
    ---------------------

    Doubly Occupied:

       1A    -20.517287     2A    -15.592378     3A    -11.352614
       4A    -11.285636     5A    -11.257145     6A    -11.251244
       7A    -11.250173     8A    -11.246210     9A    -11.245307
      10A    -11.244784    11A    -11.242266    12A    -11.239362
      13A    -11.233992    14A     -1.372641    15A     -1.260316
      16A     -1.153217    17A     -1.086431    18A     -1.025918
      19A     -1.018840    20A     -0.978747    21A     -0.927543
      22A     -0.865626    23A     -0.839135    24A     -0.798553
      25A     -0.754971    26A     -0.705767    27A     -0.687003
      28A     -0.669609    29A     -0.656054    30A     -0.622694
      31A     -0.618888    32A     -0.605970    33A     -0.597400
      34A     -0.586551    35A     -0.569129    36A     -0.558306
      37A     -0.538985    38A     -0.528759    39A     -0.525482
      40A     -0.504937    41A     -0.495478    42A     -0.488623
      43A     -0.441423    44A     -0.410346    45A     -0.405545
      46A     -0.342501    47A     -0.317870

  @DF-RHF Final Energy:  -553.58762901441355

   => Energetics <=

    Nuclear Repulsion Energy =            794.8236740375962199
    One-Electron Energy =               -2328.9872922455915614
    Two-Electron Energy =                 980.5759891935817905
    Total Energy =                       -553.5876290144135510
  Basis Set: (AUG-CC-PVTZ AUX)
    Blend: AUG-CC-PVTZ-RI
    Molecular point group: c1

    Geometry (in Angstrom), charge = 0, multiplicity = 1:

       Center              X                  Y                   Z               Mass
    ------------   -----------------  -----------------  -----------------  -----------------
         O            3.088873392544    -0.576338613245    -0.202315431700    15.994914619570
         N            0.867600392544    -0.925418613245     0.209497568300    14.003074004430
         C            0.172953392544     1.721727386755     0.992395568300    12.000000000000
         C            1.138226392544     2.213268386755    -0.096596431700    12.000000000000
         C           -0.866529607456     0.781086386755     0.450509568300    12.000000000000
         C            1.521295292544     0.949377486755    -1.261881931700    12.000000000000
         C           -0.486790607456    -0.523559613245     0.074187568300    12.000000000000
         C            1.920372392544    -0.196379613245    -0.319029431700    12.000000000000
         C           -2.206824607456     1.152024386755     0.302508568300    12.000000000000
         C           -1.443451607456    -1.437968613245    -0.383958431700    12.000000000000
         C            1.174368392544    -2.218441613245     0.817798568300    12.000000000000
         C           -3.163129607456     0.246284386755    -0.159911431700    12.000000000000
         C           -2.778839607456    -1.052646613245    -0.498791431700    12.000000000000
         H           -0.313767607456     2.573040386755     1.481347568300     1.007825032230
         H            0.748458392544     1.194419386755     1.763537568300     1.007825032230
         H            0.670073392544     3.012606386755    -0.683307431700     1.007825032230
         H            2.031426392544     2.639521386755     0.374419568300     1.007825032230
         H            2.411982392544     1.363482386755    -1.642356431700     1.007825032230
         H            0.714738392544     0.865115386755    -1.735130431700     1.007825032230
         H           -2.508296607456     2.158954386755     0.587277568300     1.007825032230
         H           -1.134900607456    -2.440066613245    -0.671704431700     1.007825032230
         H            1.197158392544    -3.022417613245     0.074054568300     1.007825032230
         H            0.417256392544    -2.440372613245     1.571397568300     1.007825032230
         H            2.159609392544    -2.149983613245     1.278223568300     1.007825032230
         H           -4.202139607456     0.552031386755    -0.254162431700     1.007825032230
         H           -3.516373607456    -1.766282613245    -0.858017431700     1.007825032230

  Basis Set: AUG-CC-PVTZ
    Blend: AUG-CC-PVTZ
  Basis Set: (AUG-CC-PVTZ AUX)
    Blend: AUG-CC-PVTZ-JKFIT
	 Reference Energy          =    -553.5876290144135510 [Eh]
	 Singles Energy            =      -0.0000000000000000 [Eh]
	 Same-Spin Energy          =      -0.6039047043815509 [Eh]
	 Opposite-Spin Energy      =      -1.9050038327363690 [Eh]
	 Correlation Energy        =      -2.5089085371179198 [Eh]
	 Total Energy              =    -556.0965375515314690 [Eh]

	 ================> DF-SCS-MP2 Energies <==================
	-----------------------------------------------------------
	 SCS Same-Spin Scale       =       0.3333333333333333 [-]
	 SCS Opposite-Spin Scale   =       1.2000000000000000 [-]
	 SCS Same-Spin Energy      =      -0.2013015681271836 [Eh]
	 SCS Opposite-Spin Energy  =      -2.2860045992836429 [Eh]
	 SCS Correlation Energy    =      -2.4873061674108263 [Eh]
	 SCS Total Energy          =    -556.0749351818243440 [Eh]
	-----------------------------------------------------------

  Dipole Moment: [D]
     X:    -3.2299      Y:     0.6460      Z:     0.2695     Total:     3.3048

*** Psi4 exiting successfully. Buy a developer a beer!
