                               Psi4 1.4a2.dev612

  ==> Input File <==

--------------------------------------------------------------------------
#psi4
#
memory 32 gb

molecule  {
0 1
  O        3.0945450    -0.5978990    -0.2227500
  N        0.8732720    -0.9469790     0.1890630
  C        0.1786250     1.7001670     0.9719610
  C        1.1438980     2.1917080    -0.1170310
  C       -0.8608580     0.7595260     0.4300750
  C        1.5465590     1.0555900    -1.0683300
  C       -0.4811190    -0.5451200     0.0537530
  C        1.9260440    -0.2179400    -0.3394640
  C       -2.1724389     1.1788853     0.1430384
  C       -1.4377800    -1.4595290    -0.4043930
  C        1.1800400    -2.2400020     0.7973640
  C       -3.1574580     0.2247240    -0.1803460
  C       -2.7731680    -1.0742070    -0.5192260
  H       -0.3080960     2.5514800     1.4609130
  H        0.7541300     1.1728590     1.7431030
  H        0.6757450     2.9910460    -0.7037420
  H        2.0370980     2.6179610     0.3539850
  H        2.4176540     1.3419220    -1.6627910
  H        0.7204100     0.8435550    -1.7555650
  H       -2.5026250     2.1373940     0.5668430
  H       -1.1292290    -2.4616270    -0.6921390
  H        1.2028300    -3.0439780     0.0536200
  H        0.4229280    -2.4619330     1.5509630
  H        2.1652810    -2.1715440     1.2577890
  H       -4.1964680     0.5304710    -0.2745970
  H       -3.5107020    -1.7878430    -0.8784520
units angstrom
no_reorient  #important for SAPT in psi4, default
symmetry c1  #important for SAPT in psi4, default
}

set PROPERTIES_ORIGIN ["COM"]
properties('MP2/aug-cc-pvtz', properties = ['dipole'])
--------------------------------------------------------------------------

    Molecular point group: c1
  Charge       = 0
  Multiplicity = 1
  Basis Set: AUG-CC-PVTZ
    Blend: AUG-CC-PVTZ
  Basis Set: (AUG-CC-PVTZ AUX)
    Blend: AUG-CC-PVTZ-JKFIT

    Orbital Energies [Eh]
    ---------------------

    Doubly Occupied:

       1A    -20.518600     2A    -15.593934     3A    -11.349917
       4A    -11.285211     5A    -11.257340     6A    -11.252418
       7A    -11.247442     8A    -11.246769     9A    -11.245658
      10A    -11.244593    11A    -11.240332    12A    -11.238553
      13A    -11.236495    14A     -1.373968    15A     -1.261316
      16A     -1.152510    17A     -1.099455    18A     -1.031858
      19A     -1.017677    20A     -0.976823    21A     -0.925376
      22A     -0.867407    23A     -0.837559    24A     -0.798782
      25A     -0.753577    26A     -0.689775    27A     -0.683409
      28A     -0.668736    29A     -0.654349    30A     -0.622392
      31A     -0.616595    32A     -0.609362    33A     -0.596772
      34A     -0.578249    35A     -0.572377    36A     -0.554698
      37A     -0.535054    38A     -0.524308    39A     -0.516760
      40A     -0.505458    41A     -0.496412    42A     -0.485733
      43A     -0.473202    44A     -0.420450    45A     -0.405340
      46A     -0.342348    47A     -0.318130

  @DF-RHF Final Energy:  -553.62896812221732

   => Energetics <=

    Nuclear Repulsion Energy =            797.1119885543334931
    One-Electron Energy =               -2333.6349580876785694
    Two-Electron Energy =                 982.8940014111277605
    Total Energy =                       -553.6289681222173158
  Basis Set: (AUG-CC-PVTZ AUX)
    Blend: AUG-CC-PVTZ-RI
    Molecular point group: c1

    Geometry (in Angstrom), charge = 0, multiplicity = 1:

       Center              X                  Y                   Z               Mass
    ------------   -----------------  -----------------  -----------------  -----------------
         O            3.085562853728    -0.588413620972    -0.207451995200    15.994914619570
         N            0.864289853728    -0.937493620972     0.204361004800    14.003074004430
         C            0.169642853728     1.709652379028     0.987259004800    12.000000000000
         C            1.134915853728     2.201193379028    -0.101732995200    12.000000000000
         C           -0.869840146272     0.769011379028     0.445373004800    12.000000000000
         C            1.537576853728     1.065075379028    -1.053031995200    12.000000000000
         C           -0.490101146272    -0.535634620972     0.069051004800    12.000000000000
         C            1.917061853728    -0.208454620972    -0.324165995200    12.000000000000
         C           -2.181421046272     1.188370679028     0.158336404800    12.000000000000
         C           -1.446762146272    -1.450043620972    -0.389094995200    12.000000000000
         C            1.171057853728    -2.230516620972     0.812662004800    12.000000000000
         C           -3.166440146272     0.234209379028    -0.165047995200    12.000000000000
         C           -2.782150146272    -1.064721620972    -0.503927995200    12.000000000000
         H           -0.317078146272     2.560965379028     1.476211004800     1.007825032230
         H            0.745147853728     1.182344379028     1.758401004800     1.007825032230
         H            0.666762853728     3.000531379028    -0.688443995200     1.007825032230
         H            2.028115853728     2.627446379028     0.369283004800     1.007825032230
         H            2.408671853728     1.351407379028    -1.647492995200     1.007825032230
         H            0.711427853728     0.853040379028    -1.740266995200     1.007825032230
         H           -2.511607146272     2.146879379028     0.582141004800     1.007825032230
         H           -1.138211146272    -2.452141620972    -0.676840995200     1.007825032230
         H            1.193847853728    -3.034492620972     0.068918004800     1.007825032230
         H            0.413945853728    -2.452447620972     1.566261004800     1.007825032230
         H            2.156298853728    -2.162058620972     1.273087004800     1.007825032230
         H           -4.205450146272     0.539956379028    -0.259298995200     1.007825032230
         H           -3.519684146272    -1.778357620972    -0.863153995200     1.007825032230

  Basis Set: AUG-CC-PVTZ
    Blend: AUG-CC-PVTZ
  Basis Set: (AUG-CC-PVTZ AUX)
    Blend: AUG-CC-PVTZ-JKFIT
	 Reference Energy          =    -553.6289681222173158 [Eh]
	 Singles Energy            =      -0.0000000000000000 [Eh]
	 Same-Spin Energy          =      -0.6040487282981079 [Eh]
	 Opposite-Spin Energy      =      -1.9041166608155269 [Eh]
	 Correlation Energy        =      -2.5081653891136346 [Eh]
	 Total Energy              =    -556.1371335113309442 [Eh]

	 ================> DF-SCS-MP2 Energies <==================
	-----------------------------------------------------------
	 SCS Same-Spin Scale       =       0.3333333333333333 [-]
	 SCS Opposite-Spin Scale   =       1.2000000000000000 [-]
	 SCS Same-Spin Energy      =      -0.2013495760993693 [Eh]
	 SCS Opposite-Spin Energy  =      -2.2849399929786323 [Eh]
	 SCS Correlation Energy    =      -2.4862895690780014 [Eh]
	 SCS Total Energy          =    -556.1152576912953691 [Eh]
	-----------------------------------------------------------

  Dipole Moment: [D]
     X:    -3.2056      Y:     0.5135      Z:     0.3444     Total:     3.2647

*** Psi4 exiting successfully. Buy a developer a beer!
