                               Psi4 1.4a2.dev612

  ==> Input File <==

--------------------------------------------------------------------------
#psi4
#
memory 32 gb

molecule  {
0 1
  O        3.0945450    -0.5978990    -0.2227500
  N        0.8732720    -0.9469790     0.1890630
  C        0.1786250     1.7001670     0.9719610
  C        1.1438980     2.1917080    -0.1170310
  C       -0.8608580     0.7595260     0.4300750
  C        1.5465590     1.0555900    -1.0683300
  C       -0.4811190    -0.5451200     0.0537530
  C        1.9260440    -0.2179400    -0.3394640
  C       -2.2011530     1.1304640     0.2820740
  C       -1.4550012    -1.4902474    -0.3107991
  C        1.1800400    -2.2400020     0.7973640
  C       -3.1574580     0.2247240    -0.1803460
  C       -2.7731680    -1.0742070    -0.5192260
  H       -0.3080960     2.5514800     1.4609130
  H        0.7541300     1.1728590     1.7431030
  H        0.6757450     2.9910460    -0.7037420
  H        2.0370980     2.6179610     0.3539850
  H        2.4176540     1.3419220    -1.6627910
  H        0.7204100     0.8435550    -1.7555650
  H       -2.5026250     2.1373940     0.5668430
  H       -1.1292290    -2.4616270    -0.6921390
  H        1.2028300    -3.0439780     0.0536200
  H        0.4229280    -2.4619330     1.5509630
  H        2.1652810    -2.1715440     1.2577890
  H       -4.1964680     0.5304710    -0.2745970
  H       -3.5107020    -1.7878430    -0.8784520
units angstrom
no_reorient  #important for SAPT in psi4, default
symmetry c1  #important for SAPT in psi4, default
}

set PROPERTIES_ORIGIN ["COM"]
properties('MP2/aug-cc-pvtz', properties = ['dipole'])
--------------------------------------------------------------------------

    Molecular point group: c1
  Charge       = 0
  Multiplicity = 1
  Basis Set: AUG-CC-PVTZ
    Blend: AUG-CC-PVTZ
  Basis Set: (AUG-CC-PVTZ AUX)
    Blend: AUG-CC-PVTZ-JKFIT

    Orbital Energies [Eh]
    ---------------------

    Doubly Occupied:

       1A    -20.518781     2A    -15.594881     3A    -11.350244
       4A    -11.287257     5A    -11.257516     6A    -11.249575
       7A    -11.247044     8A    -11.245710     9A    -11.245484
      10A    -11.241649    11A    -11.240206    12A    -11.238362
      13A    -11.236970    14A     -1.374253    15A     -1.261813
      16A     -1.153269    17A     -1.099340    18A     -1.032093
      19A     -1.018435    20A     -0.977027    21A     -0.925617
      22A     -0.868210    23A     -0.837181    24A     -0.799042
      25A     -0.753942    26A     -0.690119    27A     -0.683795
      28A     -0.668506    29A     -0.653975    30A     -0.623010
      31A     -0.617377    32A     -0.610390    33A     -0.597324
      34A     -0.578109    35A     -0.572308    36A     -0.554969
      37A     -0.535922    38A     -0.522546    39A     -0.517562
      40A     -0.509127    41A     -0.495210    42A     -0.485622
      43A     -0.474002    44A     -0.420633    45A     -0.407278
      46A     -0.342374    47A     -0.316427

  @DF-RHF Final Energy:  -553.63313951333157

   => Energetics <=

    Nuclear Repulsion Energy =            797.0029829109708999
    One-Electron Energy =               -2333.4112745067823198
    Two-Electron Energy =                 982.7751520824799627
    Total Energy =                       -553.6331395133315709
  Basis Set: (AUG-CC-PVTZ AUX)
    Blend: AUG-CC-PVTZ-RI
    Molecular point group: c1

    Geometry (in Angstrom), charge = 0, multiplicity = 1:

       Center              X                  Y                   Z               Mass
    ------------   -----------------  -----------------  -----------------  -----------------
         O            3.088710909126    -0.582989989042    -0.223394648306    15.994914619570
         N            0.867437909126    -0.932069989042     0.188418351694    14.003074004430
         C            0.172790909126     1.715076010958     0.971316351694    12.000000000000
         C            1.138063909126     2.206617010958    -0.117675648306    12.000000000000
         C           -0.866692090874     0.774435010958     0.429430351694    12.000000000000
         C            1.540724909126     1.070499010958    -1.068974648306    12.000000000000
         C           -0.486953090874    -0.530210989042     0.053108351694    12.000000000000
         C            1.920209909126    -0.203030989042    -0.340108648306    12.000000000000
         C           -2.206987090874     1.145373010958     0.281429351694    12.000000000000
         C           -1.460835290874    -1.475338389042    -0.311443748306    12.000000000000
         C            1.174205909126    -2.225092989042     0.796719351694    12.000000000000
         C           -3.163292090874     0.239633010958    -0.180990648306    12.000000000000
         C           -2.779002090874    -1.059297989042    -0.519870648306    12.000000000000
         H           -0.313930090874     2.566389010958     1.460268351694     1.007825032230
         H            0.748295909126     1.187768010958     1.742458351694     1.007825032230
         H            0.669910909126     3.005955010958    -0.704386648306     1.007825032230
         H            2.031263909126     2.632870010958     0.353340351694     1.007825032230
         H            2.411819909126     1.356831010958    -1.663435648306     1.007825032230
         H            0.714575909126     0.858464010958    -1.756209648306     1.007825032230
         H           -2.508459090874     2.152303010958     0.566198351694     1.007825032230
         H           -1.135063090874    -2.446717989042    -0.692783648306     1.007825032230
         H            1.196995909126    -3.029068989042     0.052975351694     1.007825032230
         H            0.417093909126    -2.447023989042     1.550318351694     1.007825032230
         H            2.159446909126    -2.156634989042     1.257144351694     1.007825032230
         H           -4.202302090874     0.545380010958    -0.275241648306     1.007825032230
         H           -3.516536090874    -1.772933989042    -0.879096648306     1.007825032230

  Basis Set: AUG-CC-PVTZ
    Blend: AUG-CC-PVTZ
  Basis Set: (AUG-CC-PVTZ AUX)
    Blend: AUG-CC-PVTZ-JKFIT
	 Reference Energy          =    -553.6331395133315709 [Eh]
	 Singles Energy            =      -0.0000000000000000 [Eh]
	 Same-Spin Energy          =      -0.6038934893293633 [Eh]
	 Opposite-Spin Energy      =      -1.9035248684912556 [Eh]
	 Correlation Energy        =      -2.5074183578206188 [Eh]
	 Total Energy              =    -556.1405578711521684 [Eh]

	 ================> DF-SCS-MP2 Energies <==================
	-----------------------------------------------------------
	 SCS Same-Spin Scale       =       0.3333333333333333 [-]
	 SCS Opposite-Spin Scale   =       1.2000000000000000 [-]
	 SCS Same-Spin Energy      =      -0.2012978297764544 [Eh]
	 SCS Opposite-Spin Energy  =      -2.2842298421895064 [Eh]
	 SCS Correlation Energy    =      -2.4855276719659609 [Eh]
	 SCS Total Energy          =    -556.1186671852975678 [Eh]
	-----------------------------------------------------------

  Dipole Moment: [D]
     X:    -3.1788      Y:     0.6146      Z:     0.2223     Total:     3.2453

*** Psi4 exiting successfully. Buy a developer a beer!
