                               Psi4 1.4a2.dev612

  ==> Input File <==

--------------------------------------------------------------------------
#psi4
#
memory 32 gb

molecule  {
0 1
  O        3.0945450    -0.5978990    -0.2227500
  N        0.8732720    -0.9469790     0.1890630
  C        0.1786250     1.7001670     0.9719610
  C        1.1438980     2.1917080    -0.1170310
  C       -0.8608580     0.7595260     0.4300750
  C        1.5465590     1.0555900    -1.0683300
  C       -0.4811190    -0.5451200     0.0537530
  C        1.9260440    -0.2179400    -0.3394640
  C       -2.1628676     1.1950257     0.0966933
  C       -1.4377800    -1.4595290    -0.4043930
  C        1.1800400    -2.2400020     0.7973640
  C       -3.1574580     0.2247240    -0.1803460
  C       -2.7731680    -1.0742070    -0.5192260
  H       -0.3080960     2.5514800     1.4609130
  H        0.7541300     1.1728590     1.7431030
  H        0.6757450     2.9910460    -0.7037420
  H        2.0370980     2.6179610     0.3539850
  H        2.4176540     1.3419220    -1.6627910
  H        0.7204100     0.8435550    -1.7555650
  H       -2.5026250     2.1373940     0.5668430
  H       -1.1292290    -2.4616270    -0.6921390
  H        1.2028300    -3.0439780     0.0536200
  H        0.4229280    -2.4619330     1.5509630
  H        2.1652810    -2.1715440     1.2577890
  H       -4.1964680     0.5304710    -0.2745970
  H       -3.5107020    -1.7878430    -0.8784520
units angstrom
no_reorient  #important for SAPT in psi4, default
symmetry c1  #important for SAPT in psi4, default
}

set PROPERTIES_ORIGIN ["COM"]
properties('MP2/aug-cc-pvtz', properties = ['dipole'])
--------------------------------------------------------------------------

    Molecular point group: c1
  Charge       = 0
  Multiplicity = 1
  Basis Set: AUG-CC-PVTZ
    Blend: AUG-CC-PVTZ
  Basis Set: (AUG-CC-PVTZ AUX)
    Blend: AUG-CC-PVTZ-JKFIT

    Orbital Energies [Eh]
    ---------------------

    Doubly Occupied:

       1A    -20.518697     2A    -15.593990     3A    -11.349977
       4A    -11.285022     5A    -11.257367     6A    -11.254038
       7A    -11.248947     8A    -11.247642     9A    -11.247088
      10A    -11.244868    11A    -11.240452    12A    -11.238676
      13A    -11.236487    14A     -1.374044    15A     -1.261368
      16A     -1.151845    17A     -1.099559    18A     -1.031632
      19A     -1.016945    20A     -0.976820    21A     -0.925372
      22A     -0.866994    23A     -0.837432    24A     -0.798453
      25A     -0.753031    26A     -0.689494    27A     -0.683239
      28A     -0.668284    29A     -0.654539    30A     -0.621714
      31A     -0.616033    32A     -0.608682    33A     -0.596173
      34A     -0.578060    35A     -0.572460    36A     -0.554709
      37A     -0.534798    38A     -0.524449    39A     -0.516332
      40A     -0.504111    41A     -0.496086    42A     -0.485672
      43A     -0.472882    44A     -0.420383    45A     -0.405437
      46A     -0.342413    47A     -0.317790

  @DF-RHF Final Energy:  -553.62316808007245

   => Energetics <=

    Nuclear Repulsion Energy =            796.9677782004687288
    One-Electron Energy =               -2333.3409170606460066
    Two-Electron Energy =                 982.7499707801048316
    Total Energy =                       -553.6231680800724462
  Basis Set: (AUG-CC-PVTZ AUX)
    Blend: AUG-CC-PVTZ-RI
    Molecular point group: c1

    Geometry (in Angstrom), charge = 0, multiplicity = 1:

       Center              X                  Y                   Z               Mass
    ------------   -----------------  -----------------  -----------------  -----------------
         O            3.084906909767    -0.589519760985    -0.204275855233    15.994914619570
         N            0.863633909767    -0.938599760985     0.207537144767    14.003074004430
         C            0.168986909767     1.708546239015     0.990435144767    12.000000000000
         C            1.134259909767     2.200087239015    -0.098556855233    12.000000000000
         C           -0.870496090233     0.767905239015     0.448549144767    12.000000000000
         C            1.536920909767     1.063969239015    -1.049855855233    12.000000000000
         C           -0.490757090233    -0.536740760985     0.072227144767    12.000000000000
         C            1.916405909767    -0.209560760985    -0.320989855233    12.000000000000
         C           -2.172505690233     1.203404939015     0.115167444767    12.000000000000
         C           -1.447418090233    -1.451149760985    -0.385918855233    12.000000000000
         C            1.170401909767    -2.231622760985     0.815838144767    12.000000000000
         C           -3.167096090233     0.233103239015    -0.161871855233    12.000000000000
         C           -2.782806090233    -1.065827760985    -0.500751855233    12.000000000000
         H           -0.317734090233     2.559859239015     1.479387144767     1.007825032230
         H            0.744491909767     1.181238239015     1.761577144767     1.007825032230
         H            0.666106909767     2.999425239015    -0.685267855233     1.007825032230
         H            2.027459909767     2.626340239015     0.372459144767     1.007825032230
         H            2.408015909767     1.350301239015    -1.644316855233     1.007825032230
         H            0.710771909767     0.851934239015    -1.737090855233     1.007825032230
         H           -2.512263090233     2.145773239015     0.585317144767     1.007825032230
         H           -1.138867090233    -2.453247760985    -0.673664855233     1.007825032230
         H            1.193191909767    -3.035598760985     0.072094144767     1.007825032230
         H            0.413289909767    -2.453553760985     1.569437144767     1.007825032230
         H            2.155642909767    -2.163164760985     1.276263144767     1.007825032230
         H           -4.206106090233     0.538850239015    -0.256122855233     1.007825032230
         H           -3.520340090233    -1.779463760985    -0.859977855233     1.007825032230

  Basis Set: AUG-CC-PVTZ
    Blend: AUG-CC-PVTZ
  Basis Set: (AUG-CC-PVTZ AUX)
    Blend: AUG-CC-PVTZ-JKFIT
	 Reference Energy          =    -553.6231680800724462 [Eh]
	 Singles Energy            =      -0.0000000000000000 [Eh]
	 Same-Spin Energy          =      -0.6043601023746060 [Eh]
	 Opposite-Spin Energy      =      -1.9050335309272670 [Eh]
	 Correlation Energy        =      -2.5093936333018729 [Eh]
	 Total Energy              =    -556.1325617133743435 [Eh]

	 ================> DF-SCS-MP2 Energies <==================
	-----------------------------------------------------------
	 SCS Same-Spin Scale       =       0.3333333333333333 [-]
	 SCS Opposite-Spin Scale   =       1.2000000000000000 [-]
	 SCS Same-Spin Energy      =      -0.2014533674582020 [Eh]
	 SCS Opposite-Spin Energy  =      -2.2860402371127204 [Eh]
	 SCS Correlation Energy    =      -2.4874936045709224 [Eh]
	 SCS Total Energy          =    -556.1106616846433326 [Eh]
	-----------------------------------------------------------

  Dipole Moment: [D]
     X:    -3.1898      Y:     0.4713      Z:     0.3664     Total:     3.2452

*** Psi4 exiting successfully. Buy a developer a beer!
