                               Psi4 1.4a2.dev612

  ==> Input File <==

--------------------------------------------------------------------------
#psi4
#
memory 32 gb

molecule  {
0 1
  O        3.0945450    -0.5978990    -0.2227500
  N        0.8732720    -0.9469790     0.1890630
  C        0.1786250     1.7001670     0.9719610
  C        1.1438980     2.1917080    -0.1170310
  C       -0.8608580     0.7595260     0.4300750
  C        1.5426406     1.0300354    -1.1111273
  C       -0.4811190    -0.5451200     0.0537530
  C        1.9260440    -0.2179400    -0.3394640
  C       -2.2011530     1.1304640     0.2820740
  C       -1.4377800    -1.4595290    -0.4043930
  C        1.1800400    -2.2400020     0.7973640
  C       -3.1574580     0.2247240    -0.1803460
  C       -2.7731680    -1.0742070    -0.5192260
  H       -0.3080960     2.5514800     1.4609130
  H        0.7541300     1.1728590     1.7431030
  H        0.6757450     2.9910460    -0.7037420
  H        2.0370980     2.6179610     0.3539850
  H        2.4176540     1.3419220    -1.6627910
  H        0.7204100     0.8435550    -1.7555650
  H       -2.5026250     2.1373940     0.5668430
  H       -1.1292290    -2.4616270    -0.6921390
  H        1.2028300    -3.0439780     0.0536200
  H        0.4229280    -2.4619330     1.5509630
  H        2.1652810    -2.1715440     1.2577890
  H       -4.1964680     0.5304710    -0.2745970
  H       -3.5107020    -1.7878430    -0.8784520
units angstrom
no_reorient  #important for SAPT in psi4, default
symmetry c1  #important for SAPT in psi4, default
}

set PROPERTIES_ORIGIN ["COM"]
properties('MP2/aug-cc-pvtz', properties = ['dipole'])
--------------------------------------------------------------------------

    Molecular point group: c1
  Charge       = 0
  Multiplicity = 1
  Basis Set: AUG-CC-PVTZ
    Blend: AUG-CC-PVTZ
  Basis Set: (AUG-CC-PVTZ AUX)
    Blend: AUG-CC-PVTZ-JKFIT

    Orbital Energies [Eh]
    ---------------------

    Doubly Occupied:

       1A    -20.518024     2A    -15.593545     3A    -11.349730
       4A    -11.285592     5A    -11.257351     6A    -11.250071
       7A    -11.246185     8A    -11.245234     9A    -11.244790
      10A    -11.242488    11A    -11.242319    12A    -11.238397
      13A    -11.234872    14A     -1.373508    15A     -1.261057
      16A     -1.153451    17A     -1.095693    18A     -1.030754
      19A     -1.018939    20A     -0.977244    21A     -0.925484
      22A     -0.867617    23A     -0.837887    24A     -0.798779
      25A     -0.754524    26A     -0.692003    27A     -0.684770
      28A     -0.669286    29A     -0.654421    30A     -0.623148
      31A     -0.617192    32A     -0.608824    33A     -0.595382
      34A     -0.581189    35A     -0.571383    36A     -0.555225
      37A     -0.535324    38A     -0.525243    39A     -0.521138
      40A     -0.507463    41A     -0.495871    42A     -0.486326
      43A     -0.469751    44A     -0.420067    45A     -0.405394
      46A     -0.342361    47A     -0.318499

  @DF-RHF Final Energy:  -553.63517206441918

   => Energetics <=

    Nuclear Repulsion Energy =            796.7571309649987370
    One-Electron Energy =               -2332.9370144531799269
    Two-Electron Energy =                 982.5447114237618962
    Total Energy =                       -553.6351720644191801
  Basis Set: (AUG-CC-PVTZ AUX)
    Blend: AUG-CC-PVTZ-RI
    Molecular point group: c1

    Geometry (in Angstrom), charge = 0, multiplicity = 1:

       Center              X                  Y                   Z               Mass
    ------------   -----------------  -----------------  -----------------  -----------------
         O            3.087799236592    -0.583343876541    -0.214047434869    15.994914619570
         N            0.866526236592    -0.932423876541     0.197765565131    14.003074004430
         C            0.171879236592     1.714722123459     0.980663565131    12.000000000000
         C            1.137152236592     2.206263123459    -0.108328434869    12.000000000000
         C           -0.867603763408     0.774081123459     0.438777565131    12.000000000000
         C            1.535894836592     1.044590523459    -1.102424734869    12.000000000000
         C           -0.487864763408    -0.530564876541     0.062455565131    12.000000000000
         C            1.919298236592    -0.203384876541    -0.330761434869    12.000000000000
         C           -2.207898763408     1.145019123459     0.290776565131    12.000000000000
         C           -1.444525763408    -1.444973876541    -0.395690434869    12.000000000000
         C            1.173294236592    -2.225446876541     0.806066565131    12.000000000000
         C           -3.164203763408     0.239279123459    -0.171643434869    12.000000000000
         C           -2.779913763408    -1.059651876541    -0.510523434869    12.000000000000
         H           -0.314841763408     2.566035123459     1.469615565131     1.007825032230
         H            0.747384236592     1.187414123459     1.751805565131     1.007825032230
         H            0.668999236592     3.005601123459    -0.695039434869     1.007825032230
         H            2.030352236592     2.632516123459     0.362687565131     1.007825032230
         H            2.410908236592     1.356477123459    -1.654088434869     1.007825032230
         H            0.713664236592     0.858110123459    -1.746862434869     1.007825032230
         H           -2.509370763408     2.151949123459     0.575545565131     1.007825032230
         H           -1.135974763408    -2.447071876541    -0.683436434869     1.007825032230
         H            1.196084236592    -3.029422876541     0.062322565131     1.007825032230
         H            0.416182236592    -2.447377876541     1.559665565131     1.007825032230
         H            2.158535236592    -2.156988876541     1.266491565131     1.007825032230
         H           -4.203213763408     0.545026123459    -0.265894434869     1.007825032230
         H           -3.517447763408    -1.773287876541    -0.869749434869     1.007825032230

  Basis Set: AUG-CC-PVTZ
    Blend: AUG-CC-PVTZ
  Basis Set: (AUG-CC-PVTZ AUX)
    Blend: AUG-CC-PVTZ-JKFIT
	 Reference Energy          =    -553.6351720644191801 [Eh]
	 Singles Energy            =      -0.0000000000000000 [Eh]
	 Same-Spin Energy          =      -0.6033456532016184 [Eh]
	 Opposite-Spin Energy      =      -1.9026128986252053 [Eh]
	 Correlation Energy        =      -2.5059585518268239 [Eh]
	 Total Energy              =    -556.1411306162459596 [Eh]

	 ================> DF-SCS-MP2 Energies <==================
	-----------------------------------------------------------
	 SCS Same-Spin Scale       =       0.3333333333333333 [-]
	 SCS Opposite-Spin Scale   =       1.2000000000000000 [-]
	 SCS Same-Spin Energy      =      -0.2011152177338728 [Eh]
	 SCS Opposite-Spin Energy  =      -2.2831354783502462 [Eh]
	 SCS Correlation Energy    =      -2.4842506960841191 [Eh]
	 SCS Total Energy          =    -556.1194227605033120 [Eh]
	-----------------------------------------------------------

  Dipole Moment: [D]
     X:    -3.2284      Y:     0.5906      Z:     0.2573     Total:     3.2920

*** Psi4 exiting successfully. Buy a developer a beer!
