                               Psi4 1.4a2.dev612

  ==> Input File <==

--------------------------------------------------------------------------
#psi4
#
memory 32 gb

molecule  {
0 1
  O        3.0945450    -0.5978990    -0.2227500
  N        0.8732720    -0.9469790     0.1890630
  C        0.1786250     1.7001670     0.9719610
  C        1.1438980     2.1917080    -0.1170310
  C       -0.8608580     0.7595260     0.4300750
  C        1.5465590     1.0555900    -1.0683300
  C       -0.4811190    -0.5451200     0.0537530
  C        1.9260440    -0.2179400    -0.3394640
  C       -2.2011530     1.1304640     0.2820740
  C       -1.4463906    -1.4748882    -0.3575961
  C        1.1800400    -2.2400020     0.7973640
  C       -3.1574580     0.2247240    -0.1803460
  C       -2.7731680    -1.0742070    -0.5192260
  H       -0.3080960     2.5514800     1.4609130
  H        0.7541300     1.1728590     1.7431030
  H        0.6757450     2.9910460    -0.7037420
  H        2.0370980     2.6179610     0.3539850
  H        2.4176540     1.3419220    -1.6627910
  H        0.7204100     0.8435550    -1.7555650
  H       -2.5026250     2.1373940     0.5668430
  H       -1.1292290    -2.4616270    -0.6921390
  H        1.2028300    -3.0439780     0.0536200
  H        0.4229280    -2.4619330     1.5509630
  H        2.1652810    -2.1715440     1.2577890
  H       -4.1964680     0.5304710    -0.2745970
  H       -3.5107020    -1.7878430    -0.8784520
units angstrom
no_reorient  #important for SAPT in psi4, default
symmetry c1  #important for SAPT in psi4, default
}

set PROPERTIES_ORIGIN ["COM"]
properties('MP2/aug-cc-pvtz', properties = ['dipole'])
--------------------------------------------------------------------------

    Molecular point group: c1
  Charge       = 0
  Multiplicity = 1
  Basis Set: AUG-CC-PVTZ
    Blend: AUG-CC-PVTZ
  Basis Set: (AUG-CC-PVTZ AUX)
    Blend: AUG-CC-PVTZ-JKFIT

    Orbital Energies [Eh]
    ---------------------

    Doubly Occupied:

       1A    -20.518544     2A    -15.594321     3A    -11.349990
       4A    -11.286202     5A    -11.257479     6A    -11.249831
       7A    -11.246399     8A    -11.245336     9A    -11.244936
      10A    -11.242003    11A    -11.240179    12A    -11.238340
      13A    -11.236773    14A     -1.374005    15A     -1.261524
      16A     -1.153457    17A     -1.099361    18A     -1.032205
      19A     -1.018772    20A     -0.976929    21A     -0.925486
      22A     -0.868257    23A     -0.837416    24A     -0.799125
      25A     -0.754195    26A     -0.690242    27A     -0.684029
      28A     -0.668957    29A     -0.654038    30A     -0.623258
      31A     -0.617542    32A     -0.610399    33A     -0.597646
      34A     -0.578194    35A     -0.572352    36A     -0.554765
      37A     -0.535811    38A     -0.523051    39A     -0.517620
      40A     -0.508871    41A     -0.495944    42A     -0.485422
      43A     -0.473986    44A     -0.420607    45A     -0.406147
      46A     -0.342343    47A     -0.317539

  @DF-RHF Final Energy:  -553.63570905922370

   => Energetics <=

    Nuclear Repulsion Energy =            797.1358568034268046
    One-Electron Energy =               -2333.6834697812269042
    Two-Electron Energy =                 982.9119039185763995
    Total Energy =                       -553.6357090592237000
  Basis Set: (AUG-CC-PVTZ AUX)
    Blend: AUG-CC-PVTZ-RI
    Molecular point group: c1

    Geometry (in Angstrom), charge = 0, multiplicity = 1:

       Center              X                  Y                   Z               Mass
    ------------   -----------------  -----------------  -----------------  -----------------
         O            3.088120804221    -0.584042591560    -0.220187538557    15.994914619570
         N            0.866847804221    -0.933122591560     0.191625461443    14.003074004430
         C            0.172200804221     1.714023408440     0.974523461443    12.000000000000
         C            1.137473804221     2.205564408440    -0.114468538557    12.000000000000
         C           -0.867282195779     0.773382408440     0.432637461443    12.000000000000
         C            1.540134804221     1.069446408440    -1.065767538557    12.000000000000
         C           -0.487543195779    -0.531263591560     0.056315461443    12.000000000000
         C            1.919619804221    -0.204083591560    -0.336901538557    12.000000000000
         C           -2.207577195779     1.144320408440     0.284636461443    12.000000000000
         C           -1.452814795779    -1.461031791560    -0.355033638557    12.000000000000
         C            1.173615804221    -2.226145591560     0.799926461443    12.000000000000
         C           -3.163882195779     0.238580408440    -0.177783538557    12.000000000000
         C           -2.779592195779    -1.060350591560    -0.516663538557    12.000000000000
         H           -0.314520195779     2.565336408440     1.463475461443     1.007825032230
         H            0.747705804221     1.186715408440     1.745665461443     1.007825032230
         H            0.669320804221     3.004902408440    -0.701179538557     1.007825032230
         H            2.030673804221     2.631817408440     0.356547461443     1.007825032230
         H            2.411229804221     1.355778408440    -1.660228538557     1.007825032230
         H            0.713985804221     0.857411408440    -1.753002538557     1.007825032230
         H           -2.509049195779     2.151250408440     0.569405461443     1.007825032230
         H           -1.135653195779    -2.447770591560    -0.689576538557     1.007825032230
         H            1.196405804221    -3.030121591560     0.056182461443     1.007825032230
         H            0.416503804221    -2.448076591560     1.553525461443     1.007825032230
         H            2.158856804221    -2.157687591560     1.260351461443     1.007825032230
         H           -4.202892195779     0.544327408440    -0.272034538557     1.007825032230
         H           -3.517126195779    -1.773986591560    -0.875889538557     1.007825032230

  Basis Set: AUG-CC-PVTZ
    Blend: AUG-CC-PVTZ
  Basis Set: (AUG-CC-PVTZ AUX)
    Blend: AUG-CC-PVTZ-JKFIT
	 Reference Energy          =    -553.6357090592237000 [Eh]
	 Singles Energy            =      -0.0000000000000000 [Eh]
	 Same-Spin Energy          =      -0.6036959597804148 [Eh]
	 Opposite-Spin Energy      =      -1.9030433136404730 [Eh]
	 Correlation Energy        =      -2.5067392734208878 [Eh]
	 Total Energy              =    -556.1424483326445625 [Eh]

	 ================> DF-SCS-MP2 Energies <==================
	-----------------------------------------------------------
	 SCS Same-Spin Scale       =       0.3333333333333333 [-]
	 SCS Opposite-Spin Scale   =       1.2000000000000000 [-]
	 SCS Same-Spin Energy      =      -0.2012319865934716 [Eh]
	 SCS Opposite-Spin Energy  =      -2.2836519763685676 [Eh]
	 SCS Correlation Energy    =      -2.4848839629620394 [Eh]
	 SCS Total Energy          =    -556.1205930221857443 [Eh]
	-----------------------------------------------------------

  Dipole Moment: [D]
     X:    -3.2030      Y:     0.5935      Z:     0.2444     Total:     3.2667

*** Psi4 exiting successfully. Buy a developer a beer!
