                               Psi4 1.4a2.dev612

  ==> Input File <==

--------------------------------------------------------------------------
#psi4
#
memory 32 gb

molecule  {
0 1
  O        3.0945450    -0.5978990    -0.2227500
  N        0.8732720    -0.9469790     0.1890630
  C        0.1786250     1.7001670     0.9719610
  C        1.1438980     2.1917080    -0.1170310
  C       -0.8608580     0.7595260     0.4300750
  C        1.5308853     0.9533717    -1.2395192
  C       -0.4811190    -0.5451200     0.0537530
  C        1.9260440    -0.2179400    -0.3394640
  C       -2.2011530     1.1304640     0.2820740
  C       -1.4377800    -1.4595290    -0.4043930
  C        1.1800400    -2.2400020     0.7973640
  C       -3.1574580     0.2247240    -0.1803460
  C       -2.7731680    -1.0742070    -0.5192260
  H       -0.3080960     2.5514800     1.4609130
  H        0.7541300     1.1728590     1.7431030
  H        0.6757450     2.9910460    -0.7037420
  H        2.0370980     2.6179610     0.3539850
  H        2.4176540     1.3419220    -1.6627910
  H        0.7204100     0.8435550    -1.7555650
  H       -2.5026250     2.1373940     0.5668430
  H       -1.1292290    -2.4616270    -0.6921390
  H        1.2028300    -3.0439780     0.0536200
  H        0.4229280    -2.4619330     1.5509630
  H        2.1652810    -2.1715440     1.2577890
  H       -4.1964680     0.5304710    -0.2745970
  H       -3.5107020    -1.7878430    -0.8784520
units angstrom
no_reorient  #important for SAPT in psi4, default
symmetry c1  #important for SAPT in psi4, default
}

set PROPERTIES_ORIGIN ["COM"]
properties('MP2/aug-cc-pvtz', properties = ['dipole'])
--------------------------------------------------------------------------

    Molecular point group: c1
  Charge       = 0
  Multiplicity = 1
  Basis Set: AUG-CC-PVTZ
    Blend: AUG-CC-PVTZ
  Basis Set: (AUG-CC-PVTZ AUX)
    Blend: AUG-CC-PVTZ-JKFIT

    Orbital Energies [Eh]
    ---------------------

    Doubly Occupied:

       1A    -20.517390     2A    -15.592674     3A    -11.351475
       4A    -11.285628     5A    -11.257185     6A    -11.250138
       7A    -11.249112     8A    -11.246215     9A    -11.245289
      10A    -11.244802    11A    -11.242291    12A    -11.239000
      13A    -11.233264    14A     -1.372818    15A     -1.260495
      16A     -1.153258    17A     -1.088121    18A     -1.026949
      19A     -1.018879    20A     -0.978369    21A     -0.926857
      22A     -0.866017    23A     -0.838807    24A     -0.798429
      25A     -0.754857    26A     -0.701251    27A     -0.686658
      28A     -0.669526    29A     -0.655794    30A     -0.622730
      31A     -0.618024    32A     -0.606284    33A     -0.594209
      34A     -0.588072    35A     -0.569533    36A     -0.557645
      37A     -0.537776    38A     -0.529347    39A     -0.524642
      40A     -0.505334    41A     -0.495426    42A     -0.488266
      43A     -0.448164    44A     -0.414250    45A     -0.405968
      46A     -0.342468    47A     -0.318065

  @DF-RHF Final Energy:  -553.60511798723951

   => Energetics <=

    Nuclear Repulsion Energy =            795.3288709687241180
    One-Electron Energy =               -2330.0324723268972775
    Two-Electron Energy =                 981.0984833709337636
    Total Energy =                       -553.6051179872395096
  Basis Set: (AUG-CC-PVTZ AUX)
    Blend: AUG-CC-PVTZ-RI
    Molecular point group: c1

    Geometry (in Angstrom), charge = 0, multiplicity = 1:

       Center              X                  Y                   Z               Mass
    ------------   -----------------  -----------------  -----------------  -----------------
         O            3.088604855269    -0.578089930782    -0.205248432492    15.994914619570
         N            0.867331855269    -0.927169930782     0.206564567508    14.003074004430
         C            0.172684855269     1.719976069218     0.989462567508    12.000000000000
         C            1.137957855269     2.211517069218    -0.099529432492    12.000000000000
         C           -0.866798144731     0.779335069218     0.447576567508    12.000000000000
         C            1.524945155269     0.973180769218    -1.222017632492    12.000000000000
         C           -0.487059144731    -0.525310930782     0.071254567508    12.000000000000
         C            1.920103855269    -0.198130930782    -0.321962432492    12.000000000000
         C           -2.207093144731     1.150273069218     0.299575567508    12.000000000000
         C           -1.443720144731    -1.439719930782    -0.386891432492    12.000000000000
         C            1.174099855269    -2.220192930782     0.814865567508    12.000000000000
         C           -3.163398144731     0.244533069218    -0.162844432492    12.000000000000
         C           -2.779108144731    -1.054397930782    -0.501724432492    12.000000000000
         H           -0.314036144731     2.571289069218     1.478414567508     1.007825032230
         H            0.748189855269     1.192668069218     1.760604567508     1.007825032230
         H            0.669804855269     3.010855069218    -0.686240432492     1.007825032230
         H            2.031157855269     2.637770069218     0.371486567508     1.007825032230
         H            2.411713855269     1.361731069218    -1.645289432492     1.007825032230
         H            0.714469855269     0.863364069218    -1.738063432492     1.007825032230
         H           -2.508565144731     2.157203069218     0.584344567508     1.007825032230
         H           -1.135169144731    -2.441817930782    -0.674637432492     1.007825032230
         H            1.196889855269    -3.024168930782     0.071121567508     1.007825032230
         H            0.416987855269    -2.442123930782     1.568464567508     1.007825032230
         H            2.159340855269    -2.151734930782     1.275290567508     1.007825032230
         H           -4.202408144731     0.550280069218    -0.257095432492     1.007825032230
         H           -3.516642144731    -1.768033930782    -0.860950432492     1.007825032230

  Basis Set: AUG-CC-PVTZ
    Blend: AUG-CC-PVTZ
  Basis Set: (AUG-CC-PVTZ AUX)
    Blend: AUG-CC-PVTZ-JKFIT
	 Reference Energy          =    -553.6051179872395096 [Eh]
	 Singles Energy            =      -0.0000000000000000 [Eh]
	 Same-Spin Energy          =      -0.6035510081799362 [Eh]
	 Opposite-Spin Energy      =      -1.9039383954120321 [Eh]
	 Correlation Energy        =      -2.5074894035919684 [Eh]
	 Total Energy              =    -556.1126073908314993 [Eh]

	 ================> DF-SCS-MP2 Energies <==================
	-----------------------------------------------------------
	 SCS Same-Spin Scale       =       0.3333333333333333 [-]
	 SCS Opposite-Spin Scale   =       1.2000000000000000 [-]
	 SCS Same-Spin Energy      =      -0.2011836693933121 [Eh]
	 SCS Opposite-Spin Energy  =      -2.2847260744944387 [Eh]
	 SCS Correlation Energy    =      -2.4859097438877509 [Eh]
	 SCS Total Energy          =    -556.0910277311272694 [Eh]
	-----------------------------------------------------------

  Dipole Moment: [D]
     X:    -3.2303      Y:     0.6276      Z:     0.2574     Total:     3.3007

*** Psi4 exiting successfully. Buy a developer a beer!
