                               Psi4 1.4a2.dev612

  ==> Input File <==

--------------------------------------------------------------------------
#psi4
#
memory 32 gb

molecule  {
0 1
  O        3.0945450    -0.5978990    -0.2227500
  N        0.8732720    -0.9469790     0.1890630
  C        0.1786250     1.7001670     0.9719610
  C        1.1438980     2.1917080    -0.1170310
  C       -0.8608580     0.7595260     0.4300750
  C        1.5465590     1.0555900    -1.0683300
  C       -0.4811190    -0.5451200     0.0537530
  C        1.9260440    -0.2179400    -0.3394640
  C       -2.1437249     1.2273065     0.0040029
  C       -1.4377800    -1.4595290    -0.4043930
  C        1.1800400    -2.2400020     0.7973640
  C       -3.1574580     0.2247240    -0.1803460
  C       -2.7731680    -1.0742070    -0.5192260
  H       -0.3080960     2.5514800     1.4609130
  H        0.7541300     1.1728590     1.7431030
  H        0.6757450     2.9910460    -0.7037420
  H        2.0370980     2.6179610     0.3539850
  H        2.4176540     1.3419220    -1.6627910
  H        0.7204100     0.8435550    -1.7555650
  H       -2.5026250     2.1373940     0.5668430
  H       -1.1292290    -2.4616270    -0.6921390
  H        1.2028300    -3.0439780     0.0536200
  H        0.4229280    -2.4619330     1.5509630
  H        2.1652810    -2.1715440     1.2577890
  H       -4.1964680     0.5304710    -0.2745970
  H       -3.5107020    -1.7878430    -0.8784520
units angstrom
no_reorient  #important for SAPT in psi4, default
symmetry c1  #important for SAPT in psi4, default
}

set PROPERTIES_ORIGIN ["COM"]
properties('MP2/aug-cc-pvtz', properties = ['dipole'])
--------------------------------------------------------------------------

    Molecular point group: c1
  Charge       = 0
  Multiplicity = 1
  Basis Set: AUG-CC-PVTZ
    Blend: AUG-CC-PVTZ
  Basis Set: (AUG-CC-PVTZ AUX)
    Blend: AUG-CC-PVTZ-JKFIT

    Orbital Energies [Eh]
    ---------------------

    Doubly Occupied:

       1A    -20.518931     2A    -15.594156     3A    -11.350135
       4A    -11.284599     5A    -11.258389     6A    -11.257527
       7A    -11.252934     8A    -11.251588     9A    -11.250350
      10A    -11.244702    11A    -11.240781    12A    -11.238998
      13A    -11.236507    14A     -1.374243    15A     -1.261543
      16A     -1.150132    17A     -1.099868    18A     -1.031103
      19A     -1.014999    20A     -0.976793    21A     -0.925321
      22A     -0.866063    23A     -0.837021    24A     -0.797567
      25A     -0.751702    26A     -0.688926    27A     -0.683106
      28A     -0.667053    29A     -0.655017    30A     -0.620549
      31A     -0.614478    32A     -0.606757    33A     -0.594686
      34A     -0.577085    35A     -0.572761    36A     -0.554669
      37A     -0.534243    38A     -0.524499    39A     -0.515257
      40A     -0.501344    41A     -0.494660    42A     -0.484910
      43A     -0.471945    44A     -0.420240    45A     -0.405619
      46A     -0.342727    47A     -0.316924

  @DF-RHF Final Energy:  -553.60660986881373

   => Energetics <=

    Nuclear Repulsion Energy =            796.5227842855271092
    One-Electron Energy =               -2332.4319709861483716
    Two-Electron Energy =                 982.3025768318076416
    Total Energy =                       -553.6066098688137345
  Basis Set: (AUG-CC-PVTZ AUX)
    Blend: AUG-CC-PVTZ-RI
    Molecular point group: c1

    Geometry (in Angstrom), charge = 0, multiplicity = 1:

       Center              X                  Y                   Z               Mass
    ------------   -----------------  -----------------  -----------------  -----------------
         O            3.083595014991    -0.591732041011    -0.197923561592    15.994914619570
         N            0.862322014991    -0.940812041011     0.213889438408    14.003074004430
         C            0.167675014991     1.706333958989     0.996787438408    12.000000000000
         C            1.132948014991     2.197874958989    -0.092204561592    12.000000000000
         C           -0.871807985009     0.765692958989     0.454901438408    12.000000000000
         C            1.535609014991     1.061756958989    -1.043503561592    12.000000000000
         C           -0.492068985009    -0.538953041011     0.078579438408    12.000000000000
         C            1.915094014991    -0.211773041011    -0.314637561592    12.000000000000
         C           -2.154674885009     1.233473458989     0.028829338408    12.000000000000
         C           -1.448729985009    -1.453362041011    -0.379566561592    12.000000000000
         C            1.169090014991    -2.233835041011     0.822190438408    12.000000000000
         C           -3.168407985009     0.230890958989    -0.155519561592    12.000000000000
         C           -2.784117985009    -1.068040041011    -0.494399561592    12.000000000000
         H           -0.319045985009     2.557646958989     1.485739438408     1.007825032230
         H            0.743180014991     1.179025958989     1.767929438408     1.007825032230
         H            0.664795014991     2.997212958989    -0.678915561592     1.007825032230
         H            2.026148014991     2.624127958989     0.378811438408     1.007825032230
         H            2.406704014991     1.348088958989    -1.637964561592     1.007825032230
         H            0.709460014991     0.849721958989    -1.730738561592     1.007825032230
         H           -2.513574985009     2.143560958989     0.591669438408     1.007825032230
         H           -1.140178985009    -2.455460041011    -0.667312561592     1.007825032230
         H            1.191880014991    -3.037811041011     0.078446438408     1.007825032230
         H            0.411978014991    -2.455766041011     1.575789438408     1.007825032230
         H            2.154331014991    -2.165377041011     1.282615438408     1.007825032230
         H           -4.207417985009     0.536637958989    -0.249770561592     1.007825032230
         H           -3.521651985009    -1.781676041011    -0.853625561592     1.007825032230

  Basis Set: AUG-CC-PVTZ
    Blend: AUG-CC-PVTZ
  Basis Set: (AUG-CC-PVTZ AUX)
    Blend: AUG-CC-PVTZ-JKFIT
	 Reference Energy          =    -553.6066098688137345 [Eh]
	 Singles Energy            =      -0.0000000000000000 [Eh]
	 Same-Spin Energy          =      -0.6051856877638133 [Eh]
	 Opposite-Spin Energy      =      -1.9075495029243550 [Eh]
	 Correlation Energy        =      -2.5127351906881685 [Eh]
	 Total Energy              =    -556.1193450595019385 [Eh]

	 ================> DF-SCS-MP2 Energies <==================
	-----------------------------------------------------------
	 SCS Same-Spin Scale       =       0.3333333333333333 [-]
	 SCS Opposite-Spin Scale   =       1.2000000000000000 [-]
	 SCS Same-Spin Energy      =      -0.2017285625879378 [Eh]
	 SCS Opposite-Spin Energy  =      -2.2890594035092260 [Eh]
	 SCS Correlation Energy    =      -2.4907879660971637 [Eh]
	 SCS Total Energy          =    -556.0973978349109075 [Eh]
	-----------------------------------------------------------

  Dipole Moment: [D]
     X:    -3.1450      Y:     0.3598      Z:     0.4058     Total:     3.1915

*** Psi4 exiting successfully. Buy a developer a beer!
