                               Psi4 1.4a2.dev612

  ==> Input File <==

--------------------------------------------------------------------------
#psi4
#
memory 32 gb

molecule  {
0 1
  O        3.0945450    -0.5978990    -0.2227500
  N        0.8732720    -0.9469790     0.1890630
  C        0.1786250     1.7001670     0.9719610
  C        1.1438980     2.1917080    -0.1170310
  C       -0.8608580     0.7595260     0.4300750
  C        1.5230484     0.9022625    -1.3251138
  C       -0.4811190    -0.5451200     0.0537530
  C        1.9260440    -0.2179400    -0.3394640
  C       -2.2011530     1.1304640     0.2820740
  C       -1.4377800    -1.4595290    -0.4043930
  C        1.1800400    -2.2400020     0.7973640
  C       -3.1574580     0.2247240    -0.1803460
  C       -2.7731680    -1.0742070    -0.5192260
  H       -0.3080960     2.5514800     1.4609130
  H        0.7541300     1.1728590     1.7431030
  H        0.6757450     2.9910460    -0.7037420
  H        2.0370980     2.6179610     0.3539850
  H        2.4176540     1.3419220    -1.6627910
  H        0.7204100     0.8435550    -1.7555650
  H       -2.5026250     2.1373940     0.5668430
  H       -1.1292290    -2.4616270    -0.6921390
  H        1.2028300    -3.0439780     0.0536200
  H        0.4229280    -2.4619330     1.5509630
  H        2.1652810    -2.1715440     1.2577890
  H       -4.1964680     0.5304710    -0.2745970
  H       -3.5107020    -1.7878430    -0.8784520
units angstrom
no_reorient  #important for SAPT in psi4, default
symmetry c1  #important for SAPT in psi4, default
}

set PROPERTIES_ORIGIN ["COM"]
properties('MP2/aug-cc-pvtz', properties = ['dipole'])
--------------------------------------------------------------------------

    Molecular point group: c1
  Charge       = 0
  Multiplicity = 1
  Basis Set: AUG-CC-PVTZ
    Blend: AUG-CC-PVTZ
  Basis Set: (AUG-CC-PVTZ AUX)
    Blend: AUG-CC-PVTZ-JKFIT

    Orbital Energies [Eh]
    ---------------------

    Doubly Occupied:

       1A    -20.517225     2A    -15.592075     3A    -11.353969
       4A    -11.285643     5A    -11.257108     6A    -11.253404
       7A    -11.250219     8A    -11.246200     9A    -11.245329
      10A    -11.244758    11A    -11.242237    12A    -11.239817
      13A    -11.235321    14A     -1.372477    15A     -1.260135
      16A     -1.153185    17A     -1.085058    18A     -1.025002
      19A     -1.018791    20A     -0.979152    21A     -0.928310
      22A     -0.865333    23A     -0.839477    24A     -0.798805
      25A     -0.755115    26A     -0.710642    27A     -0.687163
      28A     -0.669695    29A     -0.656103    30A     -0.622811
      31A     -0.619850    32A     -0.606006    33A     -0.599719
      34A     -0.585078    35A     -0.568729    36A     -0.558871
      37A     -0.539878    38A     -0.527914    39A     -0.526253
      40A     -0.504645    41A     -0.495577    42A     -0.488950
      43A     -0.436031    44A     -0.407702    45A     -0.402197
      46A     -0.342537    47A     -0.317646

  @DF-RHF Final Energy:  -553.56697661379167

   => Energetics <=

    Nuclear Repulsion Energy =            794.3014364016598847
    One-Electron Energy =               -2327.9005427653614788
    Two-Electron Energy =                 980.0321297499099273
    Total Energy =                       -553.5669766137916668
  Basis Set: (AUG-CC-PVTZ AUX)
    Blend: AUG-CC-PVTZ-RI
    Molecular point group: c1

    Geometry (in Angstrom), charge = 0, multiplicity = 1:

       Center              X                  Y                   Z               Mass
    ------------   -----------------  -----------------  -----------------  -----------------
         O            3.089141936671    -0.574587295708    -0.199382430908    15.994914619570
         N            0.867868936671    -0.923667295708     0.212430569092    14.003074004430
         C            0.173221936671     1.723478704292     0.995328569092    12.000000000000
         C            1.138494936671     2.215019704292    -0.093663430908    12.000000000000
         C           -0.866261063329     0.782837704292     0.453442569092    12.000000000000
         C            1.517645336671     0.925574204292    -1.301746230908    12.000000000000
         C           -0.486522063329    -0.521808295708     0.077120569092    12.000000000000
         C            1.920640936671    -0.194628295708    -0.316096430908    12.000000000000
         C           -2.206556063329     1.153775704292     0.305441569092    12.000000000000
         C           -1.443183063329    -1.436217295708    -0.381025430908    12.000000000000
         C            1.174636936671    -2.216690295708     0.820731569092    12.000000000000
         C           -3.162861063329     0.248035704292    -0.156978430908    12.000000000000
         C           -2.778571063329    -1.050895295708    -0.495858430908    12.000000000000
         H           -0.313499063329     2.574791704292     1.484280569092     1.007825032230
         H            0.748726936671     1.196170704292     1.766470569092     1.007825032230
         H            0.670341936671     3.014357704292    -0.680374430908     1.007825032230
         H            2.031694936671     2.641272704292     0.377352569092     1.007825032230
         H            2.412250936671     1.365233704292    -1.639423430908     1.007825032230
         H            0.715006936671     0.866866704292    -1.732197430908     1.007825032230
         H           -2.508028063329     2.160705704292     0.590210569092     1.007825032230
         H           -1.134632063329    -2.438315295708    -0.668771430908     1.007825032230
         H            1.197426936671    -3.020666295708     0.076987569092     1.007825032230
         H            0.417524936671    -2.438621295708     1.574330569092     1.007825032230
         H            2.159877936671    -2.148232295708     1.281156569092     1.007825032230
         H           -4.201871063329     0.553782704292    -0.251229430908     1.007825032230
         H           -3.516105063329    -1.764531295708    -0.855084430908     1.007825032230

  Basis Set: AUG-CC-PVTZ
    Blend: AUG-CC-PVTZ
  Basis Set: (AUG-CC-PVTZ AUX)
    Blend: AUG-CC-PVTZ-JKFIT
	 Reference Energy          =    -553.5669766137916668 [Eh]
	 Singles Energy            =      -0.0000000000000000 [Eh]
	 Same-Spin Energy          =      -0.6043908848550720 [Eh]
	 Opposite-Spin Energy      =      -1.9063723094526195 [Eh]
	 Correlation Energy        =      -2.5107631943076916 [Eh]
	 Total Energy              =    -556.0777398080994089 [Eh]

	 ================> DF-SCS-MP2 Energies <==================
	-----------------------------------------------------------
	 SCS Same-Spin Scale       =       0.3333333333333333 [-]
	 SCS Opposite-Spin Scale   =       1.2000000000000000 [-]
	 SCS Same-Spin Energy      =      -0.2014636282850240 [Eh]
	 SCS Opposite-Spin Energy  =      -2.2876467713431432 [Eh]
	 SCS Correlation Energy    =      -2.4891103996281672 [Eh]
	 SCS Total Energy          =    -556.0560870134198694 [Eh]
	-----------------------------------------------------------

  Dipole Moment: [D]
     X:    -3.2298      Y:     0.6685      Z:     0.2888     Total:     3.3108

*** Psi4 exiting successfully. Buy a developer a beer!
