                               Psi4 1.4a2.dev612

  ==> Input File <==

--------------------------------------------------------------------------
#psi4
#
memory 32 gb

molecule  {
0 1
  O        3.0945450    -0.5978990    -0.2227500
  N        0.8732720    -0.9469790     0.1890630
  C        0.1786250     1.7001670     0.9719610
  C        1.1438980     2.1917080    -0.1170310
  C       -0.8608580     0.7595260     0.4300750
  C        1.5387221     1.0044808    -1.1539246
  C       -0.4811190    -0.5451200     0.0537530
  C        1.9260440    -0.2179400    -0.3394640
  C       -2.2011530     1.1304640     0.2820740
  C       -1.4377800    -1.4595290    -0.4043930
  C        1.1800400    -2.2400020     0.7973640
  C       -3.1574580     0.2247240    -0.1803460
  C       -2.7731680    -1.0742070    -0.5192260
  H       -0.3080960     2.5514800     1.4609130
  H        0.7541300     1.1728590     1.7431030
  H        0.6757450     2.9910460    -0.7037420
  H        2.0370980     2.6179610     0.3539850
  H        2.4176540     1.3419220    -1.6627910
  H        0.7204100     0.8435550    -1.7555650
  H       -2.5026250     2.1373940     0.5668430
  H       -1.1292290    -2.4616270    -0.6921390
  H        1.2028300    -3.0439780     0.0536200
  H        0.4229280    -2.4619330     1.5509630
  H        2.1652810    -2.1715440     1.2577890
  H       -4.1964680     0.5304710    -0.2745970
  H       -3.5107020    -1.7878430    -0.8784520
units angstrom
no_reorient  #important for SAPT in psi4, default
symmetry c1  #important for SAPT in psi4, default
}

set PROPERTIES_ORIGIN ["COM"]
properties('MP2/aug-cc-pvtz', properties = ['dipole'])
--------------------------------------------------------------------------

    Molecular point group: c1
  Charge       = 0
  Multiplicity = 1
  Basis Set: AUG-CC-PVTZ
    Blend: AUG-CC-PVTZ
  Basis Set: (AUG-CC-PVTZ AUX)
    Blend: AUG-CC-PVTZ-JKFIT

    Orbital Energies [Eh]
    ---------------------

    Doubly Occupied:

       1A    -20.517752     2A    -15.593256     3A    -11.350005
       4A    -11.285606     5A    -11.257285     6A    -11.250088
       7A    -11.246203     8A    -11.245254     9A    -11.244805
      10A    -11.244756    11A    -11.242319    12A    -11.238521
      13A    -11.233711    14A     -1.373246    15A     -1.260863
      16A     -1.153371    17A     -1.092676    18A     -1.029367
      19A     -1.018928    20A     -0.977631    21A     -0.925807
      22A     -0.867031    23A     -0.838185    24A     -0.798547
      25A     -0.754645    26A     -0.694331    27A     -0.685474
      28A     -0.669359    29A     -0.654900    30A     -0.622974
      31A     -0.617153    32A     -0.607711    33A     -0.593143
      34A     -0.584907    35A     -0.570603    36A     -0.556045
      37A     -0.535444    38A     -0.527944    39A     -0.522703
      40A     -0.506567    41A     -0.495556    42A     -0.487209
      43A     -0.463279    44A     -0.418967    45A     -0.405702
      46A     -0.342400    47A     -0.318377

  @DF-RHF Final Energy:  -553.62919055042858

   => Energetics <=

    Nuclear Repulsion Energy =            796.2940063454115034
    One-Electron Energy =               -2332.0051777473795482
    Two-Electron Energy =                 982.0819808515393561
    Total Energy =                       -553.6291905504285751
  Basis Set: (AUG-CC-PVTZ AUX)
    Blend: AUG-CC-PVTZ-RI
    Molecular point group: c1

    Geometry (in Angstrom), charge = 0, multiplicity = 1:

       Center              X                  Y                   Z               Mass
    ------------   -----------------  -----------------  -----------------  -----------------
         O            3.088067780720    -0.581592559004    -0.211114434077    15.994914619570
         N            0.866794780720    -0.930672559004     0.200698565923    14.003074004430
         C            0.172147780720     1.716473440996     0.983596565923    12.000000000000
         C            1.137420780720     2.208014440996    -0.105395434077    12.000000000000
         C           -0.867335219280     0.775832440996     0.441710565923    12.000000000000
         C            1.532244880720     1.020787240996    -1.142289034077    12.000000000000
         C           -0.487596219280    -0.528813559004     0.065388565923    12.000000000000
         C            1.919566780720    -0.201633559004    -0.327828434077    12.000000000000
         C           -2.207630219280     1.146770440996     0.293709565923    12.000000000000
         C           -1.444257219280    -1.443222559004    -0.392757434077    12.000000000000
         C            1.173562780720    -2.223695559004     0.808999565923    12.000000000000
         C           -3.163935219280     0.241030440996    -0.168710434077    12.000000000000
         C           -2.779645219280    -1.057900559004    -0.507590434077    12.000000000000
         H           -0.314573219280     2.567786440996     1.472548565923     1.007825032230
         H            0.747652780720     1.189165440996     1.754738565923     1.007825032230
         H            0.669267780720     3.007352440996    -0.692106434077     1.007825032230
         H            2.030620780720     2.634267440996     0.365620565923     1.007825032230
         H            2.411176780720     1.358228440996    -1.651155434077     1.007825032230
         H            0.713932780720     0.859861440996    -1.743929434077     1.007825032230
         H           -2.509102219280     2.153700440996     0.578478565923     1.007825032230
         H           -1.135706219280    -2.445320559004    -0.680503434077     1.007825032230
         H            1.196352780720    -3.027671559004     0.065255565923     1.007825032230
         H            0.416450780720    -2.445626559004     1.562598565923     1.007825032230
         H            2.158803780720    -2.155237559004     1.269424565923     1.007825032230
         H           -4.202945219280     0.546777440996    -0.262961434077     1.007825032230
         H           -3.517179219280    -1.771536559004    -0.866816434077     1.007825032230

  Basis Set: AUG-CC-PVTZ
    Blend: AUG-CC-PVTZ
  Basis Set: (AUG-CC-PVTZ AUX)
    Blend: AUG-CC-PVTZ-JKFIT
	 Reference Energy          =    -553.6291905504285751 [Eh]
	 Singles Energy            =      -0.0000000000000000 [Eh]
	 Same-Spin Energy          =      -0.6032654346008930 [Eh]
	 Opposite-Spin Energy      =      -1.9027415003999790 [Eh]
	 Correlation Energy        =      -2.5060069350008720 [Eh]
	 Total Energy              =    -556.1351974854294440 [Eh]

	 ================> DF-SCS-MP2 Energies <==================
	-----------------------------------------------------------
	 SCS Same-Spin Scale       =       0.3333333333333333 [-]
	 SCS Opposite-Spin Scale   =       1.2000000000000000 [-]
	 SCS Same-Spin Energy      =      -0.2010884782002977 [Eh]
	 SCS Opposite-Spin Energy  =      -2.2832898004799747 [Eh]
	 SCS Correlation Energy    =      -2.4843782786802722 [Eh]
	 SCS Total Energy          =    -556.1135688291088854 [Eh]
	-----------------------------------------------------------

  Dipole Moment: [D]
     X:    -3.2298      Y:     0.6004      Z:     0.2516     Total:     3.2948

*** Psi4 exiting successfully. Buy a developer a beer!
