                               Psi4 1.4a2.dev612

  ==> Input File <==

--------------------------------------------------------------------------
#psi4
#
memory 32 gb

molecule  {
0 1
  O        3.0945450    -0.5978990    -0.2227500
  N        0.8732720    -0.9469790     0.1890630
  C        0.1786250     1.7001670     0.9719610
  C        1.1438980     2.1917080    -0.1170310
  C       -0.8608580     0.7595260     0.4300750
  C        1.5465590     1.0555900    -1.0683300
  C       -0.4811190    -0.5451200     0.0537530
  C        1.9260440    -0.2179400    -0.3394640
  C       -2.2011530     1.1304640     0.2820740
  C       -1.4636118    -1.5056066    -0.2640022
  C        1.1800400    -2.2400020     0.7973640
  C       -3.1574580     0.2247240    -0.1803460
  C       -2.7731680    -1.0742070    -0.5192260
  H       -0.3080960     2.5514800     1.4609130
  H        0.7541300     1.1728590     1.7431030
  H        0.6757450     2.9910460    -0.7037420
  H        2.0370980     2.6179610     0.3539850
  H        2.4176540     1.3419220    -1.6627910
  H        0.7204100     0.8435550    -1.7555650
  H       -2.5026250     2.1373940     0.5668430
  H       -1.1292290    -2.4616270    -0.6921390
  H        1.2028300    -3.0439780     0.0536200
  H        0.4229280    -2.4619330     1.5509630
  H        2.1652810    -2.1715440     1.2577890
  H       -4.1964680     0.5304710    -0.2745970
  H       -3.5107020    -1.7878430    -0.8784520
units angstrom
no_reorient  #important for SAPT in psi4, default
symmetry c1  #important for SAPT in psi4, default
}

set PROPERTIES_ORIGIN ["COM"]
properties('MP2/aug-cc-pvtz', properties = ['dipole'])
--------------------------------------------------------------------------

    Molecular point group: c1
  Charge       = 0
  Multiplicity = 1
  Basis Set: AUG-CC-PVTZ
    Blend: AUG-CC-PVTZ
  Basis Set: (AUG-CC-PVTZ AUX)
    Blend: AUG-CC-PVTZ-JKFIT

    Orbital Energies [Eh]
    ---------------------

    Doubly Occupied:

       1A    -20.519077     2A    -15.595514     3A    -11.350551
       4A    -11.288728     5A    -11.257537     6A    -11.249309
       7A    -11.248090     8A    -11.246412     9A    -11.246307
      10A    -11.241245    11A    -11.240259    12A    -11.238409
      13A    -11.237203    14A     -1.374554    15A     -1.262129
      16A     -1.153003    17A     -1.099272    18A     -1.031931
      19A     -1.017920    20A     -0.977124    21A     -0.925727
      22A     -0.868082    23A     -0.836892    24A     -0.798879
      25A     -0.753639    26A     -0.689936    27A     -0.683455
      28A     -0.667909    29A     -0.653846    30A     -0.622672
      31A     -0.617074    32A     -0.610224    33A     -0.596829
      34A     -0.577929    35A     -0.572216    36A     -0.555122
      37A     -0.536026    38A     -0.522014    39A     -0.517446
      40A     -0.509242    41A     -0.494277    42A     -0.485832
      43A     -0.473943    44A     -0.420676    45A     -0.408356
      46A     -0.342417    47A     -0.315280

  @DF-RHF Final Energy:  -553.62901682988820

   => Energetics <=

    Nuclear Repulsion Energy =            796.8119161643189727
    One-Electron Energy =               -2333.0208362306539129
    Two-Electron Energy =                 982.5799032364467394
    Total Energy =                       -553.6290168298882008
  Basis Set: (AUG-CC-PVTZ AUX)
    Blend: AUG-CC-PVTZ-RI
    Molecular point group: c1

    Geometry (in Angstrom), charge = 0, multiplicity = 1:

       Center              X                  Y                   Z               Mass
    ------------   -----------------  -----------------  -----------------  -----------------
         O            3.089301014030    -0.581937386523    -0.226601751202    15.994914619570
         N            0.868028014030    -0.931017386523     0.185211248798    14.003074004430
         C            0.173381014030     1.716128613477     0.968109248798    12.000000000000
         C            1.138654014030     2.207669613477    -0.120882751202    12.000000000000
         C           -0.866101985970     0.775487613477     0.426223248798    12.000000000000
         C            1.541315014030     1.071551613477    -1.072181751202    12.000000000000
         C           -0.486362985970    -0.529158386523     0.049901248798    12.000000000000
         C            1.920800014030    -0.201978386523    -0.343315751202    12.000000000000
         C           -2.206396985970     1.146425613477     0.278222248798    12.000000000000
         C           -1.468855785970    -1.489644986523    -0.267853951202    12.000000000000
         C            1.174796014030    -2.224040386523     0.793512248798    12.000000000000
         C           -3.162701985970     0.240685613477    -0.184197751202    12.000000000000
         C           -2.778411985970    -1.058245386523    -0.523077751202    12.000000000000
         H           -0.313339985970     2.567441613477     1.457061248798     1.007825032230
         H            0.748886014030     1.188820613477     1.739251248798     1.007825032230
         H            0.670501014030     3.007007613477    -0.707593751202     1.007825032230
         H            2.031854014030     2.633922613477     0.350133248798     1.007825032230
         H            2.412410014030     1.357883613477    -1.666642751202     1.007825032230
         H            0.715166014030     0.859516613477    -1.759416751202     1.007825032230
         H           -2.507868985970     2.153355613477     0.562991248798     1.007825032230
         H           -1.134472985970    -2.445665386523    -0.695990751202     1.007825032230
         H            1.197586014030    -3.028016386523     0.049768248798     1.007825032230
         H            0.417684014030    -2.445971386523     1.547111248798     1.007825032230
         H            2.160037014030    -2.155582386523     1.253937248798     1.007825032230
         H           -4.201711985970     0.546432613477    -0.278448751202     1.007825032230
         H           -3.515945985970    -1.771881386523    -0.882303751202     1.007825032230

  Basis Set: AUG-CC-PVTZ
    Blend: AUG-CC-PVTZ
  Basis Set: (AUG-CC-PVTZ AUX)
    Blend: AUG-CC-PVTZ-JKFIT
	 Reference Energy          =    -553.6290168298882008 [Eh]
	 Singles Energy            =      -0.0000000000000000 [Eh]
	 Same-Spin Energy          =      -0.6041707833215009 [Eh]
	 Opposite-Spin Energy      =      -1.9042410804612875 [Eh]
	 Correlation Energy        =      -2.5084118637827881 [Eh]
	 Total Energy              =    -556.1374286936710405 [Eh]

	 ================> DF-SCS-MP2 Energies <==================
	-----------------------------------------------------------
	 SCS Same-Spin Scale       =       0.3333333333333333 [-]
	 SCS Opposite-Spin Scale   =       1.2000000000000000 [-]
	 SCS Same-Spin Energy      =      -0.2013902611071670 [Eh]
	 SCS Opposite-Spin Energy  =      -2.2850892965535450 [Eh]
	 SCS Correlation Energy    =      -2.4864795576607119 [Eh]
	 SCS Total Energy          =    -556.1154963875488875 [Eh]
	-----------------------------------------------------------

  Dipole Moment: [D]
     X:    -3.1533      Y:     0.6464      Z:     0.2021     Total:     3.2253

*** Psi4 exiting successfully. Buy a developer a beer!
