                               Psi4 1.3.2 release

  ==> Input File <==

--------------------------------------------------------------------------
#psi4
#
memory 32 gb

molecule  {
1 1
  C       -0.6878560     0.9739330     0.0000000
  C        0.6831640     0.9771070     0.0000100
  N        1.0743100    -0.3422210    -0.0000140
  C        0.0027860    -1.1465230     0.0000170
  N       -1.0726430    -0.3472790    -0.0000090
  H       -2.0345360    -0.6815610    -0.0000170
  H        2.0378550    -0.6719290    -0.0000370
  H       -1.3988231     1.7865143    -0.1000060
  H        1.3901120     1.7931810     0.0000240
  H        0.0051580    -2.2268060     0.0000310
units angstrom
no_reorient  #important for SAPT in psi4, default
symmetry c1  #important for SAPT in psi4, default
}

set PROPERTIES_ORIGIN ["COM"]
properties('MP2/aug-cc-pvtz', properties = ['dipole'])
--------------------------------------------------------------------------

    Molecular point group: c1
  Charge       = 1
  Multiplicity = 1
  Basis Set: AUG-CC-PVTZ
    Blend: AUG-CC-PVTZ
  Basis Set: (AUG-CC-PVTZ AUX)
    Blend: AUG-CC-PVTZ-JKFIT

    Orbital Energies [Eh]
    ---------------------

    Doubly Occupied:

       1A    -15.852568     2A    -15.852447     3A    -11.554884
       4A    -11.477834     5A    -11.476408     6A     -1.593488
       7A     -1.431777     8A     -1.246025     9A     -1.097158
      10A     -1.045799    11A     -0.992272    12A     -0.895686
      13A     -0.842091    14A     -0.836593    15A     -0.816281
      16A     -0.803396    17A     -0.666459    18A     -0.543543

  @DF-RHF Final Energy:  -225.27632834907442

   => Energetics <=

    Nuclear Repulsion Energy =            172.7077090476027479
    One-Electron Energy =                -637.9186554786751913
    Two-Electron Energy =                 239.9346180819980248
    Total Energy =                       -225.2763283490744186
  Basis Set: (AUG-CC-PVTZ AUX)
    Blend: AUG-CC-PVTZ-RI
    Molecular point group: c1

    Geometry (in Angstrom), charge = 1, multiplicity = 1:

       Center              X                  Y                   Z               Mass
    ------------   -----------------  -----------------  -----------------  -----------------
         C           -0.687859406352     0.973955027961     0.001459703299    12.000000000000
         C            0.683160593648     0.977129027961     0.001469703299    12.000000000000
         N            1.074306593648    -0.342198972039     0.001445703299    14.003074004430
         C            0.002782593648    -1.146500972039     0.001476703299    12.000000000000
         N           -1.072646406352    -0.347256972039     0.001450703299    14.003074004430
         H           -2.034539406352    -0.681538972039     0.001442703299     1.007825032230
         H            2.037851593648    -0.671906972039     0.001422703299     1.007825032230
         H           -1.398826506352     1.786536327961    -0.098546296701     1.007825032230
         H            1.390108593648     1.793203027961     0.001483703299     1.007825032230
         H            0.005154593648    -2.226783972039     0.001490703299     1.007825032230

  Basis Set: AUG-CC-PVTZ
    Blend: AUG-CC-PVTZ
  Basis Set: (AUG-CC-PVTZ AUX)
    Blend: AUG-CC-PVTZ-JKFIT
	 Reference Energy          =    -225.2763283490744186 [Eh]
	 Singles Energy            =      -0.0000000000000000 [Eh]
	 Same-Spin Energy          =      -0.2361375717561903 [Eh]
	 Opposite-Spin Energy      =      -0.7377066559584061 [Eh]
	 Correlation Energy        =      -0.9738442277145964 [Eh]
	 Total Energy              =    -226.2501725767890264 [Eh]

	 ================> DF-SCS-MP2 Energies <==================
	-----------------------------------------------------------
	 SCS Same-Spin Scale       =       0.3333333333333333 [-]
	 SCS Opposite-Spin Scale   =       1.2000000000000000 [-]
	 SCS Same-Spin Energy      =      -0.0787125239187301 [Eh]
	 SCS Opposite-Spin Energy  =      -0.8852479871500873 [Eh]
	 SCS Correlation Energy    =      -0.9639605110688174 [Eh]
	 SCS Total Energy          =    -226.2402888601432380 [Eh]
	-----------------------------------------------------------

  Dipole Moment: [D]
     X:     0.0070      Y:    -1.2729      Z:    -0.0845     Total:     1.2758

*** Psi4 exiting successfully. Buy a developer a beer!
