                               Psi4 1.3.2 release

  ==> Input File <==

--------------------------------------------------------------------------
#psi4
#
memory 32 gb

molecule  {
1 1
  C       -0.6878560     0.9739330     0.0000000
  C        0.6831640     0.9771070     0.0000100
  N        1.0743100    -0.3422210    -0.0000140
  C        0.0027860    -1.1465230     0.0000170
  N       -1.0726430    -0.3472790    -0.0000090
  H       -2.0345360    -0.6815610    -0.0000170
  H        2.0378620    -0.6719304     0.2499630
  H       -1.3988240     1.7865140    -0.0000060
  H        1.3901120     1.7931810     0.0000240
  H        0.0051580    -2.2268060     0.0000310
units angstrom
no_reorient  #important for SAPT in psi4, default
symmetry c1  #important for SAPT in psi4, default
}

set PROPERTIES_ORIGIN ["COM"]
properties('MP2/aug-cc-pvtz', properties = ['dipole'])
--------------------------------------------------------------------------

    Molecular point group: c1
  Charge       = 1
  Multiplicity = 1
  Basis Set: AUG-CC-PVTZ
    Blend: AUG-CC-PVTZ
  Basis Set: (AUG-CC-PVTZ AUX)
    Blend: AUG-CC-PVTZ-JKFIT

    Orbital Energies [Eh]
    ---------------------

    Doubly Occupied:

       1A    -15.852878     2A    -15.852786     3A    -11.554912
       4A    -11.477343     5A    -11.475843     6A     -1.592736
       7A     -1.429277     8A     -1.245582     9A     -1.091384
      10A     -1.044934    11A     -0.991765    12A     -0.891665
      13A     -0.841548    14A     -0.834710    15A     -0.816891
      16A     -0.801849    17A     -0.666087    18A     -0.543512

  @DF-RHF Final Energy:  -225.27297738186249

   => Energetics <=

    Nuclear Repulsion Energy =            172.5898374394674590
    One-Electron Energy =                -637.7142227738029305
    Two-Electron Energy =                 239.8514079524729539
    Total Energy =                       -225.2729773818624892
  Basis Set: (AUG-CC-PVTZ AUX)
    Blend: AUG-CC-PVTZ-RI
    Molecular point group: c1

    Geometry (in Angstrom), charge = 1, multiplicity = 1:

       Center              X                  Y                   Z               Mass
    ------------   -----------------  -----------------  -----------------  -----------------
         C           -0.687859495391     0.973955052775    -0.003649100607    12.000000000000
         C            0.683160504609     0.977129052775    -0.003639100607    12.000000000000
         N            1.074306504609    -0.342198947225    -0.003663100607    14.003074004430
         C            0.002782504609    -1.146500947225    -0.003632100607    12.000000000000
         N           -1.072646495391    -0.347256947225    -0.003658100607    14.003074004430
         H           -2.034539495391    -0.681538947225    -0.003666100607     1.007825032230
         H            2.037858504609    -0.671908347225     0.246313899393     1.007825032230
         H           -1.398827495391     1.786536052775    -0.003655100607     1.007825032230
         H            1.390108504609     1.793203052775    -0.003625100607     1.007825032230
         H            0.005154504609    -2.226783947225    -0.003618100607     1.007825032230

  Basis Set: AUG-CC-PVTZ
    Blend: AUG-CC-PVTZ
  Basis Set: (AUG-CC-PVTZ AUX)
    Blend: AUG-CC-PVTZ-JKFIT
	 Reference Energy          =    -225.2729773818624892 [Eh]
	 Singles Energy            =      -0.0000000000000000 [Eh]
	 Same-Spin Energy          =      -0.2363392089966137 [Eh]
	 Opposite-Spin Energy      =      -0.7382252287336676 [Eh]
	 Correlation Energy        =      -0.9745644377302813 [Eh]
	 Total Energy              =    -226.2475418195927830 [Eh]

	 ================> DF-SCS-MP2 Energies <==================
	-----------------------------------------------------------
	 SCS Same-Spin Scale       =       0.3333333333333333 [-]
	 SCS Opposite-Spin Scale   =       1.2000000000000000 [-]
	 SCS Same-Spin Energy      =      -0.0787797363322046 [Eh]
	 SCS Opposite-Spin Energy  =      -0.8858702744804011 [Eh]
	 SCS Correlation Energy    =      -0.9646500108126057 [Eh]
	 SCS Total Energy          =    -226.2376273926751082 [Eh]
	-----------------------------------------------------------

  Dipole Moment: [D]
     X:    -0.0115      Y:    -1.2690      Z:     0.3615     Total:     1.3195

*** Psi4 exiting successfully. Buy a developer a beer!
