                               Psi4 1.3.2 release

  ==> Input File <==

--------------------------------------------------------------------------
#psi4
#
memory 32 gb

molecule  {
1 1
  C       -0.6878560     0.9739330     0.0000000
  C        0.6831640     0.9771070     0.0000100
  N        1.0743100    -0.3422210    -0.0000140
  C        0.0027860    -1.1465230     0.0000170
  N       -1.0726430    -0.3472790    -0.0000090
  H       -2.0345360    -0.6815610    -0.0000170
  H        2.0378550    -0.6719290    -0.0000370
  H       -1.3988240     1.7865140    -0.0000060
  H        1.3901120     1.7931810     0.0000240
  H        0.0051583    -2.2268026     0.1500310
units angstrom
no_reorient  #important for SAPT in psi4, default
symmetry c1  #important for SAPT in psi4, default
}

set PROPERTIES_ORIGIN ["COM"]
properties('MP2/aug-cc-pvtz', properties = ['dipole'])
--------------------------------------------------------------------------

    Molecular point group: c1
  Charge       = 1
  Multiplicity = 1
  Basis Set: AUG-CC-PVTZ
    Blend: AUG-CC-PVTZ
  Basis Set: (AUG-CC-PVTZ AUX)
    Blend: AUG-CC-PVTZ-JKFIT

    Orbital Energies [Eh]
    ---------------------

    Doubly Occupied:

       1A    -15.852538     2A    -15.852493     3A    -11.555217
       4A    -11.477844     5A    -11.476423     6A     -1.593438
       7A     -1.431764     8A     -1.245757     9A     -1.096950
      10A     -1.046103    11A     -0.990415    12A     -0.895658
      13A     -0.845478    14A     -0.830313    15A     -0.817335
      16A     -0.804232    17A     -0.666442    18A     -0.543572

  @DF-RHF Final Energy:  -225.27553694951462

   => Energetics <=

    Nuclear Repulsion Energy =            172.6858643546345604
    One-Electron Energy =                -637.8788607630971228
    Two-Electron Energy =                 239.9174594589479739
    Total Energy =                       -225.2755369495146169
  Basis Set: (AUG-CC-PVTZ AUX)
    Blend: AUG-CC-PVTZ-RI
    Molecular point group: c1

    Geometry (in Angstrom), charge = 1, multiplicity = 1:

       Center              X                  Y                   Z               Mass
    ------------   -----------------  -----------------  -----------------  -----------------
         C           -0.687859397594     0.973954982711    -0.002189442348    12.000000000000
         C            0.683160602406     0.977128982711    -0.002179442348    12.000000000000
         N            1.074306602406    -0.342199017289    -0.002203442348    14.003074004430
         C            0.002782602406    -1.146501017289    -0.002172442348    12.000000000000
         N           -1.072646397594    -0.347257017289    -0.002198442348    14.003074004430
         H           -2.034539397594    -0.681539017289    -0.002206442348     1.007825032230
         H            2.037851602406    -0.671907017289    -0.002226442348     1.007825032230
         H           -1.398827397594     1.786535982711    -0.002195442348     1.007825032230
         H            1.390108602406     1.793202982711    -0.002165442348     1.007825032230
         H            0.005154902406    -2.226780617289     0.147841557652     1.007825032230

  Basis Set: AUG-CC-PVTZ
    Blend: AUG-CC-PVTZ
  Basis Set: (AUG-CC-PVTZ AUX)
    Blend: AUG-CC-PVTZ-JKFIT
	 Reference Energy          =    -225.2755369495146169 [Eh]
	 Singles Energy            =      -0.0000000000000000 [Eh]
	 Same-Spin Energy          =      -0.2362316097190676 [Eh]
	 Opposite-Spin Energy      =      -0.7378644382673706 [Eh]
	 Correlation Energy        =      -0.9740960479864382 [Eh]
	 Total Energy              =    -226.2496329975010667 [Eh]

	 ================> DF-SCS-MP2 Energies <==================
	-----------------------------------------------------------
	 SCS Same-Spin Scale       =       0.3333333333333333 [-]
	 SCS Opposite-Spin Scale   =       1.2000000000000000 [-]
	 SCS Same-Spin Energy      =      -0.0787438699063559 [Eh]
	 SCS Opposite-Spin Energy  =      -0.8854373259208447 [Eh]
	 SCS Correlation Energy    =      -0.9641811958272005 [Eh]
	 SCS Total Energy          =    -226.2397181453418114 [Eh]
	-----------------------------------------------------------

  Dipole Moment: [D]
     X:     0.0031      Y:    -1.2529      Z:     0.1358     Total:     1.2603

*** Psi4 exiting successfully. Buy a developer a beer!
