                               Psi4 1.3.2 release

  ==> Input File <==

--------------------------------------------------------------------------
#psi4
#
memory 32 gb

molecule  {
1 1
  C       -0.6878560     0.9739330     0.0000000
  C        0.6831640     0.9771070     0.0000100
  N        1.0743100    -0.3422210    -0.0000140
  C        0.0027860    -1.1465230     0.0000170
  N       -1.0726430    -0.3472790    -0.0000090
  H       -2.0345360    -0.6815610    -0.0000170
  H        2.0378550    -0.6719290    -0.0000370
  H       -1.3988218     1.7865147    -0.2500060
  H        1.3901120     1.7931810     0.0000240
  H        0.0051580    -2.2268060     0.0000310
units angstrom
no_reorient  #important for SAPT in psi4, default
symmetry c1  #important for SAPT in psi4, default
}

set PROPERTIES_ORIGIN ["COM"]
properties('MP2/aug-cc-pvtz', properties = ['dipole'])
--------------------------------------------------------------------------

    Molecular point group: c1
  Charge       = 1
  Multiplicity = 1
  Basis Set: AUG-CC-PVTZ
    Blend: AUG-CC-PVTZ
  Basis Set: (AUG-CC-PVTZ AUX)
    Blend: AUG-CC-PVTZ-JKFIT

    Orbital Energies [Eh]
    ---------------------

    Doubly Occupied:

       1A    -15.852782     2A    -15.852234     3A    -11.555190
       4A    -11.478842     5A    -11.477286     6A     -1.593618
       7A     -1.431793     8A     -1.245680     9A     -1.097202
      10A     -1.044402    11A     -0.990921    12A     -0.895714
      13A     -0.843781    14A     -0.836074    15A     -0.813190
      16A     -0.798107    17A     -0.666277    18A     -0.543478

  @DF-RHF Final Energy:  -225.27301377166037

   => Energetics <=

    Nuclear Repulsion Energy =            172.6204628964375729
    One-Electron Energy =                -637.7538109823585728
    Two-Electron Energy =                 239.8603343142606263
    Total Energy =                       -225.2730137716603735
  Basis Set: (AUG-CC-PVTZ AUX)
    Blend: AUG-CC-PVTZ-RI
    Molecular point group: c1

    Geometry (in Angstrom), charge = 1, multiplicity = 1:

       Center              X                  Y                   Z               Mass
    ------------   -----------------  -----------------  -----------------  -----------------
         C           -0.687859425328     0.973955022122     0.003649190688    12.000000000000
         C            0.683160574672     0.977129022122     0.003659190688    12.000000000000
         N            1.074306574672    -0.342198977878     0.003635190688    14.003074004430
         C            0.002782574672    -1.146500977878     0.003666190688    12.000000000000
         N           -1.072646425328    -0.347256977878     0.003640190688    14.003074004430
         H           -2.034539425328    -0.681538977878     0.003632190688     1.007825032230
         H            2.037851574672    -0.671906977878     0.003612190688     1.007825032230
         H           -1.398825225328     1.786536722122    -0.246356809312     1.007825032230
         H            1.390108574672     1.793203022122     0.003673190688     1.007825032230
         H            0.005154574672    -2.226783977878     0.003680190688     1.007825032230

  Basis Set: AUG-CC-PVTZ
    Blend: AUG-CC-PVTZ
  Basis Set: (AUG-CC-PVTZ AUX)
    Blend: AUG-CC-PVTZ-JKFIT
	 Reference Energy          =    -225.2730137716603735 [Eh]
	 Singles Energy            =      -0.0000000000000000 [Eh]
	 Same-Spin Energy          =      -0.2363009784059283 [Eh]
	 Opposite-Spin Energy      =      -0.7380994716394901 [Eh]
	 Correlation Energy        =      -0.9744004500454184 [Eh]
	 Total Energy              =    -226.2474142217057818 [Eh]

	 ================> DF-SCS-MP2 Energies <==================
	-----------------------------------------------------------
	 SCS Same-Spin Scale       =       0.3333333333333333 [-]
	 SCS Opposite-Spin Scale   =       1.2000000000000000 [-]
	 SCS Same-Spin Energy      =      -0.0787669928019761 [Eh]
	 SCS Opposite-Spin Energy  =      -0.8857193659673881 [Eh]
	 SCS Correlation Energy    =      -0.9644863587693642 [Eh]
	 SCS Total Energy          =    -226.2375001304297371 [Eh]
	-----------------------------------------------------------

  Dipole Moment: [D]
     X:     0.0261      Y:    -1.2873      Z:    -0.2115     Total:     1.3049

*** Psi4 exiting successfully. Buy a developer a beer!
