                               Psi4 1.3.2 release

  ==> Input File <==

--------------------------------------------------------------------------
#psi4
#
memory 32 gb

molecule  {
1 1
  C       -0.6878560     0.9739330     0.0000000
  C        0.6831640     0.9771070     0.0000100
  N        1.0743100    -0.3422210    -0.0000140
  C        0.0027860    -1.1465230     0.0000170
  N       -1.0726430    -0.3472790    -0.0000090
  H       -2.0345360    -0.6815610    -0.0000170
  H        2.0378578    -0.6719296     0.0999630
  H       -1.3988240     1.7865140    -0.0000060
  H        1.3901120     1.7931810     0.0000240
  H        0.0051580    -2.2268060     0.0000310
units angstrom
no_reorient  #important for SAPT in psi4, default
symmetry c1  #important for SAPT in psi4, default
}

set PROPERTIES_ORIGIN ["COM"]
properties('MP2/aug-cc-pvtz', properties = ['dipole'])
--------------------------------------------------------------------------

    Molecular point group: c1
  Charge       = 1
  Multiplicity = 1
  Basis Set: AUG-CC-PVTZ
    Blend: AUG-CC-PVTZ
  Basis Set: (AUG-CC-PVTZ AUX)
    Blend: AUG-CC-PVTZ-JKFIT

    Orbital Energies [Eh]
    ---------------------

    Doubly Occupied:

       1A    -15.852591     2A    -15.852539     3A    -11.554841
       4A    -11.477593     5A    -11.476169     6A     -1.593342
       7A     -1.431356     8A     -1.246010     9A     -1.096164
      10A     -1.045909    11A     -0.992416    12A     -0.895043
      13A     -0.841556    14A     -0.836475    15A     -0.817202
      16A     -0.803760    17A     -0.666429    18A     -0.543551

  @DF-RHF Final Energy:  -225.27634294589080

   => Energetics <=

    Nuclear Repulsion Energy =            172.7025792518577418
    One-Electron Energy =                -637.9119507448174318
    Two-Electron Energy =                 239.9330285470688864
    Total Energy =                       -225.2763429458908035
  Basis Set: (AUG-CC-PVTZ AUX)
    Blend: AUG-CC-PVTZ-RI
    Molecular point group: c1

    Geometry (in Angstrom), charge = 1, multiplicity = 1:

       Center              X                  Y                   Z               Mass
    ------------   -----------------  -----------------  -----------------  -----------------
         C           -0.687859434086     0.973955041097    -0.001459613219    12.000000000000
         C            0.683160565914     0.977129041097    -0.001449613219    12.000000000000
         N            1.074306565914    -0.342198958903    -0.001473613219    14.003074004430
         C            0.002782565914    -1.146500958903    -0.001442613219    12.000000000000
         N           -1.072646434086    -0.347256958903    -0.001468613219    14.003074004430
         H           -2.034539434086    -0.681538958903    -0.001476613219     1.007825032230
         H            2.037854365914    -0.671907558903     0.098503386781     1.007825032230
         H           -1.398827434086     1.786536041097    -0.001465613219     1.007825032230
         H            1.390108565914     1.793203041097    -0.001435613219     1.007825032230
         H            0.005154565914    -2.226783958903    -0.001428613219     1.007825032230

  Basis Set: AUG-CC-PVTZ
    Blend: AUG-CC-PVTZ
  Basis Set: (AUG-CC-PVTZ AUX)
    Blend: AUG-CC-PVTZ-JKFIT
	 Reference Energy          =    -225.2763429458908035 [Eh]
	 Singles Energy            =      -0.0000000000000000 [Eh]
	 Same-Spin Energy          =      -0.2361435285112902 [Eh]
	 Opposite-Spin Energy      =      -0.7377304735379813 [Eh]
	 Correlation Energy        =      -0.9738740020492715 [Eh]
	 Total Energy              =    -226.2502169479400891 [Eh]

	 ================> DF-SCS-MP2 Energies <==================
	-----------------------------------------------------------
	 SCS Same-Spin Scale       =       0.3333333333333333 [-]
	 SCS Opposite-Spin Scale   =       1.2000000000000000 [-]
	 SCS Same-Spin Energy      =      -0.0787145095037634 [Eh]
	 SCS Opposite-Spin Energy  =      -0.8852765682455775 [Eh]
	 SCS Correlation Energy    =      -0.9639910777493410 [Eh]
	 SCS Total Energy          =    -226.2403340236401448 [Eh]
	-----------------------------------------------------------

  Dipole Moment: [D]
     X:     0.0006      Y:    -1.2699      Z:     0.1442     Total:     1.2781

*** Psi4 exiting successfully. Buy a developer a beer!
