                               Psi4 1.3.2 release

  ==> Input File <==

--------------------------------------------------------------------------
#psi4
#
memory 32 gb

molecule  {
1 1
  C       -0.6878560     0.9739330     0.0000000
  C        0.6831640     0.9771070     0.0000100
  N        1.0743100    -0.3422210    -0.0000140
  C        0.0027860    -1.1465230     0.0000170
  N       -1.0726430    -0.3472790    -0.0000090
  H       -2.0345360    -0.6815610    -0.0000170
  H        2.0378592    -0.6719298     0.1499630
  H       -1.3988240     1.7865140    -0.0000060
  H        1.3901120     1.7931810     0.0000240
  H        0.0051580    -2.2268060     0.0000310
units angstrom
no_reorient  #important for SAPT in psi4, default
symmetry c1  #important for SAPT in psi4, default
}

set PROPERTIES_ORIGIN ["COM"]
properties('MP2/aug-cc-pvtz', properties = ['dipole'])
--------------------------------------------------------------------------

    Molecular point group: c1
  Charge       = 1
  Multiplicity = 1
  Basis Set: AUG-CC-PVTZ
    Blend: AUG-CC-PVTZ
  Basis Set: (AUG-CC-PVTZ AUX)
    Blend: AUG-CC-PVTZ-JKFIT

    Orbital Energies [Eh]
    ---------------------

    Doubly Occupied:

       1A    -15.852663     2A    -15.852602     3A    -11.554860
       4A    -11.477528     5A    -11.476095     6A     -1.593194
       7A     -1.430844     8A     -1.245905     9A     -1.094965
      10A     -1.045677    11A     -0.992259    12A     -0.894243
      13A     -0.841569    14A     -0.836025    15A     -0.817128
      16A     -0.803320    17A     -0.666348    18A     -0.543543

  @DF-RHF Final Energy:  -225.27560726992820

   => Energetics <=

    Nuclear Repulsion Energy =            172.6751132278663476
    One-Electron Energy =                -637.8639032132048214
    Two-Electron Energy =                 239.9131827154102723
    Total Energy =                       -225.2756072699282015
  Basis Set: (AUG-CC-PVTZ AUX)
    Blend: AUG-CC-PVTZ-RI
    Molecular point group: c1

    Geometry (in Angstrom), charge = 1, multiplicity = 1:

       Center              X                  Y                   Z               Mass
    ------------   -----------------  -----------------  -----------------  -----------------
         C           -0.687859454521     0.973955044017    -0.002189442348    12.000000000000
         C            0.683160545479     0.977129044017    -0.002179442348    12.000000000000
         N            1.074306545479    -0.342198955983    -0.002203442348    14.003074004430
         C            0.002782545479    -1.146500955983    -0.002172442348    12.000000000000
         N           -1.072646454521    -0.347256955983    -0.002198442348    14.003074004430
         H           -2.034539454521    -0.681538955983    -0.002206442348     1.007825032230
         H            2.037855745479    -0.671907755983     0.147773557652     1.007825032230
         H           -1.398827454521     1.786536044017    -0.002195442348     1.007825032230
         H            1.390108545479     1.793203044017    -0.002165442348     1.007825032230
         H            0.005154545479    -2.226783955983    -0.002158442348     1.007825032230

  Basis Set: AUG-CC-PVTZ
    Blend: AUG-CC-PVTZ
  Basis Set: (AUG-CC-PVTZ AUX)
    Blend: AUG-CC-PVTZ-JKFIT
	 Reference Energy          =    -225.2756072699282015 [Eh]
	 Singles Energy            =      -0.0000000000000000 [Eh]
	 Same-Spin Energy          =      -0.2361903589846948 [Eh]
	 Opposite-Spin Energy      =      -0.7378464465848877 [Eh]
	 Correlation Energy        =      -0.9740368055695826 [Eh]
	 Total Energy              =    -226.2496440754977982 [Eh]

	 ================> DF-SCS-MP2 Energies <==================
	-----------------------------------------------------------
	 SCS Same-Spin Scale       =       0.3333333333333333 [-]
	 SCS Opposite-Spin Scale   =       1.2000000000000000 [-]
	 SCS Same-Spin Energy      =      -0.0787301196615649 [Eh]
	 SCS Opposite-Spin Energy  =      -0.8854157359018653 [Eh]
	 SCS Correlation Energy    =      -0.9641458555634302 [Eh]
	 SCS Total Energy          =    -226.2397531254916316 [Eh]
	-----------------------------------------------------------

  Dipole Moment: [D]
     X:    -0.0024      Y:    -1.2697      Z:     0.2164     Total:     1.2880

*** Psi4 exiting successfully. Buy a developer a beer!
