                               Psi4 1.3.2 release

  ==> Input File <==

--------------------------------------------------------------------------
#psi4
#
memory 32 gb

molecule  {
1 1
  C       -0.6878560     0.9739330     0.0000000
  C        0.6831640     0.9771070     0.0000100
  N        1.0743100    -0.3422210    -0.0000140
  C        0.0027860    -1.1465230     0.0000170
  N       -1.0726430    -0.3472790    -0.0000090
  H       -2.0345360    -0.6815610    -0.0000170
  H        2.0378550    -0.6719290    -0.0000370
  H       -1.3988240     1.7865140    -0.0000060
  H        1.3901120     1.7931810     0.0000240
  H        0.0051586    -2.2268004     0.2500310
units angstrom
no_reorient  #important for SAPT in psi4, default
symmetry c1  #important for SAPT in psi4, default
}

set PROPERTIES_ORIGIN ["COM"]
properties('MP2/aug-cc-pvtz', properties = ['dipole'])
--------------------------------------------------------------------------

    Molecular point group: c1
  Charge       = 1
  Multiplicity = 1
  Basis Set: AUG-CC-PVTZ
    Blend: AUG-CC-PVTZ
  Basis Set: (AUG-CC-PVTZ AUX)
    Blend: AUG-CC-PVTZ-JKFIT

    Orbital Energies [Eh]
    ---------------------

    Doubly Occupied:

       1A    -15.852551     2A    -15.852506     3A    -11.555894
       4A    -11.478182     5A    -11.476762     6A     -1.593393
       7A     -1.431746     8A     -1.245198     9A     -1.096621
      10A     -1.046118    11A     -0.986871    12A     -0.895620
      13A     -0.847994    14A     -0.823178    15A     -0.817460
      16A     -0.804433    17A     -0.666353    18A     -0.543599

  @DF-RHF Final Energy:  -225.27288057115999

   => Energetics <=

    Nuclear Repulsion Energy =            172.6186293956286022
    One-Electron Energy =                -637.7540675291724028
    Two-Electron Energy =                 239.8625575623838131
    Total Energy =                       -225.2728805711599875
  Basis Set: (AUG-CC-PVTZ AUX)
    Blend: AUG-CC-PVTZ-RI
    Molecular point group: c1

    Geometry (in Angstrom), charge = 1, multiplicity = 1:

       Center              X                  Y                   Z               Mass
    ------------   -----------------  -----------------  -----------------  -----------------
         C           -0.687859401973     0.973954950599    -0.003649100607    12.000000000000
         C            0.683160598027     0.977128950599    -0.003639100607    12.000000000000
         N            1.074306598027    -0.342199049401    -0.003663100607    14.003074004430
         C            0.002782598027    -1.146501049401    -0.003632100607    12.000000000000
         N           -1.072646401973    -0.347257049401    -0.003658100607    14.003074004430
         H           -2.034539401973    -0.681539049401    -0.003666100607     1.007825032230
         H            2.037851598027    -0.671907049401    -0.003686100607     1.007825032230
         H           -1.398827401973     1.786535950599    -0.003655100607     1.007825032230
         H            1.390108598027     1.793202950599    -0.003625100607     1.007825032230
         H            0.005155198027    -2.226778449401     0.246381899393     1.007825032230

  Basis Set: AUG-CC-PVTZ
    Blend: AUG-CC-PVTZ
  Basis Set: (AUG-CC-PVTZ AUX)
    Blend: AUG-CC-PVTZ-JKFIT
	 Reference Energy          =    -225.2728805711599875 [Eh]
	 Singles Energy            =      -0.0000000000000000 [Eh]
	 Same-Spin Energy          =      -0.2364506876359184 [Eh]
	 Opposite-Spin Energy      =      -0.7382870730302070 [Eh]
	 Correlation Energy        =      -0.9747377606661254 [Eh]
	 Total Energy              =    -226.2476183318261178 [Eh]

	 ================> DF-SCS-MP2 Energies <==================
	-----------------------------------------------------------
	 SCS Same-Spin Scale       =       0.3333333333333333 [-]
	 SCS Opposite-Spin Scale   =       1.2000000000000000 [-]
	 SCS Same-Spin Energy      =      -0.0788168958786395 [Eh]
	 SCS Opposite-Spin Energy  =      -0.8859444876362484 [Eh]
	 SCS Correlation Energy    =      -0.9647613835148879 [Eh]
	 SCS Total Energy          =    -226.2376419546748707 [Eh]
	-----------------------------------------------------------

  Dipole Moment: [D]
     X:     0.0030      Y:    -1.2235      Z:     0.2270     Total:     1.2443

*** Psi4 exiting successfully. Buy a developer a beer!
