                               Psi4 1.3.2 release

  ==> Input File <==

--------------------------------------------------------------------------
#psi4
#
memory 32 gb

molecule  {
1 1
  C       -0.6878560     0.9739330     0.0000000
  C        0.6831640     0.9771070     0.0000100
  N        1.0743100    -0.3422210    -0.0000140
  C        0.0027860    -1.1465230     0.0000170
  N       -1.0726430    -0.3472790    -0.0000090
  H       -2.0345360    -0.6815610    -0.0000170
  H        2.0378550    -0.6719290    -0.0000370
  H       -1.3988240     1.7865140    -0.0000060
  H        1.3901120     1.7931810     0.0000240
  H        0.0051580    -2.2268060     0.0000310
units angstrom
no_reorient  #important for SAPT in psi4, default
symmetry c1  #important for SAPT in psi4, default
}

set PROPERTIES_ORIGIN ["COM"]
properties('MP2/aug-cc-pvtz', properties = ['dipole'])
--------------------------------------------------------------------------

    Molecular point group: c1
  Charge       = 1
  Multiplicity = 1
  Basis Set: AUG-CC-PVTZ
    Blend: AUG-CC-PVTZ
  Basis Set: (AUG-CC-PVTZ AUX)
    Blend: AUG-CC-PVTZ-JKFIT

    Orbital Energies [Eh]
    ---------------------

    Doubly Occupied:

       1A    -15.852532     2A    -15.852486     3A    -11.554825
       4A    -11.477648     5A    -11.476226     6A     -1.593463
       7A     -1.431775     8A     -1.246096     9A     -1.097151
      10A     -1.046094    11A     -0.992542    12A     -0.895681
      13A     -0.841535    14A     -0.836852    15A     -0.817261
      16A     -0.804106    17A     -0.666494    18A     -0.543557

  @DF-RHF Final Energy:  -225.27689845484281

   => Energetics <=

    Nuclear Repulsion Energy =            172.7248477036858674
    One-Electron Energy =                -637.9508454982715193
    Two-Electron Energy =                 239.9490993397428156
    Total Energy =                       -225.2768984548428080
  Basis Set: (AUG-CC-PVTZ AUX)
    Blend: AUG-CC-PVTZ-RI
    Molecular point group: c1

    Geometry (in Angstrom), charge = 1, multiplicity = 1:

       Center              X                  Y                   Z               Mass
    ------------   -----------------  -----------------  -----------------  -----------------
         C           -0.687859393215     0.973955032339     0.000000045040    12.000000000000
         C            0.683160606785     0.977129032339     0.000010045040    12.000000000000
         N            1.074306606785    -0.342198967661    -0.000013954960    14.003074004430
         C            0.002782606785    -1.146500967661     0.000017045040    12.000000000000
         N           -1.072646393215    -0.347256967661    -0.000008954960    14.003074004430
         H           -2.034539393215    -0.681538967661    -0.000016954960     1.007825032230
         H            2.037851606785    -0.671906967661    -0.000036954960     1.007825032230
         H           -1.398827393215     1.786536032339    -0.000005954960     1.007825032230
         H            1.390108606785     1.793203032339     0.000024045040     1.007825032230
         H            0.005154606785    -2.226783967661     0.000031045040     1.007825032230

  Basis Set: AUG-CC-PVTZ
    Blend: AUG-CC-PVTZ
  Basis Set: (AUG-CC-PVTZ AUX)
    Blend: AUG-CC-PVTZ-JKFIT
	 Reference Energy          =    -225.2768984548428080 [Eh]
	 Singles Energy            =      -0.0000000000000000 [Eh]
	 Same-Spin Energy          =      -0.2361059763102794 [Eh]
	 Opposite-Spin Energy      =      -0.7376390107254696 [Eh]
	 Correlation Energy        =      -0.9737449870357490 [Eh]
	 Total Energy              =    -226.2506434418785659 [Eh]

	 ================> DF-SCS-MP2 Energies <==================
	-----------------------------------------------------------
	 SCS Same-Spin Scale       =       0.3333333333333333 [-]
	 SCS Opposite-Spin Scale   =       1.2000000000000000 [-]
	 SCS Same-Spin Energy      =      -0.0787019921034265 [Eh]
	 SCS Opposite-Spin Energy  =      -0.8851668128705634 [Eh]
	 SCS Correlation Energy    =      -0.9638688049739899 [Eh]
	 SCS Total Energy          =    -226.2407672598168062 [Eh]
	-----------------------------------------------------------

  Dipole Moment: [D]
     X:     0.0032      Y:    -1.2701      Z:    -0.0000     Total:     1.2701

*** Psi4 exiting successfully. Buy a developer a beer!
