                               Psi4 1.3.2 release

  ==> Input File <==

--------------------------------------------------------------------------
#psi4
#
memory 32 gb

molecule  {
1 1
  C       -0.6878560     0.9739330     0.0000000
  C        0.6831640     0.9771070     0.0000100
  N        1.0743100    -0.3422210    -0.0000140
  C        0.0027860    -1.1465230     0.0000170
  N       -1.0726430    -0.3472790    -0.0000090
  H       -2.0345360    -0.6815610    -0.0000170
  H        2.0378634    -0.6719307     0.2999630
  H       -1.3988240     1.7865140    -0.0000060
  H        1.3901120     1.7931810     0.0000240
  H        0.0051580    -2.2268060     0.0000310
units angstrom
no_reorient  #important for SAPT in psi4, default
symmetry c1  #important for SAPT in psi4, default
}

set PROPERTIES_ORIGIN ["COM"]
properties('MP2/aug-cc-pvtz', properties = ['dipole'])
--------------------------------------------------------------------------

    Molecular point group: c1
  Charge       = 1
  Multiplicity = 1
  Basis Set: AUG-CC-PVTZ
    Blend: AUG-CC-PVTZ
  Basis Set: (AUG-CC-PVTZ AUX)
    Blend: AUG-CC-PVTZ-JKFIT

    Orbital Energies [Eh]
    ---------------------

    Doubly Occupied:

       1A    -15.853008     2A    -15.852900     3A    -11.554939
       4A    -11.477232     5A    -11.475659     6A     -1.592435
       7A     -1.428259     8A     -1.245370     9A     -1.089133
      10A     -1.044423    11A     -0.991433    12A     -0.889886
      13A     -0.841500    14A     -0.833891    15A     -0.816728
      16A     -0.800785    17A     -0.665907    18A     -0.543487

  @DF-RHF Final Energy:  -225.27095747067648

   => Energetics <=

    Nuclear Repulsion Energy =            172.5333898056225905
    One-Electron Energy =                -637.6147468538136991
    Two-Electron Energy =                 239.8103995775146018
    Total Energy =                       -225.2709574706764784
  Basis Set: (AUG-CC-PVTZ AUX)
    Blend: AUG-CC-PVTZ-RI
    Molecular point group: c1

    Geometry (in Angstrom), charge = 1, multiplicity = 1:

       Center              X                  Y                   Z               Mass
    ------------   -----------------  -----------------  -----------------  -----------------
         C           -0.687859515827     0.973955057154    -0.004378929736    12.000000000000
         C            0.683160484173     0.977129057154    -0.004368929736    12.000000000000
         N            1.074306484173    -0.342198942846    -0.004392929736    14.003074004430
         C            0.002782484173    -1.146500942846    -0.004361929736    12.000000000000
         N           -1.072646515827    -0.347256942846    -0.004387929736    14.003074004430
         H           -2.034539515827    -0.681538942846    -0.004395929736     1.007825032230
         H            2.037859884173    -0.671908642846     0.295584070264     1.007825032230
         H           -1.398827515827     1.786536057154    -0.004384929736     1.007825032230
         H            1.390108484173     1.793203057154    -0.004354929736     1.007825032230
         H            0.005154484173    -2.226783942846    -0.004347929736     1.007825032230

  Basis Set: AUG-CC-PVTZ
    Blend: AUG-CC-PVTZ
  Basis Set: (AUG-CC-PVTZ AUX)
    Blend: AUG-CC-PVTZ-JKFIT
	 Reference Energy          =    -225.2709574706764784 [Eh]
	 Singles Energy            =      -0.0000000000000000 [Eh]
	 Same-Spin Energy          =      -0.2364404938206028 [Eh]
	 Opposite-Spin Energy      =      -0.7384888503032745 [Eh]
	 Correlation Energy        =      -0.9749293441238773 [Eh]
	 Total Energy              =    -226.2458868148003432 [Eh]

	 ================> DF-SCS-MP2 Energies <==================
	-----------------------------------------------------------
	 SCS Same-Spin Scale       =       0.3333333333333333 [-]
	 SCS Opposite-Spin Scale   =       1.2000000000000000 [-]
	 SCS Same-Spin Energy      =      -0.0788134979402009 [Eh]
	 SCS Opposite-Spin Energy  =      -0.8861866203639294 [Eh]
	 SCS Correlation Energy    =      -0.9650001183041303 [Eh]
	 SCS Total Energy          =    -226.2359575889805967 [Eh]
	-----------------------------------------------------------

  Dipole Moment: [D]
     X:    -0.0171      Y:    -1.2686      Z:     0.4346     Total:     1.3411

*** Psi4 exiting successfully. Buy a developer a beer!
