                               Psi4 1.3.2 release

  ==> Input File <==

--------------------------------------------------------------------------
#psi4
#
memory 32 gb

molecule  {
1 1
  C       -0.6878560     0.9739330     0.0000000
  C        0.6831640     0.9771070     0.0000100
  N        1.0743100    -0.3422210    -0.0000140
  C        0.0027860    -1.1465230     0.0000170
  N       -1.0726430    -0.3472790    -0.0000090
  H       -2.0345360    -0.6815610    -0.0000170
  H        2.0378550    -0.6719290    -0.0000370
  H       -1.3988227     1.7865144    -0.1500060
  H        1.3901120     1.7931810     0.0000240
  H        0.0051580    -2.2268060     0.0000310
units angstrom
no_reorient  #important for SAPT in psi4, default
symmetry c1  #important for SAPT in psi4, default
}

set PROPERTIES_ORIGIN ["COM"]
properties('MP2/aug-cc-pvtz', properties = ['dipole'])
--------------------------------------------------------------------------

    Molecular point group: c1
  Charge       = 1
  Multiplicity = 1
  Basis Set: AUG-CC-PVTZ
    Blend: AUG-CC-PVTZ
  Basis Set: (AUG-CC-PVTZ AUX)
    Blend: AUG-CC-PVTZ-JKFIT

    Orbital Energies [Eh]
    ---------------------

    Doubly Occupied:

       1A    -15.852619     2A    -15.852394     3A    -11.554958
       4A    -11.478069     5A    -11.476629     6A     -1.593519
       7A     -1.431780     8A     -1.245939     9A     -1.097168
      10A     -1.045444    11A     -0.991940    12A     -0.895692
      13A     -0.842634    14A     -0.836383    15A     -0.815254
      16A     -0.802358    17A     -0.666415    18A     -0.543527

  @DF-RHF Final Energy:  -225.27558651245133

   => Energetics <=

    Nuclear Repulsion Energy =            172.6865263017679979
    One-Electron Energy =                -637.8787808063310649
    Two-Electron Energy =                 239.9166679921117122
    Total Energy =                       -225.2755865124513264
  Basis Set: (AUG-CC-PVTZ AUX)
    Blend: AUG-CC-PVTZ-RI
    Molecular point group: c1

    Geometry (in Angstrom), charge = 1, multiplicity = 1:

       Center              X                  Y                   Z               Mass
    ------------   -----------------  -----------------  -----------------  -----------------
         C           -0.687859412191     0.973955026501     0.002189532429    12.000000000000
         C            0.683160587809     0.977129026501     0.002199532429    12.000000000000
         N            1.074306587809    -0.342198973499     0.002175532429    14.003074004430
         C            0.002782587809    -1.146500973499     0.002206532429    12.000000000000
         N           -1.072646412191    -0.347256973499     0.002180532429    14.003074004430
         H           -2.034539412191    -0.681538973499     0.002172532429     1.007825032230
         H            2.037851587809    -0.671906973499     0.002152532429     1.007825032230
         H           -1.398826112191     1.786536426501    -0.147816467571     1.007825032230
         H            1.390108587809     1.793203026501     0.002213532429     1.007825032230
         H            0.005154587809    -2.226783973499     0.002220532429     1.007825032230

  Basis Set: AUG-CC-PVTZ
    Blend: AUG-CC-PVTZ
  Basis Set: (AUG-CC-PVTZ AUX)
    Blend: AUG-CC-PVTZ-JKFIT
	 Reference Energy          =    -225.2755865124513264 [Eh]
	 Singles Energy            =      -0.0000000000000000 [Eh]
	 Same-Spin Energy          =      -0.2361768651599596 [Eh]
	 Opposite-Spin Energy      =      -0.7377955052295466 [Eh]
	 Correlation Energy        =      -0.9739723703895062 [Eh]
	 Total Energy              =    -226.2495588828408302 [Eh]

	 ================> DF-SCS-MP2 Energies <==================
	-----------------------------------------------------------
	 SCS Same-Spin Scale       =       0.3333333333333333 [-]
	 SCS Opposite-Spin Scale   =       1.2000000000000000 [-]
	 SCS Same-Spin Energy      =      -0.0787256217199865 [Eh]
	 SCS Opposite-Spin Energy  =      -0.8853546062754559 [Eh]
	 SCS Correlation Energy    =      -0.9640802279954425 [Eh]
	 SCS Total Energy          =    -226.2396667404467792 [Eh]
	-----------------------------------------------------------

  Dipole Moment: [D]
     X:     0.0117      Y:    -1.2764      Z:    -0.1267     Total:     1.2828

*** Psi4 exiting successfully. Buy a developer a beer!
