                               Psi4 1.3.2 release

  ==> Input File <==

--------------------------------------------------------------------------
#psi4
#
memory 32 gb

molecule  {
1 1
  C       -0.6878560     0.9739330     0.0000000
  C        0.6831640     0.9771070     0.0000100
  N        1.0743100    -0.3422210    -0.0000140
  C        0.0027860    -1.1465230     0.0000170
  N       -1.0726430    -0.3472790    -0.0000090
  H       -2.0345360    -0.6815610    -0.0000170
  H        2.0378550    -0.6719290    -0.0000370
  H       -1.3988240     1.7865140    -0.0000060
  H        1.3901120     1.7931810     0.0000240
  H        0.0051585    -2.2268015     0.2000310
units angstrom
no_reorient  #important for SAPT in psi4, default
symmetry c1  #important for SAPT in psi4, default
}

set PROPERTIES_ORIGIN ["COM"]
properties('MP2/aug-cc-pvtz', properties = ['dipole'])
--------------------------------------------------------------------------

    Molecular point group: c1
  Charge       = 1
  Multiplicity = 1
  Basis Set: AUG-CC-PVTZ
    Blend: AUG-CC-PVTZ
  Basis Set: (AUG-CC-PVTZ AUX)
    Blend: AUG-CC-PVTZ-JKFIT

    Orbital Energies [Eh]
    ---------------------

    Doubly Occupied:

       1A    -15.852544     2A    -15.852498     3A    -11.555517
       4A    -11.477994     5A    -11.476573     6A     -1.593418
       7A     -1.431756     8A     -1.245506     9A     -1.096801
      10A     -1.046109    11A     -0.988828    12A     -0.895641
      13A     -0.846838    14A     -0.826932    15A     -0.817390
      16A     -0.804323    17A     -0.666402    18A     -0.543584

  @DF-RHF Final Energy:  -225.27440968540171

   => Energetics <=

    Nuclear Repulsion Energy =            172.6561309355220146
    One-Electron Energy =                -637.8237712897814617
    Two-Electron Energy =                 239.8932306688577398
    Total Energy =                       -225.2744096854017073
  Basis Set: (AUG-CC-PVTZ AUX)
    Blend: AUG-CC-PVTZ-RI
    Molecular point group: c1

    Geometry (in Angstrom), charge = 1, multiplicity = 1:

       Center              X                  Y                   Z               Mass
    ------------   -----------------  -----------------  -----------------  -----------------
         C           -0.687859400514     0.973954966655    -0.002919271477    12.000000000000
         C            0.683160599486     0.977128966655    -0.002909271477    12.000000000000
         N            1.074306599486    -0.342199033345    -0.002933271477    14.003074004430
         C            0.002782599486    -1.146501033345    -0.002902271477    12.000000000000
         N           -1.072646400514    -0.347257033345    -0.002928271477    14.003074004430
         H           -2.034539400514    -0.681539033345    -0.002936271477     1.007825032230
         H            2.037851599486    -0.671907033345    -0.002956271477     1.007825032230
         H           -1.398827400514     1.786535966655    -0.002925271477     1.007825032230
         H            1.390108599486     1.793202966655    -0.002895271477     1.007825032230
         H            0.005155099486    -2.226779533345     0.197111728523     1.007825032230

  Basis Set: AUG-CC-PVTZ
    Blend: AUG-CC-PVTZ
  Basis Set: (AUG-CC-PVTZ AUX)
    Blend: AUG-CC-PVTZ-JKFIT
	 Reference Energy          =    -225.2744096854017073 [Eh]
	 Singles Energy            =      -0.0000000000000000 [Eh]
	 Same-Spin Energy          =      -0.2363281632847000 [Eh]
	 Opposite-Spin Energy      =      -0.7380468019265335 [Eh]
	 Correlation Energy        =      -0.9743749652112335 [Eh]
	 Total Energy              =    -226.2487846506129472 [Eh]

	 ================> DF-SCS-MP2 Energies <==================
	-----------------------------------------------------------
	 SCS Same-Spin Scale       =       0.3333333333333333 [-]
	 SCS Opposite-Spin Scale   =       1.2000000000000000 [-]
	 SCS Same-Spin Energy      =      -0.0787760544282333 [Eh]
	 SCS Opposite-Spin Energy  =      -0.8856561623118402 [Eh]
	 SCS Correlation Energy    =      -0.9644322167400735 [Eh]
	 SCS Total Energy          =    -226.2388419021417860 [Eh]
	-----------------------------------------------------------

  Dipole Moment: [D]
     X:     0.0031      Y:    -1.2399      Z:     0.1813     Total:     1.2531

*** Psi4 exiting successfully. Buy a developer a beer!
