                               Psi4 1.3.2 release

  ==> Input File <==

--------------------------------------------------------------------------
#psi4
#
memory 32 gb

molecule  {
1 1
  C       -0.6878560     0.9739330     0.0000000
  C        0.6831640     0.9771070     0.0000100
  N        1.0743100    -0.3422210    -0.0000140
  C        0.0027860    -1.1465230     0.0000170
  N       -1.0726430    -0.3472790    -0.0000090
  H       -2.0345360    -0.6815610    -0.0000170
  H        2.0378550    -0.6719290    -0.0000370
  H       -1.3988236     1.7865141    -0.0500060
  H        1.3901120     1.7931810     0.0000240
  H        0.0051580    -2.2268060     0.0000310
units angstrom
no_reorient  #important for SAPT in psi4, default
symmetry c1  #important for SAPT in psi4, default
}

set PROPERTIES_ORIGIN ["COM"]
properties('MP2/aug-cc-pvtz', properties = ['dipole'])
--------------------------------------------------------------------------

    Molecular point group: c1
  Charge       = 1
  Multiplicity = 1
  Basis Set: AUG-CC-PVTZ
    Blend: AUG-CC-PVTZ
  Basis Set: (AUG-CC-PVTZ AUX)
    Blend: AUG-CC-PVTZ-JKFIT

    Orbital Energies [Eh]
    ---------------------

    Doubly Occupied:

       1A    -15.852540     2A    -15.852478     3A    -11.554840
       4A    -11.477694     5A    -11.476272     6A     -1.593469
       7A     -1.431775     8A     -1.246078     9A     -1.097153
      10A     -1.046019    11A     -0.992474    12A     -0.895682
      13A     -0.841688    14A     -0.836776    15A     -0.817003
      16A     -0.803939    17A     -0.666485    18A     -0.543553

  @DF-RHF Final Energy:  -225.27675791965527

   => Energetics <=

    Nuclear Repulsion Energy =            172.7205467328589350
    One-Electron Energy =                -637.9427734823946139
    Two-Electron Energy =                 239.9454688298804399
    Total Energy =                       -225.2767579196552674
  Basis Set: (AUG-CC-PVTZ AUX)
    Blend: AUG-CC-PVTZ-RI
    Molecular point group: c1

    Geometry (in Angstrom), charge = 1, multiplicity = 1:

       Center              X                  Y                   Z               Mass
    ------------   -----------------  -----------------  -----------------  -----------------
         C           -0.687859399054     0.973955030880     0.000729874170    12.000000000000
         C            0.683160600946     0.977129030880     0.000739874170    12.000000000000
         N            1.074306600946    -0.342198969120     0.000715874170    14.003074004430
         C            0.002782600946    -1.146500969120     0.000746874170    12.000000000000
         N           -1.072646399054    -0.347256969120     0.000720874170    14.003074004430
         H           -2.034539399054    -0.681538969120     0.000712874170     1.007825032230
         H            2.037851600946    -0.671906969120     0.000692874170     1.007825032230
         H           -1.398826999054     1.786536130880    -0.049276125830     1.007825032230
         H            1.390108600946     1.793203030880     0.000753874170     1.007825032230
         H            0.005154600946    -2.226783969120     0.000760874170     1.007825032230

  Basis Set: AUG-CC-PVTZ
    Blend: AUG-CC-PVTZ
  Basis Set: (AUG-CC-PVTZ AUX)
    Blend: AUG-CC-PVTZ-JKFIT
	 Reference Energy          =    -225.2767579196552674 [Eh]
	 Singles Energy            =      -0.0000000000000000 [Eh]
	 Same-Spin Energy          =      -0.2361138897164787 [Eh]
	 Opposite-Spin Energy      =      -0.7376555800061664 [Eh]
	 Correlation Energy        =      -0.9737694697226451 [Eh]
	 Total Energy              =    -226.2505273893779076 [Eh]

	 ================> DF-SCS-MP2 Energies <==================
	-----------------------------------------------------------
	 SCS Same-Spin Scale       =       0.3333333333333333 [-]
	 SCS Opposite-Spin Scale   =       1.2000000000000000 [-]
	 SCS Same-Spin Energy      =      -0.0787046299054929 [Eh]
	 SCS Opposite-Spin Energy  =      -0.8851866960073996 [Eh]
	 SCS Correlation Energy    =      -0.9638913259128925 [Eh]
	 SCS Total Energy          =    -226.2406492455681644 [Eh]
	-----------------------------------------------------------

  Dipole Moment: [D]
     X:     0.0041      Y:    -1.2708      Z:    -0.0422     Total:     1.2715

*** Psi4 exiting successfully. Buy a developer a beer!
