                               Psi4 1.3.2 release

  ==> Input File <==

--------------------------------------------------------------------------
#psi4
#
memory 32 gb

molecule  {
1 1
  C       -0.6878560     0.9739330     0.0000000
  C        0.6831640     0.9771070     0.0000100
  N        1.0743100    -0.3422210    -0.0000140
  C        0.0027860    -1.1465230     0.0000170
  N       -1.0726430    -0.3472790    -0.0000090
  H       -2.0345360    -0.6815610    -0.0000170
  H        2.0378550    -0.6719290    -0.0000370
  H       -1.3988222     1.7865145    -0.2000060
  H        1.3901120     1.7931810     0.0000240
  H        0.0051580    -2.2268060     0.0000310
units angstrom
no_reorient  #important for SAPT in psi4, default
symmetry c1  #important for SAPT in psi4, default
}

set PROPERTIES_ORIGIN ["COM"]
properties('MP2/aug-cc-pvtz', properties = ['dipole'])
--------------------------------------------------------------------------

    Molecular point group: c1
  Charge       = 1
  Multiplicity = 1
  Basis Set: AUG-CC-PVTZ
    Blend: AUG-CC-PVTZ
  Basis Set: (AUG-CC-PVTZ AUX)
    Blend: AUG-CC-PVTZ-JKFIT

    Orbital Energies [Eh]
    ---------------------

    Doubly Occupied:

       1A    -15.852691     2A    -15.852322     3A    -11.555061
       4A    -11.478404     5A    -11.476925     6A     -1.593562
       7A     -1.431786     8A     -1.245823     9A     -1.097182
      10A     -1.044971    11A     -0.991486    12A     -0.895701
      13A     -0.843218    14A     -0.836202    15A     -0.814151
      16A     -0.800648    17A     -0.666354    18A     -0.543505

  @DF-RHF Final Energy:  -225.27449653214529

   => Energetics <=

    Nuclear Repulsion Energy =            172.6573074443008693
    One-Electron Energy =                -637.8236209613534129
    Two-Electron Energy =                 239.8918169849072797
    Total Energy =                       -225.2744965321452923
  Basis Set: (AUG-CC-PVTZ AUX)
    Blend: AUG-CC-PVTZ-RI
    Molecular point group: c1

    Geometry (in Angstrom), charge = 1, multiplicity = 1:

       Center              X                  Y                   Z               Mass
    ------------   -----------------  -----------------  -----------------  -----------------
         C           -0.687859419489     0.973955025041     0.002919361558    12.000000000000
         C            0.683160580511     0.977129025041     0.002929361558    12.000000000000
         N            1.074306580511    -0.342198974959     0.002905361558    14.003074004430
         C            0.002782580511    -1.146500974959     0.002936361558    12.000000000000
         N           -1.072646419489    -0.347256974959     0.002910361558    14.003074004430
         H           -2.034539419489    -0.681538974959     0.002902361558     1.007825032230
         H            2.037851580511    -0.671906974959     0.002882361558     1.007825032230
         H           -1.398825619489     1.786536525041    -0.197086638442     1.007825032230
         H            1.390108580511     1.793203025041     0.002943361558     1.007825032230
         H            0.005154580511    -2.226783974959     0.002950361558     1.007825032230

  Basis Set: AUG-CC-PVTZ
    Blend: AUG-CC-PVTZ
  Basis Set: (AUG-CC-PVTZ AUX)
    Blend: AUG-CC-PVTZ-JKFIT
	 Reference Energy          =    -225.2744965321452923 [Eh]
	 Singles Energy            =      -0.0000000000000000 [Eh]
	 Same-Spin Energy          =      -0.2362314767665024 [Eh]
	 Opposite-Spin Energy      =      -0.7379255922607939 [Eh]
	 Correlation Energy        =      -0.9741570690272964 [Eh]
	 Total Energy              =    -226.2486536011725775 [Eh]

	 ================> DF-SCS-MP2 Energies <==================
	-----------------------------------------------------------
	 SCS Same-Spin Scale       =       0.3333333333333333 [-]
	 SCS Opposite-Spin Scale   =       1.2000000000000000 [-]
	 SCS Same-Spin Energy      =      -0.0787438255888341 [Eh]
	 SCS Opposite-Spin Energy  =      -0.8855107107129526 [Eh]
	 SCS Correlation Energy    =      -0.9642545363017867 [Eh]
	 SCS Total Energy          =    -226.2387510684470726 [Eh]
	-----------------------------------------------------------

  Dipole Moment: [D]
     X:     0.0181      Y:    -1.2812      Z:    -0.1691     Total:     1.2925

*** Psi4 exiting successfully. Buy a developer a beer!
