                               Psi4 1.3.2 release

  ==> Input File <==

--------------------------------------------------------------------------
#psi4
#
memory 32 gb

molecule  {
1 1
  C       -0.6878560     0.9739330     0.0000000
  C        0.6831640     0.9771070     0.0000100
  N        1.0743100    -0.3422210    -0.0000140
  C        0.0027860    -1.1465230     0.0000170
  N       -1.0726430    -0.3472790    -0.0000090
  H       -2.0345360    -0.6815610    -0.0000170
  H        2.0378550    -0.6719290    -0.0000370
  H       -1.3988240     1.7865140    -0.0000060
  H        1.3901120     1.7931810     0.0000240
  H        0.0051582    -2.2268037     0.1000310
units angstrom
no_reorient  #important for SAPT in psi4, default
symmetry c1  #important for SAPT in psi4, default
}

set PROPERTIES_ORIGIN ["COM"]
properties('MP2/aug-cc-pvtz', properties = ['dipole'])
--------------------------------------------------------------------------

    Molecular point group: c1
  Charge       = 1
  Multiplicity = 1
  Basis Set: AUG-CC-PVTZ
    Blend: AUG-CC-PVTZ
  Basis Set: (AUG-CC-PVTZ AUX)
    Blend: AUG-CC-PVTZ-JKFIT

    Orbital Energies [Eh]
    ---------------------

    Doubly Occupied:

       1A    -15.852535     2A    -15.852489     3A    -11.555000
       4A    -11.477736     5A    -11.476315     6A     -1.593452
       7A     -1.431770     8A     -1.245943     9A     -1.097060
      10A     -1.046098    11A     -0.991585    12A     -0.895671
      13A     -0.843946    14A     -0.833288    15A     -0.817294
      16A     -0.804163    17A     -0.666470    18A     -0.543564

  @DF-RHF Final Energy:  -225.27630609051261

   => Energetics <=

    Nuclear Repulsion Energy =            172.7074157349601080
    One-Electron Energy =                -637.9186910566603501
    Two-Electron Energy =                 239.9349692311876083
    Total Energy =                       -225.2763060905126054
  Basis Set: (AUG-CC-PVTZ AUX)
    Blend: AUG-CC-PVTZ-RI
    Molecular point group: c1

    Geometry (in Angstrom), charge = 1, multiplicity = 1:

       Center              X                  Y                   Z               Mass
    ------------   -----------------  -----------------  -----------------  -----------------
         C           -0.687859396135     0.973954998767    -0.001459613219    12.000000000000
         C            0.683160603865     0.977128998767    -0.001449613219    12.000000000000
         N            1.074306603865    -0.342199001233    -0.001473613219    14.003074004430
         C            0.002782603865    -1.146501001233    -0.001442613219    12.000000000000
         N           -1.072646396135    -0.347257001233    -0.001468613219    14.003074004430
         H           -2.034539396135    -0.681539001233    -0.001476613219     1.007825032230
         H            2.037851603865    -0.671907001233    -0.001496613219     1.007825032230
         H           -1.398827396135     1.786535998767    -0.001465613219     1.007825032230
         H            1.390108603865     1.793202998767    -0.001435613219     1.007825032230
         H            0.005154803865    -2.226781701233     0.098571386781     1.007825032230

  Basis Set: AUG-CC-PVTZ
    Blend: AUG-CC-PVTZ
  Basis Set: (AUG-CC-PVTZ AUX)
    Blend: AUG-CC-PVTZ-JKFIT
	 Reference Energy          =    -225.2763060905126054 [Eh]
	 Singles Energy            =      -0.0000000000000000 [Eh]
	 Same-Spin Energy          =      -0.2361620054611335 [Eh]
	 Opposite-Spin Energy      =      -0.7377376457198446 [Eh]
	 Correlation Energy        =      -0.9738996511809781 [Eh]
	 Total Energy              =    -226.2502057416935770 [Eh]

	 ================> DF-SCS-MP2 Energies <==================
	-----------------------------------------------------------
	 SCS Same-Spin Scale       =       0.3333333333333333 [-]
	 SCS Opposite-Spin Scale   =       1.2000000000000000 [-]
	 SCS Same-Spin Energy      =      -0.0787206684870445 [Eh]
	 SCS Opposite-Spin Energy  =      -0.8852851748638134 [Eh]
	 SCS Correlation Energy    =      -0.9640058433508579 [Eh]
	 SCS Total Energy          =    -226.2403119338634667 [Eh]
	-----------------------------------------------------------

  Dipole Moment: [D]
     X:     0.0031      Y:    -1.2624      Z:     0.0905     Total:     1.2657

*** Psi4 exiting successfully. Buy a developer a beer!
