                               Psi4 1.3.2 release

  ==> Input File <==

--------------------------------------------------------------------------
#psi4
#
memory 32 gb

molecule  {
1 1
  C       -0.6878560     0.9739330     0.0000000
  C        0.6831640     0.9771070     0.0000100
  N        1.0743100    -0.3422210    -0.0000140
  C        0.0027860    -1.1465230     0.0000170
  N       -1.0726430    -0.3472790    -0.0000090
  H       -2.0345360    -0.6815610    -0.0000170
  H        2.0378550    -0.6719290    -0.0000370
  H       -1.3988240     1.7865140    -0.0000060
  H        1.3901120     1.7931810     0.0000240
  H        0.0051587    -2.2267992     0.3000310
units angstrom
no_reorient  #important for SAPT in psi4, default
symmetry c1  #important for SAPT in psi4, default
}

set PROPERTIES_ORIGIN ["COM"]
properties('MP2/aug-cc-pvtz', properties = ['dipole'])
--------------------------------------------------------------------------

    Molecular point group: c1
  Charge       = 1
  Multiplicity = 1
  Basis Set: AUG-CC-PVTZ
    Blend: AUG-CC-PVTZ
  Basis Set: (AUG-CC-PVTZ AUX)
    Blend: AUG-CC-PVTZ-JKFIT

    Orbital Energies [Eh]
    ---------------------

    Doubly Occupied:

       1A    -15.852561     2A    -15.852516     3A    -11.556342
       4A    -11.478406     5A    -11.476986     6A     -1.593361
       7A     -1.431733     8A     -1.244844     9A     -1.096413
      10A     -1.046127    11A     -0.984602    12A     -0.895595
      13A     -0.848940    14A     -0.819065    15A     -0.817543
      16A     -0.804548    17A     -0.666294    18A     -0.543615

  @DF-RHF Final Energy:  -225.27090200078140

   => Energetics <=

    Nuclear Repulsion Energy =            172.5738590387534543
    One-Electron Energy =                -637.6705397572222864
    Two-Electron Energy =                 239.8257787176874558
    Total Energy =                       -225.2709020007814047
  Basis Set: (AUG-CC-PVTZ AUX)
    Blend: AUG-CC-PVTZ-RI
    Molecular point group: c1

    Geometry (in Angstrom), charge = 1, multiplicity = 1:

       Center              X                  Y                   Z               Mass
    ------------   -----------------  -----------------  -----------------  -----------------
         C           -0.687859403433     0.973954933083    -0.004378929736    12.000000000000
         C            0.683160596567     0.977128933083    -0.004368929736    12.000000000000
         N            1.074306596567    -0.342199066917    -0.004392929736    14.003074004430
         C            0.002782596567    -1.146501066917    -0.004361929736    12.000000000000
         N           -1.072646403433    -0.347257066917    -0.004387929736    14.003074004430
         H           -2.034539403433    -0.681539066917    -0.004395929736     1.007825032230
         H            2.037851596567    -0.671907066917    -0.004415929736     1.007825032230
         H           -1.398827403433     1.786535933083    -0.004384929736     1.007825032230
         H            1.390108596567     1.793202933083    -0.004354929736     1.007825032230
         H            0.005155296567    -2.226777266917     0.295652070264     1.007825032230

  Basis Set: AUG-CC-PVTZ
    Blend: AUG-CC-PVTZ
  Basis Set: (AUG-CC-PVTZ AUX)
    Blend: AUG-CC-PVTZ-JKFIT
	 Reference Energy          =    -225.2709020007814047 [Eh]
	 Singles Energy            =      -0.0000000000000000 [Eh]
	 Same-Spin Energy          =      -0.2365979037446427 [Eh]
	 Opposite-Spin Energy      =      -0.7385864157483136 [Eh]
	 Correlation Energy        =      -0.9751843194929564 [Eh]
	 Total Energy              =    -226.2460863202743724 [Eh]

	 ================> DF-SCS-MP2 Energies <==================
	-----------------------------------------------------------
	 SCS Same-Spin Scale       =       0.3333333333333333 [-]
	 SCS Opposite-Spin Scale   =       1.2000000000000000 [-]
	 SCS Same-Spin Energy      =      -0.0788659679148809 [Eh]
	 SCS Opposite-Spin Energy  =      -0.8863036988979763 [Eh]
	 SCS Correlation Energy    =      -0.9651696668128572 [Eh]
	 SCS Total Energy          =    -226.2360716675942740 [Eh]
	-----------------------------------------------------------

  Dipole Moment: [D]
     X:     0.0030      Y:    -1.2039      Z:     0.2728     Total:     1.2345

*** Psi4 exiting successfully. Buy a developer a beer!
