                               Psi4 1.3.2 release

  ==> Input File <==

--------------------------------------------------------------------------
#psi4
#
memory 32 gb

molecule  {
1 1
  C       -0.6878560     0.9739330     0.0000000
  C        0.6831640     0.9771070     0.0000100
  N        1.0743100    -0.3422210    -0.0000140
  C        0.0027860    -1.1465230     0.0000170
  N       -1.0726430    -0.3472790    -0.0000090
  H       -2.0345360    -0.6815610    -0.0000170
  H        2.0378550    -0.6719290    -0.0000370
  H       -1.3988214     1.7865148    -0.3000060
  H        1.3901120     1.7931810     0.0000240
  H        0.0051580    -2.2268060     0.0000310
units angstrom
no_reorient  #important for SAPT in psi4, default
symmetry c1  #important for SAPT in psi4, default
}

set PROPERTIES_ORIGIN ["COM"]
properties('MP2/aug-cc-pvtz', properties = ['dipole'])
--------------------------------------------------------------------------

    Molecular point group: c1
  Charge       = 1
  Multiplicity = 1
  Basis Set: AUG-CC-PVTZ
    Blend: AUG-CC-PVTZ
  Basis Set: (AUG-CC-PVTZ AUX)
    Blend: AUG-CC-PVTZ-JKFIT

    Orbital Energies [Eh]
    ---------------------

    Doubly Occupied:

       1A    -15.852892     2A    -15.852132     3A    -11.555345
       4A    -11.479383     5A    -11.477700     6A     -1.593685
       7A     -1.431804     8A     -1.245515     9A     -1.097227
      10A     -1.043761    11A     -0.990259    12A     -0.895731
      13A     -0.844288    14A     -0.836002    15A     -0.812481
      16A     -0.794680    17A     -0.666182    18A     -0.543446

  @DF-RHF Final Energy:  -225.27108953666215

   => Energetics <=

    Nuclear Repulsion Energy =            172.5764891896794211
    One-Electron Energy =                -637.6701328947590355
    Two-Electron Energy =                 239.8225541684174686
    Total Energy =                       -225.2710895366621457
  Basis Set: (AUG-CC-PVTZ AUX)
    Blend: AUG-CC-PVTZ-RI
    Molecular point group: c1

    Geometry (in Angstrom), charge = 1, multiplicity = 1:

       Center              X                  Y                   Z               Mass
    ------------   -----------------  -----------------  -----------------  -----------------
         C           -0.687859431166     0.973955020662     0.004379019817    12.000000000000
         C            0.683160568834     0.977129020662     0.004389019817    12.000000000000
         N            1.074306568834    -0.342198979338     0.004365019817    14.003074004430
         C            0.002782568834    -1.146500979338     0.004396019817    12.000000000000
         N           -1.072646431166    -0.347256979338     0.004370019817    14.003074004430
         H           -2.034539431166    -0.681538979338     0.004362019817     1.007825032230
         H            2.037851568834    -0.671906979338     0.004342019817     1.007825032230
         H           -1.398824831166     1.786536820662    -0.295626980183     1.007825032230
         H            1.390108568834     1.793203020662     0.004403019817     1.007825032230
         H            0.005154568834    -2.226783979338     0.004410019817     1.007825032230

  Basis Set: AUG-CC-PVTZ
    Blend: AUG-CC-PVTZ
  Basis Set: (AUG-CC-PVTZ AUX)
    Blend: AUG-CC-PVTZ-JKFIT
	 Reference Energy          =    -225.2710895366621457 [Eh]
	 Singles Energy            =      -0.0000000000000000 [Eh]
	 Same-Spin Energy          =      -0.2363848231550728 [Eh]
	 Opposite-Spin Energy      =      -0.7383185187236174 [Eh]
	 Correlation Energy        =      -0.9747033418786902 [Eh]
	 Total Energy              =    -226.2457928785408399 [Eh]

	 ================> DF-SCS-MP2 Energies <==================
	-----------------------------------------------------------
	 SCS Same-Spin Scale       =       0.3333333333333333 [-]
	 SCS Opposite-Spin Scale   =       1.2000000000000000 [-]
	 SCS Same-Spin Energy      =      -0.0787949410516909 [Eh]
	 SCS Opposite-Spin Energy  =      -0.8859822224683409 [Eh]
	 SCS Correlation Energy    =      -0.9647771635200318 [Eh]
	 SCS Total Energy          =    -226.2358667001821857 [Eh]
	-----------------------------------------------------------

  Dipole Moment: [D]
     X:     0.0356      Y:    -1.2946      Z:    -0.2541     Total:     1.3198

*** Psi4 exiting successfully. Buy a developer a beer!
