                               Psi4 1.3.2 release

  ==> Input File <==

--------------------------------------------------------------------------
#psi4
#
memory 32 gb

molecule  {
1 1
  C       -0.6878560     0.9739330     0.0000000
  C        0.6831640     0.9771070     0.0000100
  N        1.0743100    -0.3422210    -0.0000140
  C        0.0027860    -1.1465230     0.0000170
  N       -1.0726430    -0.3472790    -0.0000090
  H       -2.0345360    -0.6815610    -0.0000170
  H        2.0378550    -0.6719290    -0.0000370
  H       -1.3988240     1.7865140    -0.0000060
  H        1.3901120     1.7931810     0.0000240
  H        0.0051581    -2.2268049     0.0500310
units angstrom
no_reorient  #important for SAPT in psi4, default
symmetry c1  #important for SAPT in psi4, default
}

set PROPERTIES_ORIGIN ["COM"]
properties('MP2/aug-cc-pvtz', properties = ['dipole'])
--------------------------------------------------------------------------

    Molecular point group: c1
  Charge       = 1
  Multiplicity = 1
  Basis Set: AUG-CC-PVTZ
    Blend: AUG-CC-PVTZ
  Basis Set: (AUG-CC-PVTZ AUX)
    Blend: AUG-CC-PVTZ-JKFIT

    Orbital Energies [Eh]
    ---------------------

    Doubly Occupied:

       1A    -15.852532     2A    -15.852487     3A    -11.554869
       4A    -11.477670     5A    -11.476249     6A     -1.593460
       7A     -1.431773     8A     -1.246057     9A     -1.097128
      10A     -1.046095    11A     -0.992301    12A     -0.895679
      13A     -0.842394    14A     -0.835705    15A     -0.817270
      16A     -0.804121    17A     -0.666488    18A     -0.543559

  @DF-RHF Final Energy:  -225.27675231328777

   => Energetics <=

    Nuclear Repulsion Energy =            172.7204740570341244
    One-Electron Energy =                -637.9427833463074649
    Two-Electron Energy =                 239.9455569759855393
    Total Energy =                       -225.2767523132877727
  Basis Set: (AUG-CC-PVTZ AUX)
    Blend: AUG-CC-PVTZ-RI
    Molecular point group: c1

    Geometry (in Angstrom), charge = 1, multiplicity = 1:

       Center              X                  Y                   Z               Mass
    ------------   -----------------  -----------------  -----------------  -----------------
         C           -0.687859394675     0.973955016283    -0.000729784089    12.000000000000
         C            0.683160605325     0.977129016283    -0.000719784089    12.000000000000
         N            1.074306605325    -0.342198983717    -0.000743784089    14.003074004430
         C            0.002782605325    -1.146500983717    -0.000712784089    12.000000000000
         N           -1.072646394675    -0.347256983717    -0.000738784089    14.003074004430
         H           -2.034539394675    -0.681538983717    -0.000746784089     1.007825032230
         H            2.037851605325    -0.671906983717    -0.000766784089     1.007825032230
         H           -1.398827394675     1.786536016283    -0.000735784089     1.007825032230
         H            1.390108605325     1.793203016283    -0.000705784089     1.007825032230
         H            0.005154705325    -2.226782883717     0.049301215911     1.007825032230

  Basis Set: AUG-CC-PVTZ
    Blend: AUG-CC-PVTZ
  Basis Set: (AUG-CC-PVTZ AUX)
    Blend: AUG-CC-PVTZ-JKFIT
	 Reference Energy          =    -225.2767523132877727 [Eh]
	 Singles Energy            =      -0.0000000000000000 [Eh]
	 Same-Spin Energy          =      -0.2361200080871691 [Eh]
	 Opposite-Spin Energy      =      -0.7376633957163083 [Eh]
	 Correlation Energy        =      -0.9737834038034774 [Eh]
	 Total Energy              =    -226.2505357170912532 [Eh]

	 ================> DF-SCS-MP2 Energies <==================
	-----------------------------------------------------------
	 SCS Same-Spin Scale       =       0.3333333333333333 [-]
	 SCS Opposite-Spin Scale   =       1.2000000000000000 [-]
	 SCS Same-Spin Energy      =      -0.0787066693623897 [Eh]
	 SCS Opposite-Spin Energy  =      -0.8851960748595700 [Eh]
	 SCS Correlation Energy    =      -0.9639027442219597 [Eh]
	 SCS Total Energy          =    -226.2406550575097413 [Eh]
	-----------------------------------------------------------

  Dipole Moment: [D]
     X:     0.0032      Y:    -1.2682      Z:     0.0452     Total:     1.2690

*** Psi4 exiting successfully. Buy a developer a beer!
