                               Psi4 1.3.2 release

  ==> Input File <==

--------------------------------------------------------------------------
#psi4
#
memory 32 gb

molecule  {
1 1
  C       -0.6878560     0.9739330     0.0000000
  C        0.6831640     0.9771070     0.0000100
  N        1.0743100    -0.3422210    -0.0000140
  C        0.0027860    -1.1465230     0.0000170
  N       -1.0726430    -0.3472790    -0.0000090
  H       -2.0345360    -0.6815610    -0.0000170
  H        2.0378606    -0.6719301     0.1999630
  H       -1.3988240     1.7865140    -0.0000060
  H        1.3901120     1.7931810     0.0000240
  H        0.0051580    -2.2268060     0.0000310
units angstrom
no_reorient  #important for SAPT in psi4, default
symmetry c1  #important for SAPT in psi4, default
}

set PROPERTIES_ORIGIN ["COM"]
properties('MP2/aug-cc-pvtz', properties = ['dipole'])
--------------------------------------------------------------------------

    Molecular point group: c1
  Charge       = 1
  Multiplicity = 1
  Basis Set: AUG-CC-PVTZ
    Blend: AUG-CC-PVTZ
  Basis Set: (AUG-CC-PVTZ AUX)
    Blend: AUG-CC-PVTZ-JKFIT

    Orbital Energies [Eh]
    ---------------------

    Doubly Occupied:

       1A    -15.852761     2A    -15.852685     3A    -11.554885
       4A    -11.477443     5A    -11.475987     6A     -1.592991
       7A     -1.430145     8A     -1.245762     9A     -1.093352
      10A     -1.045353    11A     -0.992041    12A     -0.893118
      13A     -0.841570    14A     -0.835429    15A     -0.817025
      16A     -0.802688    17A     -0.666234    18A     -0.543530

  @DF-RHF Final Energy:  -225.27450570079293

   => Energetics <=

    Nuclear Repulsion Energy =            172.6373256331822006
    One-Electron Energy =                -637.7976685047476622
    Two-Electron Energy =                 239.8858371707725610
    Total Energy =                       -225.2745057007929290
  Basis Set: (AUG-CC-PVTZ AUX)
    Blend: AUG-CC-PVTZ-RI
    Molecular point group: c1

    Geometry (in Angstrom), charge = 1, multiplicity = 1:

       Center              X                  Y                   Z               Mass
    ------------   -----------------  -----------------  -----------------  -----------------
         C           -0.687859474956     0.973955048396    -0.002919271477    12.000000000000
         C            0.683160525044     0.977129048396    -0.002909271477    12.000000000000
         N            1.074306525044    -0.342198951604    -0.002933271477    14.003074004430
         C            0.002782525044    -1.146500951604    -0.002902271477    12.000000000000
         N           -1.072646474956    -0.347256951604    -0.002928271477    14.003074004430
         H           -2.034539474956    -0.681538951604    -0.002936271477     1.007825032230
         H            2.037857125044    -0.671908051604     0.197043728523     1.007825032230
         H           -1.398827474956     1.786536048396    -0.002925271477     1.007825032230
         H            1.390108525044     1.793203048396    -0.002895271477     1.007825032230
         H            0.005154525044    -2.226783951604    -0.002888271477     1.007825032230

  Basis Set: AUG-CC-PVTZ
    Blend: AUG-CC-PVTZ
  Basis Set: (AUG-CC-PVTZ AUX)
    Blend: AUG-CC-PVTZ-JKFIT
	 Reference Energy          =    -225.2745057007929290 [Eh]
	 Singles Energy            =      -0.0000000000000000 [Eh]
	 Same-Spin Energy          =      -0.2362556846256713 [Eh]
	 Opposite-Spin Energy      =      -0.7380110717153243 [Eh]
	 Correlation Energy        =      -0.9742667563409957 [Eh]
	 Total Energy              =    -226.2487724571339243 [Eh]

	 ================> DF-SCS-MP2 Energies <==================
	-----------------------------------------------------------
	 SCS Same-Spin Scale       =       0.3333333333333333 [-]
	 SCS Opposite-Spin Scale   =       1.2000000000000000 [-]
	 SCS Same-Spin Energy      =      -0.0787518948752238 [Eh]
	 SCS Opposite-Spin Energy  =      -0.8856132860583892 [Eh]
	 SCS Correlation Energy    =      -0.9643651809336129 [Eh]
	 SCS Total Energy          =    -226.2388708817265410 [Eh]
	-----------------------------------------------------------

  Dipole Moment: [D]
     X:    -0.0065      Y:    -1.2694      Z:     0.2888     Total:     1.3018

*** Psi4 exiting successfully. Buy a developer a beer!
