                               Psi4 1.3.2 release

  ==> Input File <==

--------------------------------------------------------------------------
#psi4
#
memory 32 gb

molecule  {
1 1
  C       -0.6878560     0.9739330     0.0000000
  C        0.6831640     0.9771070     0.0000100
  N        1.0743100    -0.3422210    -0.0000140
  C        0.0027860    -1.1465230     0.0000170
  N       -1.0726430    -0.3472790    -0.0000090
  H       -2.0345360    -0.6815610    -0.0000170
  H        2.0378564    -0.6719293     0.0499630
  H       -1.3988240     1.7865140    -0.0000060
  H        1.3901120     1.7931810     0.0000240
  H        0.0051580    -2.2268060     0.0000310
units angstrom
no_reorient  #important for SAPT in psi4, default
symmetry c1  #important for SAPT in psi4, default
}

set PROPERTIES_ORIGIN ["COM"]
properties('MP2/aug-cc-pvtz', properties = ['dipole'])
--------------------------------------------------------------------------

    Molecular point group: c1
  Charge       = 1
  Multiplicity = 1
  Basis Set: AUG-CC-PVTZ
    Blend: AUG-CC-PVTZ
  Basis Set: (AUG-CC-PVTZ AUX)
    Blend: AUG-CC-PVTZ-JKFIT

    Orbital Energies [Eh]
    ---------------------

    Doubly Occupied:

       1A    -15.852547     2A    -15.852499     3A    -11.554829
       4A    -11.477634     5A    -11.476212     6A     -1.593432
       7A     -1.431669     8A     -1.246074     9A     -1.096902
      10A     -1.046048    11A     -0.992511    12A     -0.895522
      13A     -0.841541    14A     -0.836757    15A     -0.817247
      16A     -0.804020    17A     -0.666478    18A     -0.543555

  @DF-RHF Final Energy:  -225.27676247969634

   => Energetics <=

    Nuclear Repulsion Energy =            172.7192549252247602
    One-Electron Energy =                -637.9410820636607014
    Two-Electron Energy =                 239.9450646587396250
    Total Energy =                       -225.2767624796963446
  Basis Set: (AUG-CC-PVTZ AUX)
    Blend: AUG-CC-PVTZ-RI
    Molecular point group: c1

    Geometry (in Angstrom), charge = 1, multiplicity = 1:

       Center              X                  Y                   Z               Mass
    ------------   -----------------  -----------------  -----------------  -----------------
         C           -0.687859413651     0.973955036718    -0.000729784089    12.000000000000
         C            0.683160586349     0.977129036718    -0.000719784089    12.000000000000
         N            1.074306586349    -0.342198963282    -0.000743784089    14.003074004430
         C            0.002782586349    -1.146500963282    -0.000712784089    12.000000000000
         N           -1.072646413651    -0.347256963282    -0.000738784089    14.003074004430
         H           -2.034539413651    -0.681538963282    -0.000746784089     1.007825032230
         H            2.037852986349    -0.671907263282     0.049233215911     1.007825032230
         H           -1.398827413651     1.786536036718    -0.000735784089     1.007825032230
         H            1.390108586349     1.793203036718    -0.000705784089     1.007825032230
         H            0.005154586349    -2.226783963282    -0.000698784089     1.007825032230

  Basis Set: AUG-CC-PVTZ
    Blend: AUG-CC-PVTZ
  Basis Set: (AUG-CC-PVTZ AUX)
    Blend: AUG-CC-PVTZ-JKFIT
	 Reference Energy          =    -225.2767624796963446 [Eh]
	 Singles Energy            =      -0.0000000000000000 [Eh]
	 Same-Spin Energy          =      -0.2361153712070733 [Eh]
	 Opposite-Spin Energy      =      -0.7376617489982482 [Eh]
	 Correlation Energy        =      -0.9737771202053216 [Eh]
	 Total Energy              =    -226.2505395999016571 [Eh]

	 ================> DF-SCS-MP2 Energies <==================
	-----------------------------------------------------------
	 SCS Same-Spin Scale       =       0.3333333333333333 [-]
	 SCS Opposite-Spin Scale   =       1.2000000000000000 [-]
	 SCS Same-Spin Energy      =      -0.0787051237356911 [Eh]
	 SCS Opposite-Spin Energy  =      -0.8851940987978978 [Eh]
	 SCS Correlation Energy    =      -0.9638992225335890 [Eh]
	 SCS Total Energy          =    -226.2406617022299429 [Eh]
	-----------------------------------------------------------

  Dipole Moment: [D]
     X:     0.0025      Y:    -1.2701      Z:     0.0720     Total:     1.2721

*** Psi4 exiting successfully. Buy a developer a beer!
