                               Psi4 1.3.2 release

  ==> Input File <==

--------------------------------------------------------------------------
#psi4
#
memory 32 gb

molecule  {
0 1
  O        1.8620410    -0.7430760    -0.0482260
  O       -0.4607810     1.6104540    -0.2729240
  O       -2.1158920    -0.5489690    -0.2415960
  C        0.0351110     0.3306280     0.0450800
  C        1.3621440     0.3258420     0.8009740
  C        0.8265300    -0.4397330    -1.0269400
  C       -1.0393340    -0.5046660     0.7032500
  H        1.9169805     1.2658778     0.6895160
  H        1.3660090     0.0484500     1.8611560
  H        0.3876870    -1.3437740    -1.4598530
  H        1.1920660     0.2306130    -1.8145760
  H       -1.3510300    -0.0166450     1.6371240
  H       -0.6508050    -1.5058130     0.9301150
  H       -1.3576780     1.4570120    -0.6282440
  H       -2.8860090    -0.9542290     0.1902110
units angstrom
no_reorient  #important for SAPT in psi4, default
symmetry c1  #important for SAPT in psi4, default
}

set PROPERTIES_ORIGIN ["COM"]
properties('MP2/aug-cc-pvtz', properties = ['dipole'])
--------------------------------------------------------------------------

    Molecular point group: c1
  Charge       = 0
  Multiplicity = 1
  Basis Set: AUG-CC-PVTZ
    Blend: AUG-CC-PVTZ
  Basis Set: (AUG-CC-PVTZ AUX)
    Blend: AUG-CC-PVTZ-JKFIT

    Orbital Energies [Eh]
    ---------------------

    Doubly Occupied:

       1A    -20.584629     2A    -20.565135     3A    -20.555436
       4A    -11.294166     5A    -11.293450     6A    -11.281034
       7A    -11.276912     8A     -1.399615     9A     -1.375417
      10A     -1.354213    11A     -1.037107    12A     -0.937225
      13A     -0.918389    14A     -0.760645    15A     -0.730960
      16A     -0.705603    17A     -0.676831    18A     -0.658905
      19A     -0.620280    20A     -0.598347    21A     -0.571182
      22A     -0.548466    23A     -0.543200    24A     -0.514743
      25A     -0.476243    26A     -0.472027    27A     -0.435776
      28A     -0.415648

  @DF-RHF Final Energy:  -380.80650206017208

   => Energetics <=

    Nuclear Repulsion Energy =            335.5841274403217085
    One-Electron Energy =               -1187.5780920858162517
    Two-Electron Energy =                 471.1874625853224643
    Total Energy =                       -380.8065020601720789
  Basis Set: (AUG-CC-PVTZ AUX)
    Blend: AUG-CC-PVTZ-RI
    Molecular point group: c1

    Geometry (in Angstrom), charge = 0, multiplicity = 1:

       Center              X                  Y                   Z               Mass
    ------------   -----------------  -----------------  -----------------  -----------------
         O            1.848688094232    -0.750888440798    -0.035575417230    15.994914619570
         O           -0.474133905768     1.602641559202    -0.260273417230    15.994914619570
         O           -2.129244905768    -0.556781440798    -0.228945417230    15.994914619570
         C            0.021758094232     0.322815559202     0.057730582770    12.000000000000
         C            1.348791094232     0.318029559202     0.813624582770    12.000000000000
         C            0.813177094232    -0.447545440798    -1.014289417230    12.000000000000
         C           -1.052686905768    -0.512478440798     0.715900582770    12.000000000000
         H            1.903627594232     1.258065359202     0.702166582770     1.007825032230
         H            1.352656094232     0.040637559202     1.873806582770     1.007825032230
         H            0.374334094232    -1.351586440798    -1.447202417230     1.007825032230
         H            1.178713094232     0.222800559202    -1.801925417230     1.007825032230
         H           -1.364382905768    -0.024457440798     1.649774582770     1.007825032230
         H           -0.664157905768    -1.513625440798     0.942765582770     1.007825032230
         H           -1.371030905768     1.449199559202    -0.615593417230     1.007825032230
         H           -2.899361905768    -0.962041440798     0.202861582770     1.007825032230

  Basis Set: AUG-CC-PVTZ
    Blend: AUG-CC-PVTZ
  Basis Set: (AUG-CC-PVTZ AUX)
    Blend: AUG-CC-PVTZ-JKFIT
	 Reference Energy          =    -380.8065020601720789 [Eh]
	 Singles Energy            =      -0.0000000000000000 [Eh]
	 Same-Spin Energy          =      -0.3697940765444576 [Eh]
	 Opposite-Spin Energy      =      -1.1726463297836771 [Eh]
	 Correlation Energy        =      -1.5424404063281347 [Eh]
	 Total Energy              =    -382.3489424665002048 [Eh]

	 ================> DF-SCS-MP2 Energies <==================
	-----------------------------------------------------------
	 SCS Same-Spin Scale       =       0.3333333333333333 [-]
	 SCS Opposite-Spin Scale   =       1.2000000000000000 [-]
	 SCS Same-Spin Energy      =      -0.1232646921814859 [Eh]
	 SCS Opposite-Spin Energy  =      -1.4071755957404124 [Eh]
	 SCS Correlation Energy    =      -1.5304402879218983 [Eh]
	 SCS Total Energy          =    -382.3369423480939986 [Eh]
	-----------------------------------------------------------

  Dipole Moment: [D]
     X:    -2.5566      Y:    -0.8192      Z:     1.2315     Total:     2.9537

*** Psi4 exiting successfully. Buy a developer a beer!
