                               Psi4 1.4a3.dev225

  ==> Input File <==

--------------------------------------------------------------------------
#psi4
#
memory 32 gb

molecule  {
0 1
  O        1.8620410    -0.7430760    -0.0482260
  O       -0.4607810     1.6104540    -0.2729240
  O       -2.1158920    -0.5489690    -0.2415960
  C        0.0351110     0.3306280     0.0450800
  C        1.3621440     0.3258420     0.8009740
  C        0.8265300    -0.4397330    -1.0269400
  C       -1.0393340    -0.5046660     0.7032500
  H        1.9350813     1.3074692     0.6450619
  H        1.3660090     0.0484500     1.8611560
  H        0.3876870    -1.3437740    -1.4598530
  H        1.1920660     0.2306130    -1.8145760
  H       -1.3510300    -0.0166450     1.6371240
  H       -0.6508050    -1.5058130     0.9301150
  H       -1.3576780     1.4570120    -0.6282440
  H       -2.8860090    -0.9542290     0.1902110
units angstrom
no_reorient  #important for SAPT in psi4, default
symmetry c1  #important for SAPT in psi4, default
}

set PROPERTIES_ORIGIN ["COM"]
properties('MP2/aug-cc-pvtz', properties = ['dipole'])
--------------------------------------------------------------------------

    Molecular point group: c1
  Charge       = 0
  Multiplicity = 1
  Basis Set: AUG-CC-PVTZ
    Blend: AUG-CC-PVTZ
  Basis Set: (AUG-CC-PVTZ AUX)
    Blend: AUG-CC-PVTZ-JKFIT

    Orbital Energies [Eh]
    ---------------------

    Doubly Occupied:

       1A    -20.584860     2A    -20.565203     3A    -20.555918
       4A    -11.294419     5A    -11.293730     6A    -11.286787
       7A    -11.277128     8A     -1.399836     9A     -1.375742
      10A     -1.354394    11A     -1.037271    12A     -0.934595
      13A     -0.917511    14A     -0.757823    15A     -0.731088
      16A     -0.703707    17A     -0.677421    18A     -0.659208
      19A     -0.620544    20A     -0.596935    21A     -0.567819
      22A     -0.548163    23A     -0.542861    24A     -0.514897
      25A     -0.476551    26A     -0.472425    27A     -0.434538
      28A     -0.415189

  @DF-RHF Final Energy:  -380.80430284502319

   => Energetics <=

    Nuclear Repulsion Energy =            335.3935944836003955
    One-Electron Energy =               -1187.2026718482027263
    Two-Electron Energy =                 471.0047745195791435
    Total Energy =                       -380.8043028450231873
  Basis Set: (AUG-CC-PVTZ AUX)
    Blend: AUG-CC-PVTZ-RI
    Molecular point group: c1

    Geometry (in Angstrom), charge = 0, multiplicity = 1:

       Center              X                  Y                   Z               Mass
    ------------   -----------------  -----------------  -----------------  -----------------
         O            1.848512765976    -0.751291304075    -0.035144825222    15.994914619570
         O           -0.474309234024     1.602238695925    -0.259842825222    15.994914619570
         O           -2.129420234024    -0.557184304075    -0.228514825222    15.994914619570
         C            0.021582765976     0.322412695925     0.058161174778    12.000000000000
         C            1.348615765976     0.317626695925     0.814055174778    12.000000000000
         C            0.813001765976    -0.447948304075    -1.013858825222    12.000000000000
         C           -1.052862234024    -0.512881304075     0.716331174778    12.000000000000
         H            1.921553065976     1.299253895925     0.658143074778     1.007825032230
         H            1.352480765976     0.040234695925     1.874237174778     1.007825032230
         H            0.374158765976    -1.351989304075    -1.446771825222     1.007825032230
         H            1.178537765976     0.222397695925    -1.801494825222     1.007825032230
         H           -1.364558234024    -0.024860304075     1.650205174778     1.007825032230
         H           -0.664333234024    -1.514028304075     0.943196174778     1.007825032230
         H           -1.371206234024     1.448796695925    -0.615162825222     1.007825032230
         H           -2.899537234024    -0.962444304075     0.203292174778     1.007825032230

  Basis Set: AUG-CC-PVTZ
    Blend: AUG-CC-PVTZ
  Basis Set: (AUG-CC-PVTZ AUX)
    Blend: AUG-CC-PVTZ-JKFIT
	 Reference Energy          =    -380.8043028450231873 [Eh]
	 Singles Energy            =      -0.0000000000000000 [Eh]
	 Same-Spin Energy          =      -0.3699320386136180 [Eh]
	 Opposite-Spin Energy      =      -1.1731562448301094 [Eh]
	 Correlation Energy        =      -1.5430882834437274 [Eh]
	 Total Energy              =    -382.3473911284669384 [Eh]

	 ================> DF-SCS-MP2 Energies <==================
	-----------------------------------------------------------
	 SCS Same-Spin Scale       =       0.3333333333333333 [-]
	 SCS Opposite-Spin Scale   =       1.2000000000000000 [-]
	 SCS Same-Spin Energy      =      -0.1233106795378727 [Eh]
	 SCS Opposite-Spin Energy  =      -1.4077874937961312 [Eh]
	 SCS Correlation Energy    =      -1.5310981733340039 [Eh]
	 SCS Total Energy          =    -382.3354010183571745 [Eh]
	-----------------------------------------------------------

  Dipole Moment: [D]
     X:    -2.5784      Y:    -0.8541      Z:     1.2183     Total:     2.9768

*** Psi4 exiting successfully. Buy a developer a beer!
