                               Psi4 1.4a3.dev225

  ==> Input File <==

--------------------------------------------------------------------------
#psi4
#
memory 32 gb

molecule  {
0 1
  O        1.8620410    -0.7430760    -0.0482260
  O       -0.4607810     1.6104540    -0.2729240
  O       -2.1158920    -0.5489690    -0.2415960
  C        0.0351110     0.3306280     0.0450800
  C        1.3793364     0.2890799     0.7717684
  C        0.8265300    -0.4397330    -1.0269400
  C       -1.0393340    -0.5046660     0.7032500
  H        1.9101110     1.2646870     0.6518570
  H        1.3660090     0.0484500     1.8611560
  H        0.3876870    -1.3437740    -1.4598530
  H        1.1920660     0.2306130    -1.8145760
  H       -1.3510300    -0.0166450     1.6371240
  H       -0.6508050    -1.5058130     0.9301150
  H       -1.3576780     1.4570120    -0.6282440
  H       -2.8860090    -0.9542290     0.1902110
units angstrom
no_reorient  #important for SAPT in psi4, default
symmetry c1  #important for SAPT in psi4, default
}

set PROPERTIES_ORIGIN ["COM"]
properties('MP2/aug-cc-pvtz', properties = ['dipole'])
--------------------------------------------------------------------------

    Molecular point group: c1
  Charge       = 0
  Multiplicity = 1
  Basis Set: AUG-CC-PVTZ
    Blend: AUG-CC-PVTZ
  Basis Set: (AUG-CC-PVTZ AUX)
    Blend: AUG-CC-PVTZ-JKFIT

    Orbital Energies [Eh]
    ---------------------

    Doubly Occupied:

       1A    -20.584406     2A    -20.565507     3A    -20.558533
       4A    -11.293520     5A    -11.292174     6A    -11.282084
       7A    -11.279605     8A     -1.407357     9A     -1.383505
      10A     -1.356725    11A     -1.037914    12A     -0.937719
      13A     -0.918196    14A     -0.756941    15A     -0.730783
      16A     -0.707864    17A     -0.679868    18A     -0.660367
      19A     -0.625485    20A     -0.602653    21A     -0.570841
      22A     -0.550446    23A     -0.544227    24A     -0.518502
      25A     -0.475693    26A     -0.470377    27A     -0.431936
      28A     -0.415133

  @DF-RHF Final Energy:  -380.80550101134787

   => Energetics <=

    Nuclear Repulsion Energy =            336.2362362427521134
    One-Electron Energy =               -1188.8067481728901384
    Two-Electron Energy =                 471.7650109187902103
    Total Energy =                       -380.8055010113478716
  Basis Set: (AUG-CC-PVTZ AUX)
    Blend: AUG-CC-PVTZ-RI
    Molecular point group: c1

    Geometry (in Angstrom), charge = 0, multiplicity = 1:

       Center              X                  Y                   Z               Mass
    ------------   -----------------  -----------------  -----------------  -----------------
         O            1.846771797880    -0.746637055798    -0.031842300482    15.994914619570
         O           -0.476050202120     1.606892944202    -0.256540300482    15.994914619570
         O           -2.131161202120    -0.552530055798    -0.225212300482    15.994914619570
         C            0.019841797880     0.327066944202     0.061463699518    12.000000000000
         C            1.364067197880     0.285518844202     0.788152099518    12.000000000000
         C            0.811260797880    -0.443294055798    -1.010556300482    12.000000000000
         C           -1.054603202120    -0.508227055798     0.719633699518    12.000000000000
         H            1.894841797880     1.261125944202     0.668240699518     1.007825032230
         H            1.350739797880     0.044888944202     1.877539699518     1.007825032230
         H            0.372417797880    -1.347335055798    -1.443469300482     1.007825032230
         H            1.176796797880     0.227051944202    -1.798192300482     1.007825032230
         H           -1.366299202120    -0.020206055798     1.653507699518     1.007825032230
         H           -0.666074202120    -1.509374055798     0.946498699518     1.007825032230
         H           -1.372947202120     1.453450944202    -0.611860300482     1.007825032230
         H           -2.901278202120    -0.957790055798     0.206594699518     1.007825032230

  Basis Set: AUG-CC-PVTZ
    Blend: AUG-CC-PVTZ
  Basis Set: (AUG-CC-PVTZ AUX)
    Blend: AUG-CC-PVTZ-JKFIT
	 Reference Energy          =    -380.8055010113478716 [Eh]
	 Singles Energy            =      -0.0000000000000000 [Eh]
	 Same-Spin Energy          =      -0.3697924630517542 [Eh]
	 Opposite-Spin Energy      =      -1.1718197040593834 [Eh]
	 Correlation Energy        =      -1.5416121671111376 [Eh]
	 Total Energy              =    -382.3471131784589829 [Eh]

	 ================> DF-SCS-MP2 Energies <==================
	-----------------------------------------------------------
	 SCS Same-Spin Scale       =       0.3333333333333333 [-]
	 SCS Opposite-Spin Scale   =       1.2000000000000000 [-]
	 SCS Same-Spin Energy      =      -0.1232641543505847 [Eh]
	 SCS Opposite-Spin Energy  =      -1.4061836448712601 [Eh]
	 SCS Correlation Energy    =      -1.5294477992218449 [Eh]
	 SCS Total Energy          =    -382.3349488105696992 [Eh]
	-----------------------------------------------------------

  Dipole Moment: [D]
     X:    -2.5486      Y:    -0.9167      Z:     1.1130     Total:     2.9282

*** Psi4 exiting successfully. Buy a developer a beer!
