                               Psi4 1.3.2 release

  ==> Input File <==

--------------------------------------------------------------------------
#psi4
#
memory 32 gb

molecule  {
0 1
  O        1.8620410    -0.7430760    -0.0482260
  O       -0.4607810     1.6104540    -0.2729240
  O       -2.1158920    -0.5489690    -0.2415960
  C        0.0351110     0.3306280     0.0450800
  C        1.3621440     0.3258420     0.8009740
  C        0.8265300    -0.4397330    -1.0269400
  C       -1.0393340    -0.5046660     0.7032500
  H        1.9231739     1.2659233     0.7273108
  H        1.3660090     0.0484500     1.8611560
  H        0.3876870    -1.3437740    -1.4598530
  H        1.1920660     0.2306130    -1.8145760
  H       -1.3510300    -0.0166450     1.6371240
  H       -0.6508050    -1.5058130     0.9301150
  H       -1.3576780     1.4570120    -0.6282440
  H       -2.8860090    -0.9542290     0.1902110
units angstrom
no_reorient  #important for SAPT in psi4, default
symmetry c1  #important for SAPT in psi4, default
}

set PROPERTIES_ORIGIN ["COM"]
properties('MP2/aug-cc-pvtz', properties = ['dipole'])
--------------------------------------------------------------------------

    Molecular point group: c1
  Charge       = 0
  Multiplicity = 1
  Basis Set: AUG-CC-PVTZ
    Blend: AUG-CC-PVTZ
  Basis Set: (AUG-CC-PVTZ AUX)
    Blend: AUG-CC-PVTZ-JKFIT

    Orbital Energies [Eh]
    ---------------------

    Doubly Occupied:

       1A    -20.584685     2A    -20.565092     3A    -20.555914
       4A    -11.294443     5A    -11.293597     6A    -11.280998
       7A    -11.277019     8A     -1.399636     9A     -1.375496
      10A     -1.354235    11A     -1.037149    12A     -0.937535
      13A     -0.918252    14A     -0.761483    15A     -0.731037
      16A     -0.705629    17A     -0.676602    18A     -0.658876
      19A     -0.620304    20A     -0.598020    21A     -0.571327
      22A     -0.547338    23A     -0.543407    24A     -0.514888
      25A     -0.476299    26A     -0.472013    27A     -0.436583
      28A     -0.415272

  @DF-RHF Final Energy:  -380.80603844512331

   => Energetics <=

    Nuclear Repulsion Energy =            335.5316258222571832
    One-Electron Energy =               -1187.4690699546454198
    Two-Electron Energy =                 471.1314056872649303
    Total Energy =                       -380.8060384451233062
  Basis Set: (AUG-CC-PVTZ AUX)
    Blend: AUG-CC-PVTZ-RI
    Molecular point group: c1

    Geometry (in Angstrom), charge = 0, multiplicity = 1:

       Center              X                  Y                   Z               Mass
    ------------   -----------------  -----------------  -----------------  -----------------
         O            1.848628103623    -0.750888881520    -0.035941505820    15.994914619570
         O           -0.474193896377     1.602641118480    -0.260639505820    15.994914619570
         O           -2.129304896377    -0.556781881520    -0.229311505820    15.994914619570
         C            0.021698103623     0.322815118480     0.057364494180    12.000000000000
         C            1.348731103623     0.318029118480     0.813258494180    12.000000000000
         C            0.813117103623    -0.447545881520    -1.014655505820    12.000000000000
         C           -1.052746896377    -0.512478881520     0.715534494180    12.000000000000
         H            1.909761003623     1.258110418480     0.739595294180     1.007825032230
         H            1.352596103623     0.040637118480     1.873440494180     1.007825032230
         H            0.374274103623    -1.351586881520    -1.447568505820     1.007825032230
         H            1.178653103623     0.222800118480    -1.802291505820     1.007825032230
         H           -1.364442896377    -0.024457881520     1.649408494180     1.007825032230
         H           -0.664217896377    -1.513625881520     0.942399494180     1.007825032230
         H           -1.371090896377     1.449199118480    -0.615959505820     1.007825032230
         H           -2.899421896377    -0.962041881520     0.202495494180     1.007825032230

  Basis Set: AUG-CC-PVTZ
    Blend: AUG-CC-PVTZ
  Basis Set: (AUG-CC-PVTZ AUX)
    Blend: AUG-CC-PVTZ-JKFIT
	 Reference Energy          =    -380.8060384451233062 [Eh]
	 Singles Energy            =      -0.0000000000000000 [Eh]
	 Same-Spin Energy          =      -0.3697742526727696 [Eh]
	 Opposite-Spin Energy      =      -1.1726240996022470 [Eh]
	 Correlation Energy        =      -1.5423983522750166 [Eh]
	 Total Energy              =    -382.3484367973983353 [Eh]

	 ================> DF-SCS-MP2 Energies <==================
	-----------------------------------------------------------
	 SCS Same-Spin Scale       =       0.3333333333333333 [-]
	 SCS Opposite-Spin Scale   =       1.2000000000000000 [-]
	 SCS Same-Spin Energy      =      -0.1232580842242565 [Eh]
	 SCS Opposite-Spin Energy  =      -1.4071489195226963 [Eh]
	 SCS Correlation Energy    =      -1.5304070037469528 [Eh]
	 SCS Total Energy          =    -382.3364454488702791 [Eh]
	-----------------------------------------------------------

  Dipole Moment: [D]
     X:    -2.5523      Y:    -0.8176      Z:     1.2359     Total:     2.9513

*** Psi4 exiting successfully. Buy a developer a beer!
