                               Psi4 1.3.2 release

  ==> Input File <==

--------------------------------------------------------------------------
#psi4
#
memory 32 gb

molecule  {
0 1
  O        1.8620410    -0.7430760    -0.0482260
  O       -0.4607810     1.6104540    -0.2729240
  O       -2.1158920    -0.5489690    -0.2415960
  C       -0.0000862     0.4214669     0.0225089
  C        1.3621440     0.3258420     0.8009740
  C        0.8265300    -0.4397330    -1.0269400
  C       -1.0393340    -0.5046660     0.7032500
  H        1.9101110     1.2646870     0.6518570
  H        1.3660090     0.0484500     1.8611560
  H        0.3876870    -1.3437740    -1.4598530
  H        1.1920660     0.2306130    -1.8145760
  H       -1.3510300    -0.0166450     1.6371240
  H       -0.6508050    -1.5058130     0.9301150
  H       -1.3576780     1.4570120    -0.6282440
  H       -2.8860090    -0.9542290     0.1902110
units angstrom
no_reorient  #important for SAPT in psi4, default
symmetry c1  #important for SAPT in psi4, default
}

set PROPERTIES_ORIGIN ["COM"]
properties('MP2/aug-cc-pvtz', properties = ['dipole'])
--------------------------------------------------------------------------

    Molecular point group: c1
  Charge       = 0
  Multiplicity = 1
  Basis Set: AUG-CC-PVTZ
    Blend: AUG-CC-PVTZ
  Basis Set: (AUG-CC-PVTZ AUX)
    Blend: AUG-CC-PVTZ-JKFIT

    Orbital Energies [Eh]
    ---------------------

    Doubly Occupied:

       1A    -20.582957     2A    -20.578137     3A    -20.553379
       4A    -11.296327     5A    -11.290981     6A    -11.279549
       7A    -11.274013     8A     -1.428901     9A     -1.374029
      10A     -1.365569    11A     -1.022165    12A     -0.928820
      13A     -0.911549    14A     -0.778144    15A     -0.736436
      16A     -0.702816    17A     -0.677475    18A     -0.661122
      19A     -0.632854    20A     -0.597138    21A     -0.572216
      22A     -0.555233    23A     -0.545687    24A     -0.527452
      25A     -0.475212    26A     -0.460909    27A     -0.419248
      28A     -0.400547

  @DF-RHF Final Energy:  -380.79583920682222

   => Energetics <=

    Nuclear Repulsion Energy =            335.4898983201495639
    One-Electron Energy =               -1187.3137425021486706
    Two-Electron Energy =                 471.0280049751768843
    Total Energy =                       -380.7958392068222224
  Basis Set: (AUG-CC-PVTZ AUX)
    Blend: AUG-CC-PVTZ-RI
    Molecular point group: c1

    Geometry (in Angstrom), charge = 0, multiplicity = 1:

       Center              X                  Y                   Z               Mass
    ------------   -----------------  -----------------  -----------------  -----------------
         O            1.852814001122    -0.761353548689    -0.032607471382    15.994914619570
         O           -0.470007998878     1.592176451311    -0.257305471382    15.994914619570
         O           -2.125118998878    -0.567246548689    -0.225977471382    15.994914619570
         C           -0.009313198878     0.403189351311     0.038127428618    12.000000000000
         C            1.352917001122     0.307564451311     0.816592528618    12.000000000000
         C            0.817303001122    -0.458010548689    -1.011321471382    12.000000000000
         C           -1.048560998878    -0.522943548689     0.718868528618    12.000000000000
         H            1.900884001122     1.246409451311     0.667475528618     1.007825032230
         H            1.356782001122     0.030172451311     1.876774528618     1.007825032230
         H            0.378460001122    -1.362051548689    -1.444234471382     1.007825032230
         H            1.182839001122     0.212335451311    -1.798957471382     1.007825032230
         H           -1.360256998878    -0.034922548689     1.652742528618     1.007825032230
         H           -0.660031998878    -1.524090548689     0.945733528618     1.007825032230
         H           -1.366904998878     1.438734451311    -0.612625471382     1.007825032230
         H           -2.895235998878    -0.972506548689     0.205829528618     1.007825032230

  Basis Set: AUG-CC-PVTZ
    Blend: AUG-CC-PVTZ
  Basis Set: (AUG-CC-PVTZ AUX)
    Blend: AUG-CC-PVTZ-JKFIT
	 Reference Energy          =    -380.7958392068222224 [Eh]
	 Singles Energy            =      -0.0000000000000000 [Eh]
	 Same-Spin Energy          =      -0.3701163708108006 [Eh]
	 Opposite-Spin Energy      =      -1.1722034384739115 [Eh]
	 Correlation Energy        =      -1.5423198092847121 [Eh]
	 Total Energy              =    -382.3381590161069425 [Eh]

	 ================> DF-SCS-MP2 Energies <==================
	-----------------------------------------------------------
	 SCS Same-Spin Scale       =       0.3333333333333333 [-]
	 SCS Opposite-Spin Scale   =       1.2000000000000000 [-]
	 SCS Same-Spin Energy      =      -0.1233721236036002 [Eh]
	 SCS Opposite-Spin Energy  =      -1.4066441261686937 [Eh]
	 SCS Correlation Energy    =      -1.5300162497722940 [Eh]
	 SCS Total Energy          =    -382.3258554565945246 [Eh]
	-----------------------------------------------------------

  Dipole Moment: [D]
     X:    -2.7900      Y:    -0.4549      Z:     1.1579     Total:     3.0548

*** Psi4 exiting successfully. Buy a developer a beer!
