                               Psi4 1.3.2 release

  ==> Input File <==

--------------------------------------------------------------------------
#psi4
#
memory 32 gb

molecule  {
0 1
  O        1.8620410    -0.7430760    -0.0482260
  O       -0.4607810     1.6104540    -0.2729240
  O       -2.1158920    -0.5489690    -0.2415960
  C        0.0351110     0.3306280     0.0450800
  C        1.3134812     0.3794283     0.8792283
  C        0.8265300    -0.4397330    -1.0269400
  C       -1.0393340    -0.5046660     0.7032500
  H        1.9101110     1.2646870     0.6518570
  H        1.3660090     0.0484500     1.8611560
  H        0.3876870    -1.3437740    -1.4598530
  H        1.1920660     0.2306130    -1.8145760
  H       -1.3510300    -0.0166450     1.6371240
  H       -0.6508050    -1.5058130     0.9301150
  H       -1.3576780     1.4570120    -0.6282440
  H       -2.8860090    -0.9542290     0.1902110
units angstrom
no_reorient  #important for SAPT in psi4, default
symmetry c1  #important for SAPT in psi4, default
}

set PROPERTIES_ORIGIN ["COM"]
properties('MP2/aug-cc-pvtz', properties = ['dipole'])
--------------------------------------------------------------------------

    Molecular point group: c1
  Charge       = 0
  Multiplicity = 1
  Basis Set: AUG-CC-PVTZ
    Blend: AUG-CC-PVTZ
  Basis Set: (AUG-CC-PVTZ AUX)
    Blend: AUG-CC-PVTZ-JKFIT

    Orbital Energies [Eh]
    ---------------------

    Doubly Occupied:

       1A    -20.584692     2A    -20.565164     3A    -20.547326
       4A    -11.297342     5A    -11.293763     6A    -11.282455
       7A    -11.272266     8A     -1.395907     9A     -1.364850
      10A     -1.337545    11A     -1.037329    12A     -0.939855
      13A     -0.915400    14A     -0.766804    15A     -0.731629
      16A     -0.701218    17A     -0.675744    18A     -0.656369
      19A     -0.613828    20A     -0.594807    21A     -0.573898
      22A     -0.551390    23A     -0.535124    24A     -0.504686
      25A     -0.477627    26A     -0.473701    27A     -0.434514
      28A     -0.413624

  @DF-RHF Final Energy:  -380.79550963349760

   => Energetics <=

    Nuclear Repulsion Energy =            334.5055366708569977
    One-Electron Energy =               -1185.5243705654866062
    Two-Electron Energy =                 470.2233242611319497
    Total Energy =                       -380.7955096334976020
  Basis Set: (AUG-CC-PVTZ AUX)
    Blend: AUG-CC-PVTZ-RI
    Molecular point group: c1

    Geometry (in Angstrom), charge = 0, multiplicity = 1:

       Center              X                  Y                   Z               Mass
    ------------   -----------------  -----------------  -----------------  -----------------
         O            1.854367017217    -0.757057127633    -0.044235877761    15.994914619570
         O           -0.468454982783     1.596472872367    -0.268933877761    15.994914619570
         O           -2.123565982783    -0.562950127633    -0.237605877761    15.994914619570
         C            0.027437017217     0.316646872367     0.049070122239    12.000000000000
         C            1.305807217217     0.365447172367     0.883218422239    12.000000000000
         C            0.818856017217    -0.453714127633    -1.022949877761    12.000000000000
         C           -1.047007982783    -0.518647127633     0.707240122239    12.000000000000
         H            1.902437017217     1.250705872367     0.655847122239     1.007825032230
         H            1.358335017217     0.034468872367     1.865146122239     1.007825032230
         H            0.380013017217    -1.357755127633    -1.455862877761     1.007825032230
         H            1.184392017217     0.216631872367    -1.810585877761     1.007825032230
         H           -1.358703982783    -0.030626127633     1.641114122239     1.007825032230
         H           -0.658478982783    -1.519794127633     0.934105122239     1.007825032230
         H           -1.365351982783     1.443030872367    -0.624253877761     1.007825032230
         H           -2.893682982783    -0.968210127633     0.194201122239     1.007825032230

  Basis Set: AUG-CC-PVTZ
    Blend: AUG-CC-PVTZ
  Basis Set: (AUG-CC-PVTZ AUX)
    Blend: AUG-CC-PVTZ-JKFIT
	 Reference Energy          =    -380.7955096334976020 [Eh]
	 Singles Energy            =      -0.0000000000000000 [Eh]
	 Same-Spin Energy          =      -0.3703714375397800 [Eh]
	 Opposite-Spin Energy      =      -1.1753683198958973 [Eh]
	 Correlation Energy        =      -1.5457397574356773 [Eh]
	 Total Energy              =    -382.3412493909332852 [Eh]

	 ================> DF-SCS-MP2 Energies <==================
	-----------------------------------------------------------
	 SCS Same-Spin Scale       =       0.3333333333333333 [-]
	 SCS Opposite-Spin Scale   =       1.2000000000000000 [-]
	 SCS Same-Spin Energy      =      -0.1234571458465933 [Eh]
	 SCS Opposite-Spin Energy  =      -1.4104419838750768 [Eh]
	 SCS Correlation Energy    =      -1.5338991297216702 [Eh]
	 SCS Total Energy          =    -382.3294087632192486 [Eh]
	-----------------------------------------------------------

  Dipole Moment: [D]
     X:    -2.6028      Y:    -0.6958      Z:     1.4306     Total:     3.0505

*** Psi4 exiting successfully. Buy a developer a beer!
