                               Psi4 1.3.2 release

  ==> Input File <==

--------------------------------------------------------------------------
#psi4
#
memory 32 gb

molecule  {
0 1
  O        1.8620410    -0.7430760    -0.0482260
  O       -0.4607810     1.6104540    -0.2729240
  O       -2.1158920    -0.5489690    -0.2415960
  C        0.0139933     0.3207419     0.0372726
  C        1.3621440     0.3258420     0.8009740
  C        0.8265300    -0.4397330    -1.0269400
  C       -1.0393340    -0.5046660     0.7032500
  H        1.9101110     1.2646870     0.6518570
  H        1.3660090     0.0484500     1.8611560
  H        0.3876870    -1.3437740    -1.4598530
  H        1.1920660     0.2306130    -1.8145760
  H       -1.3510300    -0.0166450     1.6371240
  H       -0.6508050    -1.5058130     0.9301150
  H       -1.3576780     1.4570120    -0.6282440
  H       -2.8860090    -0.9542290     0.1902110
units angstrom
no_reorient  #important for SAPT in psi4, default
symmetry c1  #important for SAPT in psi4, default
}

set PROPERTIES_ORIGIN ["COM"]
properties('MP2/aug-cc-pvtz', properties = ['dipole'])
--------------------------------------------------------------------------

    Molecular point group: c1
  Charge       = 0
  Multiplicity = 1
  Basis Set: AUG-CC-PVTZ
    Blend: AUG-CC-PVTZ
  Basis Set: (AUG-CC-PVTZ AUX)
    Blend: AUG-CC-PVTZ-JKFIT

    Orbital Energies [Eh]
    ---------------------

    Doubly Occupied:

       1A    -20.584619     2A    -20.565835     3A    -20.554674
       4A    -11.293747     5A    -11.293024     6A    -11.281304
       7A    -11.277248     8A     -1.399923     9A     -1.374832
      10A     -1.354455    11A     -1.038134    12A     -0.935594
      13A     -0.917948    14A     -0.759885    15A     -0.732312
      16A     -0.704531    17A     -0.676320    18A     -0.658759
      19A     -0.619377    20A     -0.599429    21A     -0.571275
      22A     -0.549334    23A     -0.543773    24A     -0.517261
      25A     -0.475885    26A     -0.469353    27A     -0.432458
      28A     -0.417790

  @DF-RHF Final Energy:  -380.80563253344616

   => Energetics <=

    Nuclear Repulsion Energy =            335.6464286134300892
    One-Electron Energy =               -1187.7059639882015745
    Two-Electron Energy =                 471.2539028413253277
    Total Energy =                       -380.8056325334461576
  Basis Set: (AUG-CC-PVTZ AUX)
    Blend: AUG-CC-PVTZ-RI
    Molecular point group: c1

    Geometry (in Angstrom), charge = 0, multiplicity = 1:

       Center              X                  Y                   Z               Mass
    ------------   -----------------  -----------------  -----------------  -----------------
         O            1.851190182644    -0.749736721654    -0.034310200092    15.994914619570
         O           -0.471631817356     1.603793278346    -0.259008200092    15.994914619570
         O           -2.126742817356    -0.555629721654    -0.227680200092    15.994914619570
         C            0.003142482644     0.314081178346     0.051188399908    12.000000000000
         C            1.351293182644     0.319181278346     0.814889799908    12.000000000000
         C            0.815679182644    -0.446393721654    -1.013024200092    12.000000000000
         C           -1.050184817356    -0.511326721654     0.717165799908    12.000000000000
         H            1.899260182644     1.258026278346     0.665772799908     1.007825032230
         H            1.355158182644     0.041789278346     1.875071799908     1.007825032230
         H            0.376836182644    -1.350434721654    -1.445937200092     1.007825032230
         H            1.181215182644     0.223952278346    -1.800660200092     1.007825032230
         H           -1.361880817356    -0.023305721654     1.651039799908     1.007825032230
         H           -0.661655817356    -1.512473721654     0.944030799908     1.007825032230
         H           -1.368528817356     1.450351278346    -0.614328200092     1.007825032230
         H           -2.896859817356    -0.960889721654     0.204126799908     1.007825032230

  Basis Set: AUG-CC-PVTZ
    Blend: AUG-CC-PVTZ
  Basis Set: (AUG-CC-PVTZ AUX)
    Blend: AUG-CC-PVTZ-JKFIT
	 Reference Energy          =    -380.8056325334461576 [Eh]
	 Singles Energy            =      -0.0000000000000000 [Eh]
	 Same-Spin Energy          =      -0.3699516115105265 [Eh]
	 Opposite-Spin Energy      =      -1.1729826483423136 [Eh]
	 Correlation Energy        =      -1.5429342598528399 [Eh]
	 Total Energy              =    -382.3485667932989713 [Eh]

	 ================> DF-SCS-MP2 Energies <==================
	-----------------------------------------------------------
	 SCS Same-Spin Scale       =       0.3333333333333333 [-]
	 SCS Opposite-Spin Scale   =       1.2000000000000000 [-]
	 SCS Same-Spin Energy      =      -0.1233172038368422 [Eh]
	 SCS Opposite-Spin Energy  =      -1.4075791780107763 [Eh]
	 SCS Correlation Energy    =      -1.5308963818476184 [Eh]
	 SCS Total Energy          =    -382.3365289152937976 [Eh]
	-----------------------------------------------------------

  Dipole Moment: [D]
     X:    -2.5878      Y:    -0.8225      Z:     1.2303     Total:     2.9811

*** Psi4 exiting successfully. Buy a developer a beer!
