                               Psi4 1.4a3.dev225

  ==> Input File <==

--------------------------------------------------------------------------
#psi4
#
memory 32 gb

molecule  {
0 1
  O        1.8620410    -0.7430760    -0.0482260
  O       -0.4607810     1.6104540    -0.2729240
  O       -2.1158920    -0.5489690    -0.2415960
  C        0.0351110     0.3306280     0.0450800
  C        1.3795224     0.3257793     0.8108729
  C        0.8265300    -0.4397330    -1.0269400
  C       -1.0393340    -0.5046660     0.7032500
  H        1.9101110     1.2646870     0.6518570
  H        1.3660090     0.0484500     1.8611560
  H        0.3876870    -1.3437740    -1.4598530
  H        1.1920660     0.2306130    -1.8145760
  H       -1.3510300    -0.0166450     1.6371240
  H       -0.6508050    -1.5058130     0.9301150
  H       -1.3576780     1.4570120    -0.6282440
  H       -2.8860090    -0.9542290     0.1902110
units angstrom
no_reorient  #important for SAPT in psi4, default
symmetry c1  #important for SAPT in psi4, default
}

set PROPERTIES_ORIGIN ["COM"]
properties('MP2/aug-cc-pvtz', properties = ['dipole'])
--------------------------------------------------------------------------

    Molecular point group: c1
  Charge       = 0
  Multiplicity = 1
  Basis Set: AUG-CC-PVTZ
    Blend: AUG-CC-PVTZ
  Basis Set: (AUG-CC-PVTZ AUX)
    Blend: AUG-CC-PVTZ-JKFIT

    Orbital Energies [Eh]
    ---------------------

    Doubly Occupied:

       1A    -20.584391     2A    -20.564900     3A    -20.554887
       4A    -11.294322     5A    -11.293187     6A    -11.280571
       7A    -11.276504     8A     -1.398769     9A     -1.374639
      10A     -1.353804    11A     -1.034486    12A     -0.937843
      13A     -0.917064    14A     -0.760551    15A     -0.730628
      16A     -0.704554    17A     -0.676749    18A     -0.658680
      19A     -0.619441    20A     -0.599715    21A     -0.571802
      22A     -0.551375    23A     -0.543347    24A     -0.514139
      25A     -0.475255    26A     -0.469139    27A     -0.433732
      28A     -0.416535

  @DF-RHF Final Energy:  -380.80649727511229

   => Energetics <=

    Nuclear Repulsion Energy =            335.2806646157322916
    One-Electron Energy =               -1186.9923014682967732
    Two-Electron Energy =                 470.9051395774521325
    Total Energy =                       -380.8064972751122923
  Basis Set: (AUG-CC-PVTZ AUX)
    Blend: AUG-CC-PVTZ-RI
    Molecular point group: c1

    Geometry (in Angstrom), charge = 0, multiplicity = 1:

       Center              X                  Y                   Z               Mass
    ------------   -----------------  -----------------  -----------------  -----------------
         O            1.846750346107    -0.750869675128    -0.036352305076    15.994914619570
         O           -0.476071653893     1.602660324872    -0.261050305076    15.994914619570
         O           -2.131182653893    -0.556762675128    -0.229722305076    15.994914619570
         C            0.019820346107     0.322834324872     0.056953694924    12.000000000000
         C            1.364231746107     0.317985624872     0.822746594924    12.000000000000
         C            0.811239346107    -0.447526675128    -1.015066305076    12.000000000000
         C           -1.054624653893    -0.512459675128     0.715123694924    12.000000000000
         H            1.894820346107     1.256893324872     0.663730694924     1.007825032230
         H            1.350718346107     0.040656324872     1.873029694924     1.007825032230
         H            0.372396346107    -1.351567675128    -1.447979305076     1.007825032230
         H            1.176775346107     0.222819324872    -1.802702305076     1.007825032230
         H           -1.366320653893    -0.024438675128     1.648997694924     1.007825032230
         H           -0.666095653893    -1.513606675128     0.941988694924     1.007825032230
         H           -1.372968653893     1.449218324872    -0.616370305076     1.007825032230
         H           -2.901299653893    -0.962022675128     0.202084694924     1.007825032230

  Basis Set: AUG-CC-PVTZ
    Blend: AUG-CC-PVTZ
  Basis Set: (AUG-CC-PVTZ AUX)
    Blend: AUG-CC-PVTZ-JKFIT
	 Reference Energy          =    -380.8064972751122923 [Eh]
	 Singles Energy            =      -0.0000000000000000 [Eh]
	 Same-Spin Energy          =      -0.3696977101229080 [Eh]
	 Opposite-Spin Energy      =      -1.1726194708644329 [Eh]
	 Correlation Energy        =      -1.5423171809873408 [Eh]
	 Total Energy              =    -382.3488144560996602 [Eh]

	 ================> DF-SCS-MP2 Energies <==================
	-----------------------------------------------------------
	 SCS Same-Spin Scale       =       0.3333333333333333 [-]
	 SCS Opposite-Spin Scale   =       1.2000000000000000 [-]
	 SCS Same-Spin Energy      =      -0.1232325700409693 [Eh]
	 SCS Opposite-Spin Energy  =      -1.4071433650373193 [Eh]
	 SCS Correlation Energy    =      -1.5303759350782886 [Eh]
	 SCS Total Energy          =    -382.3368732101905607 [Eh]
	-----------------------------------------------------------

  Dipole Moment: [D]
     X:    -2.5510      Y:    -0.8153      Z:     1.2427     Total:     2.9524

*** Psi4 exiting successfully. Buy a developer a beer!
