                               Psi4 1.3.2 release

  ==> Input File <==

--------------------------------------------------------------------------
#psi4
#
memory 32 gb

molecule  {
0 1
  O        1.9626126    -0.6423904    -0.1021245
  O       -0.4607810     1.6104540    -0.2729240
  O       -2.1158920    -0.5489690    -0.2415960
  C        0.0351110     0.3306280     0.0450800
  C        1.3621440     0.3258420     0.8009740
  C        0.8265300    -0.4397330    -1.0269400
  C       -1.0393340    -0.5046660     0.7032500
  H        1.9101110     1.2646870     0.6518570
  H        1.3660090     0.0484500     1.8611560
  H        0.3876870    -1.3437740    -1.4598530
  H        1.1920660     0.2306130    -1.8145760
  H       -1.3510300    -0.0166450     1.6371240
  H       -0.6508050    -1.5058130     0.9301150
  H       -1.3576780     1.4570120    -0.6282440
  H       -2.8860090    -0.9542290     0.1902110
units angstrom
no_reorient  #important for SAPT in psi4, default
symmetry c1  #important for SAPT in psi4, default
}

set PROPERTIES_ORIGIN ["COM"]
properties('MP2/aug-cc-pvtz', properties = ['dipole'])
--------------------------------------------------------------------------

    Molecular point group: c1
  Charge       = 0
  Multiplicity = 1
  Basis Set: AUG-CC-PVTZ
    Blend: AUG-CC-PVTZ
  Basis Set: (AUG-CC-PVTZ AUX)
    Blend: AUG-CC-PVTZ-JKFIT

    Orbital Energies [Eh]
    ---------------------

    Doubly Occupied:

       1A    -20.586183     2A    -20.566948     3A    -20.552570
       4A    -11.295623     5A    -11.294943     6A    -11.279880
       7A    -11.278806     8A     -1.398662     9A     -1.372021
      10A     -1.352454    11A     -1.040712    12A     -0.934746
      13A     -0.918817    14A     -0.759818    15A     -0.732603
      16A     -0.704331    17A     -0.677233    18A     -0.658994
      19A     -0.618740    20A     -0.598403    21A     -0.565822
      22A     -0.558943    23A     -0.538669    24A     -0.518014
      25A     -0.477639    26A     -0.467464    27A     -0.433172
      28A     -0.416842

  @DF-RHF Final Energy:  -380.80284047511759

   => Energetics <=

    Nuclear Repulsion Energy =            334.5677898369474406
    One-Electron Energy =               -1185.5431563605054635
    Two-Electron Energy =                 470.1725260484404316
    Total Energy =                       -380.8028404751175913
  Basis Set: (AUG-CC-PVTZ AUX)
    Blend: AUG-CC-PVTZ-RI
    Molecular point group: c1

    Geometry (in Angstrom), charge = 0, multiplicity = 1:

       Center              X                  Y                   Z               Mass
    ------------   -----------------  -----------------  -----------------  -----------------
         O            1.933865635741    -0.665669429311    -0.080823474528    15.994914619570
         O           -0.489527964259     1.587174970689    -0.251622974528    15.994914619570
         O           -2.144638964259    -0.572248029311    -0.220294974528    15.994914619570
         C            0.006364035741     0.307348970689     0.066381025472    12.000000000000
         C            1.333397035741     0.302562970689     0.822275025472    12.000000000000
         C            0.797783035741    -0.463012029311    -1.005638974528    12.000000000000
         C           -1.068080964259    -0.527945029311     0.724551025472    12.000000000000
         H            1.881364035741     1.241407970689     0.673158025472     1.007825032230
         H            1.337262035741     0.025170970689     1.882457025472     1.007825032230
         H            0.358940035741    -1.367053029311    -1.438551974528     1.007825032230
         H            1.163319035741     0.207333970689    -1.793274974528     1.007825032230
         H           -1.379776964259    -0.039924029311     1.658425025472     1.007825032230
         H           -0.679551964259    -1.529092029311     0.951416025472     1.007825032230
         H           -1.386424964259     1.433732970689    -0.606942974528     1.007825032230
         H           -2.914755964259    -0.977508029311     0.211512025472     1.007825032230

  Basis Set: AUG-CC-PVTZ
    Blend: AUG-CC-PVTZ
  Basis Set: (AUG-CC-PVTZ AUX)
    Blend: AUG-CC-PVTZ-JKFIT
	 Reference Energy          =    -380.8028404751175913 [Eh]
	 Singles Energy            =      -0.0000000000000000 [Eh]
	 Same-Spin Energy          =      -0.3698080160166063 [Eh]
	 Opposite-Spin Energy      =      -1.1731423061053432 [Eh]
	 Correlation Energy        =      -1.5429503221219494 [Eh]
	 Total Energy              =    -382.3457907972395446 [Eh]

	 ================> DF-SCS-MP2 Energies <==================
	-----------------------------------------------------------
	 SCS Same-Spin Scale       =       0.3333333333333333 [-]
	 SCS Opposite-Spin Scale   =       1.2000000000000000 [-]
	 SCS Same-Spin Energy      =      -0.1232693386722021 [Eh]
	 SCS Opposite-Spin Energy  =      -1.4077707673264117 [Eh]
	 SCS Correlation Energy    =      -1.5310401059986138 [Eh]
	 SCS Total Energy          =    -382.3338805811162047 [Eh]
	-----------------------------------------------------------

  Dipole Moment: [D]
     X:    -2.7821      Y:    -0.9641      Z:     1.2826     Total:     3.2116

*** Psi4 exiting successfully. Buy a developer a beer!
