                               Psi4 1.3.2 release

  ==> Input File <==

--------------------------------------------------------------------------
#psi4
#
memory 32 gb

molecule  {
0 1
  O        1.7559924    -0.8320504     0.0149765
  O       -0.4607810     1.6104540    -0.2729240
  O       -2.1158920    -0.5489690    -0.2415960
  C        0.0351110     0.3306280     0.0450800
  C        1.3621440     0.3258420     0.8009740
  C        0.8265300    -0.4397330    -1.0269400
  C       -1.0393340    -0.5046660     0.7032500
  H        1.9101110     1.2646870     0.6518570
  H        1.3660090     0.0484500     1.8611560
  H        0.3876870    -1.3437740    -1.4598530
  H        1.1920660     0.2306130    -1.8145760
  H       -1.3510300    -0.0166450     1.6371240
  H       -0.6508050    -1.5058130     0.9301150
  H       -1.3576780     1.4570120    -0.6282440
  H       -2.8860090    -0.9542290     0.1902110
units angstrom
no_reorient  #important for SAPT in psi4, default
symmetry c1  #important for SAPT in psi4, default
}

set PROPERTIES_ORIGIN ["COM"]
properties('MP2/aug-cc-pvtz', properties = ['dipole'])
--------------------------------------------------------------------------

    Molecular point group: c1
  Charge       = 0
  Multiplicity = 1
  Basis Set: AUG-CC-PVTZ
    Blend: AUG-CC-PVTZ
  Basis Set: (AUG-CC-PVTZ AUX)
    Blend: AUG-CC-PVTZ-JKFIT

    Orbital Energies [Eh]
    ---------------------

    Doubly Occupied:

       1A    -20.582767     2A    -20.563103     3A    -20.558216
       4A    -11.292370     5A    -11.291404     6A    -11.281750
       7A    -11.276650     8A     -1.400972     9A     -1.377025
      10A     -1.353922    11A     -1.033232    12A     -0.938577
      13A     -0.918807    14A     -0.760672    15A     -0.728836
      16A     -0.705882    17A     -0.676234    18A     -0.658290
      19A     -0.623316    20A     -0.598585    21A     -0.575878
      22A     -0.545424    23A     -0.534572    24A     -0.510996
      25A     -0.477962    26A     -0.473417    27A     -0.437227
      28A     -0.414420

  @DF-RHF Final Energy:  -380.80141742557436

   => Energetics <=

    Nuclear Repulsion Energy =            336.6206940094586457
    One-Electron Energy =               -1189.6632096724642906
    Two-Electron Energy =                 472.2410982374312312
    Total Energy =                       -380.8014174255743569
  Basis Set: (AUG-CC-PVTZ AUX)
    Blend: AUG-CC-PVTZ-RI
    Molecular point group: c1

    Geometry (in Angstrom), charge = 0, multiplicity = 1:

       Center              X                  Y                   Z               Mass
    ------------   -----------------  -----------------  -----------------  -----------------
         O            1.759008595923    -0.826173514448     0.018275907912    15.994914619570
         O           -0.457764804077     1.616330885552    -0.269624592088    15.994914619570
         O           -2.112875804077    -0.543092114448    -0.238296592088    15.994914619570
         C            0.038127195923     0.336504885552     0.048379407912    12.000000000000
         C            1.365160195923     0.331718885552     0.804273407912    12.000000000000
         C            0.829546195923    -0.433856114448    -1.023640592088    12.000000000000
         C           -1.036317804077    -0.498789114448     0.706549407912    12.000000000000
         H            1.913127195923     1.270563885552     0.655156407912     1.007825032230
         H            1.369025195923     0.054326885552     1.864455407912     1.007825032230
         H            0.390703195923    -1.337897114448    -1.456553592088     1.007825032230
         H            1.195082195923     0.236489885552    -1.811276592088     1.007825032230
         H           -1.348013804077    -0.010768114448     1.640423407912     1.007825032230
         H           -0.647788804077    -1.499936114448     0.933414407912     1.007825032230
         H           -1.354661804077     1.462888885552    -0.624944592088     1.007825032230
         H           -2.882992804077    -0.948352114448     0.193510407912     1.007825032230

  Basis Set: AUG-CC-PVTZ
    Blend: AUG-CC-PVTZ
  Basis Set: (AUG-CC-PVTZ AUX)
    Blend: AUG-CC-PVTZ-JKFIT
	 Reference Energy          =    -380.8014174255743569 [Eh]
	 Singles Energy            =      -0.0000000000000000 [Eh]
	 Same-Spin Energy          =      -0.3703903758259006 [Eh]
	 Opposite-Spin Energy      =      -1.1733870924594640 [Eh]
	 Correlation Energy        =      -1.5437774682853647 [Eh]
	 Total Energy              =    -382.3451948938597411 [Eh]

	 ================> DF-SCS-MP2 Energies <==================
	-----------------------------------------------------------
	 SCS Same-Spin Scale       =       0.3333333333333333 [-]
	 SCS Opposite-Spin Scale   =       1.2000000000000000 [-]
	 SCS Same-Spin Energy      =      -0.1234634586086335 [Eh]
	 SCS Opposite-Spin Energy  =      -1.4080645109513568 [Eh]
	 SCS Correlation Energy    =      -1.5315279695599904 [Eh]
	 SCS Total Energy          =    -382.3329453951343453 [Eh]
	-----------------------------------------------------------

  Dipole Moment: [D]
     X:    -2.3284      Y:    -0.7105      Z:     1.1352     Total:     2.6860

*** Psi4 exiting successfully. Buy a developer a beer!
