                               Psi4 1.3.2 release

  ==> Input File <==

--------------------------------------------------------------------------
#psi4
#
memory 32 gb

molecule  {
0 1
  O        1.8620410    -0.7430760    -0.0482260
  O       -0.4607810     1.6104540    -0.2729240
  O       -2.1158920    -0.5489690    -0.2415960
  C        0.0351110     0.3306280     0.0450800
  C        1.4726400     0.2889104     0.8988719
  C        0.8265300    -0.4397330    -1.0269400
  C       -1.0393340    -0.5046660     0.7032500
  H        1.9101110     1.2646870     0.6518570
  H        1.3660090     0.0484500     1.8611560
  H        0.3876870    -1.3437740    -1.4598530
  H        1.1920660     0.2306130    -1.8145760
  H       -1.3510300    -0.0166450     1.6371240
  H       -0.6508050    -1.5058130     0.9301150
  H       -1.3576780     1.4570120    -0.6282440
  H       -2.8860090    -0.9542290     0.1902110
units angstrom
no_reorient  #important for SAPT in psi4, default
symmetry c1  #important for SAPT in psi4, default
}

set PROPERTIES_ORIGIN ["COM"]
properties('MP2/aug-cc-pvtz', properties = ['dipole'])
--------------------------------------------------------------------------

    Molecular point group: c1
  Charge       = 0
  Multiplicity = 1
  Basis Set: AUG-CC-PVTZ
    Blend: AUG-CC-PVTZ
  Basis Set: (AUG-CC-PVTZ AUX)
    Blend: AUG-CC-PVTZ-JKFIT

    Orbital Energies [Eh]
    ---------------------

    Doubly Occupied:

       1A    -20.582951     2A    -20.564120     3A    -20.554876
       4A    -11.297872     5A    -11.291344     6A    -11.280280
       7A    -11.276133     8A     -1.394718     9A     -1.370140
      10A     -1.351841    11A     -1.023051    12A     -0.945465
      13A     -0.907892    14A     -0.766037    15A     -0.729447
      16A     -0.697306    17A     -0.679049    18A     -0.658083
      19A     -0.616321    20A     -0.603064    21A     -0.572474
      22A     -0.568164    23A     -0.542256    24A     -0.512159
      25A     -0.473344    26A     -0.454233    27A     -0.427104
      28A     -0.405844

  @DF-RHF Final Energy:  -380.78556325791311

   => Energetics <=

    Nuclear Repulsion Energy =            333.1403348296115610
    One-Electron Energy =               -1182.7606583961521665
    Two-Electron Energy =                 468.8347603086274944
    Total Energy =                       -380.7855632579131111
  Basis Set: (AUG-CC-PVTZ AUX)
    Blend: AUG-CC-PVTZ-RI
    Molecular point group: c1

    Geometry (in Angstrom), charge = 0, multiplicity = 1:

       Center              X                  Y                   Z               Mass
    ------------   -----------------  -----------------  -----------------  -----------------
         O            1.836010896585    -0.746617507005    -0.046501415647    15.994914619570
         O           -0.486811103415     1.606912492995    -0.271199415647    15.994914619570
         O           -2.141922103415    -0.552510507005    -0.239871415647    15.994914619570
         C            0.009080896585     0.327086492995     0.046804584353    12.000000000000
         C            1.446609896585     0.285368892995     0.900596484353    12.000000000000
         C            0.800499896585    -0.443274507005    -1.025215415647    12.000000000000
         C           -1.065364103415    -0.508207507005     0.704974584353    12.000000000000
         H            1.884080896585     1.261145492995     0.653581584353     1.007825032230
         H            1.339978896585     0.044908492995     1.862880584353     1.007825032230
         H            0.361656896585    -1.347315507005    -1.458128415647     1.007825032230
         H            1.166035896585     0.227071492995    -1.812851415647     1.007825032230
         H           -1.377060103415    -0.020186507005     1.638848584353     1.007825032230
         H           -0.676835103415    -1.509354507005     0.931839584353     1.007825032230
         H           -1.383708103415     1.453470492995    -0.626519415647     1.007825032230
         H           -2.912039103415    -0.957770507005     0.191935584353     1.007825032230

  Basis Set: AUG-CC-PVTZ
    Blend: AUG-CC-PVTZ
  Basis Set: (AUG-CC-PVTZ AUX)
    Blend: AUG-CC-PVTZ-JKFIT
	 Reference Energy          =    -380.7855632579131111 [Eh]
	 Singles Energy            =      -0.0000000000000000 [Eh]
	 Same-Spin Energy          =      -0.3697252442437603 [Eh]
	 Opposite-Spin Energy      =      -1.1737275364308855 [Eh]
	 Correlation Energy        =      -1.5434527806746456 [Eh]
	 Total Energy              =    -382.3290160385877812 [Eh]

	 ================> DF-SCS-MP2 Energies <==================
	-----------------------------------------------------------
	 SCS Same-Spin Scale       =       0.3333333333333333 [-]
	 SCS Opposite-Spin Scale   =       1.2000000000000000 [-]
	 SCS Same-Spin Energy      =      -0.1232417480812534 [Eh]
	 SCS Opposite-Spin Energy  =      -1.4084730437170625 [Eh]
	 SCS Correlation Energy    =      -1.5317147917983158 [Eh]
	 SCS Total Energy          =    -382.3172780497114331 [Eh]
	-----------------------------------------------------------

  Dipole Moment: [D]
     X:    -2.5248      Y:    -0.8347      Z:     1.3220     Total:     2.9697

*** Psi4 exiting successfully. Buy a developer a beer!
