                               Psi4 1.3.2 release

  ==> Input File <==

--------------------------------------------------------------------------
#psi4
#
memory 32 gb

molecule  {
0 1
  O        1.9297667    -0.6771879    -0.0852307
  O       -0.4607810     1.6104540    -0.2729240
  O       -2.1158920    -0.5489690    -0.2415960
  C        0.0351110     0.3306280     0.0450800
  C        1.3621440     0.3258420     0.8009740
  C        0.8265300    -0.4397330    -1.0269400
  C       -1.0393340    -0.5046660     0.7032500
  H        1.9101110     1.2646870     0.6518570
  H        1.3660090     0.0484500     1.8611560
  H        0.3876870    -1.3437740    -1.4598530
  H        1.1920660     0.2306130    -1.8145760
  H       -1.3510300    -0.0166450     1.6371240
  H       -0.6508050    -1.5058130     0.9301150
  H       -1.3576780     1.4570120    -0.6282440
  H       -2.8860090    -0.9542290     0.1902110
units angstrom
no_reorient  #important for SAPT in psi4, default
symmetry c1  #important for SAPT in psi4, default
}

set PROPERTIES_ORIGIN ["COM"]
properties('MP2/aug-cc-pvtz', properties = ['dipole'])
--------------------------------------------------------------------------

    Molecular point group: c1
  Charge       = 0
  Multiplicity = 1
  Basis Set: AUG-CC-PVTZ
    Blend: AUG-CC-PVTZ
  Basis Set: (AUG-CC-PVTZ AUX)
    Blend: AUG-CC-PVTZ-JKFIT

    Orbital Energies [Eh]
    ---------------------

    Doubly Occupied:

       1A    -20.585664     2A    -20.566394     3A    -20.553246
       4A    -11.295070     5A    -11.294387     6A    -11.280335
       7A    -11.277944     8A     -1.398890     9A     -1.373199
      10A     -1.353354    11A     -1.039513    12A     -0.935506
      13A     -0.918693    14A     -0.759736    15A     -0.732069
      16A     -0.704855    17A     -0.677245    18A     -0.659051
      19A     -0.619129    20A     -0.598485    21A     -0.566866
      22A     -0.556531    23A     -0.540836    24A     -0.516916
      25A     -0.477140    26A     -0.469030    27A     -0.433625
      28A     -0.416669

  @DF-RHF Final Energy:  -380.80510821163853

   => Energetics <=

    Nuclear Repulsion Energy =            334.9336875596865184
    One-Electron Energy =               -1186.2768314789113901
    Two-Electron Energy =                 470.5380357075863458
    Total Energy =                       -380.8051082116385260
  Basis Set: (AUG-CC-PVTZ AUX)
    Blend: AUG-CC-PVTZ-RI
    Molecular point group: c1

    Geometry (in Angstrom), charge = 0, multiplicity = 1:

       Center              X                  Y                   Z               Mass
    ------------   -----------------  -----------------  -----------------  -----------------
         O            1.906069046424    -0.695117604480    -0.066526712357    15.994914619570
         O           -0.484478653576     1.592524295520    -0.254220012357    15.994914619570
         O           -2.139589653576    -0.566898704480    -0.222892012357    15.994914619570
         C            0.011413346424     0.312698295520     0.063783987643    12.000000000000
         C            1.338446346424     0.307912295520     0.819677987643    12.000000000000
         C            0.802832346424    -0.457662704480    -1.008236012357    12.000000000000
         C           -1.063031653576    -0.522595704480     0.721953987643    12.000000000000
         H            1.886413346424     1.246757295520     0.670560987643     1.007825032230
         H            1.342311346424     0.030520295520     1.879859987643     1.007825032230
         H            0.363989346424    -1.361703704480    -1.441149012357     1.007825032230
         H            1.168368346424     0.212683295520    -1.795872012357     1.007825032230
         H           -1.374727653576    -0.034574704480     1.655827987643     1.007825032230
         H           -0.674502653576    -1.523742704480     0.948818987643     1.007825032230
         H           -1.381375653576     1.439082295520    -0.609540012357     1.007825032230
         H           -2.909706653576    -0.972158704480     0.208914987643     1.007825032230

  Basis Set: AUG-CC-PVTZ
    Blend: AUG-CC-PVTZ
  Basis Set: (AUG-CC-PVTZ AUX)
    Blend: AUG-CC-PVTZ-JKFIT
	 Reference Energy          =    -380.8051082116385260 [Eh]
	 Singles Energy            =      -0.0000000000000000 [Eh]
	 Same-Spin Energy          =      -0.3697533723780814 [Eh]
	 Opposite-Spin Energy      =      -1.1728604566418499 [Eh]
	 Correlation Energy        =      -1.5426138290199312 [Eh]
	 Total Energy              =    -382.3477220406584820 [Eh]

	 ================> DF-SCS-MP2 Energies <==================
	-----------------------------------------------------------
	 SCS Same-Spin Scale       =       0.3333333333333333 [-]
	 SCS Opposite-Spin Scale   =       1.2000000000000000 [-]
	 SCS Same-Spin Energy      =      -0.1232511241260271 [Eh]
	 SCS Opposite-Spin Energy  =      -1.4074325479702199 [Eh]
	 SCS Correlation Energy    =      -1.5306836720962469 [Eh]
	 SCS Total Energy          =    -382.3357918837347711 [Eh]
	-----------------------------------------------------------

  Dipole Moment: [D]
     X:    -2.7101      Y:    -0.9133      Z:     1.2684     Total:     3.1285

*** Psi4 exiting successfully. Buy a developer a beer!
