                               Psi4 1.3.2 release

  ==> Input File <==

--------------------------------------------------------------------------
#psi4
#
memory 32 gb

molecule  {
0 1
  O        1.8620410    -0.7430760    -0.0482260
  O       -0.4607810     1.6104540    -0.2729240
  O       -2.1158920    -0.5489690    -0.2415960
  C        0.0351110     0.3306280     0.0450800
  C        1.3264709     0.3355664     0.7662178
  C        0.8265300    -0.4397330    -1.0269400
  C       -1.0393340    -0.5046660     0.7032500
  H        1.9101110     1.2646870     0.6518570
  H        1.3660090     0.0484500     1.8611560
  H        0.3876870    -1.3437740    -1.4598530
  H        1.1920660     0.2306130    -1.8145760
  H       -1.3510300    -0.0166450     1.6371240
  H       -0.6508050    -1.5058130     0.9301150
  H       -1.3576780     1.4570120    -0.6282440
  H       -2.8860090    -0.9542290     0.1902110
units angstrom
no_reorient  #important for SAPT in psi4, default
symmetry c1  #important for SAPT in psi4, default
}

set PROPERTIES_ORIGIN ["COM"]
properties('MP2/aug-cc-pvtz', properties = ['dipole'])
--------------------------------------------------------------------------

    Molecular point group: c1
  Charge       = 0
  Multiplicity = 1
  Basis Set: AUG-CC-PVTZ
    Blend: AUG-CC-PVTZ
  Basis Set: (AUG-CC-PVTZ AUX)
    Blend: AUG-CC-PVTZ-JKFIT

    Orbital Energies [Eh]
    ---------------------

    Doubly Occupied:

       1A    -20.585165     2A    -20.565778     3A    -20.555331
       4A    -11.294580     5A    -11.291814     6A    -11.282688
       7A    -11.277887     8A     -1.402063     9A     -1.377322
      10A     -1.355247    11A     -1.043947    12A     -0.934666
      13A     -0.923027    14A     -0.757957    15A     -0.731458
      16A     -0.709059    17A     -0.677358    18A     -0.659570
      19A     -0.622508    20A     -0.597127    21A     -0.570200
      22A     -0.546663    23A     -0.539397    24A     -0.516003
      25A     -0.482308    26A     -0.474881    27A     -0.437340
      28A     -0.413638

  @DF-RHF Final Energy:  -380.80308546375880

   => Energetics <=

    Nuclear Repulsion Energy =            336.5324158488226658
    One-Electron Energy =               -1189.4210417453396076
    Two-Electron Energy =                 472.0855404327581368
    Total Energy =                       -380.8030854637588050
  Basis Set: (AUG-CC-PVTZ AUX)
    Blend: AUG-CC-PVTZ-RI
    Molecular point group: c1

    Geometry (in Angstrom), charge = 0, multiplicity = 1:

       Center              X                  Y                   Z               Mass
    ------------   -----------------  -----------------  -----------------  -----------------
         O            1.852868887675    -0.751998442047    -0.031202138058    15.994914619570
         O           -0.469953112325     1.601531557953    -0.255900138058    15.994914619570
         O           -2.125064112325    -0.557891442047    -0.224572138058    15.994914619570
         C            0.025938887675     0.321705557953     0.062103861942    12.000000000000
         C            1.317298787675     0.326643957953     0.783241661942    12.000000000000
         C            0.817357887675    -0.448655442047    -1.009916138058    12.000000000000
         C           -1.048506112325    -0.513588442047     0.720273861942    12.000000000000
         H            1.900938887675     1.255764557953     0.668880861942     1.007825032230
         H            1.356836887675     0.039527557953     1.878179861942     1.007825032230
         H            0.378514887675    -1.352696442047    -1.442829138058     1.007825032230
         H            1.182893887675     0.221690557953    -1.797552138058     1.007825032230
         H           -1.360202112325    -0.025567442047     1.654147861942     1.007825032230
         H           -0.659977112325    -1.514735442047     0.947138861942     1.007825032230
         H           -1.366850112325     1.448089557953    -0.611220138058     1.007825032230
         H           -2.895181112325    -0.963151442047     0.207234861942     1.007825032230

  Basis Set: AUG-CC-PVTZ
    Blend: AUG-CC-PVTZ
  Basis Set: (AUG-CC-PVTZ AUX)
    Blend: AUG-CC-PVTZ-JKFIT
	 Reference Energy          =    -380.8030854637588050 [Eh]
	 Singles Energy            =      -0.0000000000000000 [Eh]
	 Same-Spin Energy          =      -0.3703050309803436 [Eh]
	 Opposite-Spin Energy      =      -1.1731269936156599 [Eh]
	 Correlation Energy        =      -1.5434320245960036 [Eh]
	 Total Energy              =    -382.3465174883548343 [Eh]

	 ================> DF-SCS-MP2 Energies <==================
	-----------------------------------------------------------
	 SCS Same-Spin Scale       =       0.3333333333333333 [-]
	 SCS Opposite-Spin Scale   =       1.2000000000000000 [-]
	 SCS Same-Spin Energy      =      -0.1234350103267812 [Eh]
	 SCS Opposite-Spin Energy  =      -1.4077523923387918 [Eh]
	 SCS Correlation Energy    =      -1.5311874026655730 [Eh]
	 SCS Total Energy          =    -382.3342728664243850 [Eh]
	-----------------------------------------------------------

  Dipole Moment: [D]
     X:    -2.5816      Y:    -0.8251      Z:     1.1638     Total:     2.9496

*** Psi4 exiting successfully. Buy a developer a beer!
