                               Psi4 1.3.2 release

  ==> Input File <==

--------------------------------------------------------------------------
#psi4
#
memory 32 gb

molecule  {
0 1
  O        1.8620410    -0.7430760    -0.0482260
  O       -0.4607810     1.6104540    -0.2729240
  O       -2.1158920    -0.5489690    -0.2415960
  C        0.0351110     0.3306280     0.0450800
  C        1.3505757     0.3392466     0.8208980
  C        0.8265300    -0.4397330    -1.0269400
  C       -1.0393340    -0.5046660     0.7032500
  H        1.9101110     1.2646870     0.6518570
  H        1.3660090     0.0484500     1.8611560
  H        0.3876870    -1.3437740    -1.4598530
  H        1.1920660     0.2306130    -1.8145760
  H       -1.3510300    -0.0166450     1.6371240
  H       -0.6508050    -1.5058130     0.9301150
  H       -1.3576780     1.4570120    -0.6282440
  H       -2.8860090    -0.9542290     0.1902110
units angstrom
no_reorient  #important for SAPT in psi4, default
symmetry c1  #important for SAPT in psi4, default
}

set PROPERTIES_ORIGIN ["COM"]
properties('MP2/aug-cc-pvtz', properties = ['dipole'])
--------------------------------------------------------------------------

    Molecular point group: c1
  Charge       = 0
  Multiplicity = 1
  Basis Set: AUG-CC-PVTZ
    Blend: AUG-CC-PVTZ
  Basis Set: (AUG-CC-PVTZ AUX)
    Blend: AUG-CC-PVTZ-JKFIT

    Orbital Energies [Eh]
    ---------------------

    Doubly Occupied:

       1A    -20.584586     2A    -20.565129     3A    -20.553078
       4A    -11.294564     5A    -11.293506     6A    -11.280977
       7A    -11.275532     8A     -1.397843     9A     -1.371071
      10A     -1.351612    11A     -1.036918    12A     -0.937332
      13A     -0.917921    14A     -0.761471    15A     -0.731031
      16A     -0.704308    17A     -0.676517    18A     -0.658246
      19A     -0.618182    20A     -0.596989    21A     -0.571250
      22A     -0.550437    23A     -0.541019    24A     -0.512257
      25A     -0.476565    26A     -0.472674    27A     -0.435605
      28A     -0.415753

  @DF-RHF Final Energy:  -380.80551228075268

   => Energetics <=

    Nuclear Repulsion Energy =            335.3391948247282812
    One-Electron Energy =               -1187.1246716347466190
    Two-Electron Energy =                 470.9799645292656010
    Total Energy =                       -380.8055122807526800
  Basis Set: (AUG-CC-PVTZ AUX)
    Blend: AUG-CC-PVTZ-RI
    Molecular point group: c1

    Geometry (in Angstrom), charge = 0, multiplicity = 1:

       Center              X                  Y                   Z               Mass
    ------------   -----------------  -----------------  -----------------  -----------------
         O            1.850088830169    -0.752422887287    -0.037508521038    15.994914619570
         O           -0.472733169831     1.601107112713    -0.262206521038    15.994914619570
         O           -2.127844169831    -0.558315887287    -0.230878521038    15.994914619570
         C            0.023158830169     0.321281112713     0.055797478962    12.000000000000
         C            1.338623530169     0.329899712713     0.831615478962    12.000000000000
         C            0.814577830169    -0.449079887287    -1.016222521038    12.000000000000
         C           -1.051286169831    -0.514012887287     0.713967478962    12.000000000000
         H            1.898158830169     1.255340112713     0.662574478962     1.007825032230
         H            1.354056830169     0.039103112713     1.871873478962     1.007825032230
         H            0.375734830169    -1.353120887287    -1.449135521038     1.007825032230
         H            1.180113830169     0.221266112713    -1.803858521038     1.007825032230
         H           -1.362982169831    -0.025991887287     1.647841478962     1.007825032230
         H           -0.662757169831    -1.515159887287     0.940832478962     1.007825032230
         H           -1.369630169831     1.447665112713    -0.617526521038     1.007825032230
         H           -2.897961169831    -0.963575887287     0.200928478962     1.007825032230

  Basis Set: AUG-CC-PVTZ
    Blend: AUG-CC-PVTZ
  Basis Set: (AUG-CC-PVTZ AUX)
    Blend: AUG-CC-PVTZ-JKFIT
	 Reference Energy          =    -380.8055122807526800 [Eh]
	 Singles Energy            =      -0.0000000000000000 [Eh]
	 Same-Spin Energy          =      -0.3699033343682550 [Eh]
	 Opposite-Spin Energy      =      -1.1732449853728009 [Eh]
	 Correlation Energy        =      -1.5431483197410558 [Eh]
	 Total Energy              =    -382.3486606004937585 [Eh]

	 ================> DF-SCS-MP2 Energies <==================
	-----------------------------------------------------------
	 SCS Same-Spin Scale       =       0.3333333333333333 [-]
	 SCS Opposite-Spin Scale   =       1.2000000000000000 [-]
	 SCS Same-Spin Energy      =      -0.1233011114560850 [Eh]
	 SCS Opposite-Spin Energy  =      -1.4078939824473611 [Eh]
	 SCS Correlation Energy    =      -1.5311950939034460 [Eh]
	 SCS Total Energy          =    -382.3367073746561005 [Eh]
	-----------------------------------------------------------

  Dipole Moment: [D]
     X:    -2.5713      Y:    -0.7858      Z:     1.2869     Total:     2.9808

*** Psi4 exiting successfully. Buy a developer a beer!
