                               Psi4 1.3.2 release

  ==> Input File <==

--------------------------------------------------------------------------
#psi4
#
memory 32 gb

molecule  {
0 1
  O        1.8620410    -0.7430760    -0.0482260
  O       -0.4607810     1.6104540    -0.2729240
  O       -2.1158920    -0.5489690    -0.2415960
  C        0.0351110     0.3306280     0.0450800
  C        1.4229505     0.2455878     0.6768117
  C        0.8265300    -0.4397330    -1.0269400
  C       -1.0393340    -0.5046660     0.7032500
  H        1.9101110     1.2646870     0.6518570
  H        1.3660090     0.0484500     1.8611560
  H        0.3876870    -1.3437740    -1.4598530
  H        1.1920660     0.2306130    -1.8145760
  H       -1.3510300    -0.0166450     1.6371240
  H       -0.6508050    -1.5058130     0.9301150
  H       -1.3576780     1.4570120    -0.6282440
  H       -2.8860090    -0.9542290     0.1902110
units angstrom
no_reorient  #important for SAPT in psi4, default
symmetry c1  #important for SAPT in psi4, default
}

set PROPERTIES_ORIGIN ["COM"]
properties('MP2/aug-cc-pvtz', properties = ['dipole'])
--------------------------------------------------------------------------

    Molecular point group: c1
  Charge       = 0
  Multiplicity = 1
  Basis Set: AUG-CC-PVTZ
    Blend: AUG-CC-PVTZ
  Basis Set: (AUG-CC-PVTZ AUX)
    Blend: AUG-CC-PVTZ-JKFIT

    Orbital Energies [Eh]
    ---------------------

    Doubly Occupied:

       1A    -20.584696     2A    -20.567099     3A    -20.566219
       4A    -11.293801     5A    -11.289894     6A    -11.288068
       7A    -11.287443     8A     -1.448227     9A     -1.389886
      10A     -1.358620    11A     -1.042313    12A     -0.942899
      13A     -0.917499    14A     -0.752274    15A     -0.731376
      16A     -0.717166    17A     -0.686807    18A     -0.662641
      19A     -0.642477    20A     -0.615326    21A     -0.576762
      22A     -0.556743    23A     -0.540476    24A     -0.524223
      25A     -0.475458    26A     -0.465352    27A     -0.421919
      28A     -0.406908

  @DF-RHF Final Energy:  -380.78327224992245

   => Energetics <=

    Nuclear Repulsion Energy =            337.7209935292172531
    One-Electron Energy =               -1191.5033861495101064
    Two-Electron Energy =                 472.9991203703704059
    Total Energy =                       -380.7832722499224474
  Basis Set: (AUG-CC-PVTZ AUX)
    Blend: AUG-CC-PVTZ-RI
    Molecular point group: c1

    Geometry (in Angstrom), charge = 0, multiplicity = 1:

       Center              X                  Y                   Z               Mass
    ------------   -----------------  -----------------  -----------------  -----------------
         O            1.841741691591    -0.741621020026    -0.020890743672    15.994914619570
         O           -0.481080308409     1.611908979974    -0.245588743672    15.994914619570
         O           -2.136191308409    -0.547514020026    -0.214260743672    15.994914619570
         C            0.014811691591     0.332082979974     0.072415256328    12.000000000000
         C            1.402651191591     0.247042779974     0.704146956328    12.000000000000
         C            0.806230691591    -0.438278020026    -0.999604743672    12.000000000000
         C           -1.059633308409    -0.503211020026     0.730585256328    12.000000000000
         H            1.889811691591     1.266141979974     0.679192256328     1.007825032230
         H            1.345709691591     0.049904979974     1.888491256328     1.007825032230
         H            0.367387691591    -1.342319020026    -1.432517743672     1.007825032230
         H            1.171766691591     0.232067979974    -1.787240743672     1.007825032230
         H           -1.371329308409    -0.015190020026     1.664459256328     1.007825032230
         H           -0.671104308409    -1.504358020026     0.957450256328     1.007825032230
         H           -1.377977308409     1.458466979974    -0.600908743672     1.007825032230
         H           -2.906308308409    -0.952774020026     0.217546256328     1.007825032230

  Basis Set: AUG-CC-PVTZ
    Blend: AUG-CC-PVTZ
  Basis Set: (AUG-CC-PVTZ AUX)
    Blend: AUG-CC-PVTZ-JKFIT
	 Reference Energy          =    -380.7832722499224474 [Eh]
	 Singles Energy            =      -0.0000000000000000 [Eh]
	 Same-Spin Energy          =      -0.3703291907690915 [Eh]
	 Opposite-Spin Energy      =      -1.1710966434912771 [Eh]
	 Correlation Energy        =      -1.5414258342603686 [Eh]
	 Total Energy              =    -382.3246980841828417 [Eh]

	 ================> DF-SCS-MP2 Energies <==================
	-----------------------------------------------------------
	 SCS Same-Spin Scale       =       0.3333333333333333 [-]
	 SCS Opposite-Spin Scale   =       1.2000000000000000 [-]
	 SCS Same-Spin Energy      =      -0.1234430635896972 [Eh]
	 SCS Opposite-Spin Energy  =      -1.4053159721895325 [Eh]
	 SCS Correlation Energy    =      -1.5287590357792298 [Eh]
	 SCS Total Energy          =    -382.3120312857016643 [Eh]
	-----------------------------------------------------------

  Dipole Moment: [D]
     X:    -2.5082      Y:    -1.1052      Z:     0.7286     Total:     2.8361

*** Psi4 exiting successfully. Buy a developer a beer!
