                               Psi4 1.3.2 release

  ==> Input File <==

--------------------------------------------------------------------------
#psi4
#
memory 32 gb

molecule  {
0 1
  O        1.8620410    -0.7430760    -0.0482260
  O       -0.4607810     1.6104540    -0.2729240
  O       -2.1158920    -0.5489690    -0.2415960
  C        0.0351110     0.3306280     0.0450800
  C        1.3402300     0.2936339     0.8373622
  C        0.8265300    -0.4397330    -1.0269400
  C       -1.0393340    -0.5046660     0.7032500
  H        1.9101110     1.2646870     0.6518570
  H        1.3660090     0.0484500     1.8611560
  H        0.3876870    -1.3437740    -1.4598530
  H        1.1920660     0.2306130    -1.8145760
  H       -1.3510300    -0.0166450     1.6371240
  H       -0.6508050    -1.5058130     0.9301150
  H       -1.3576780     1.4570120    -0.6282440
  H       -2.8860090    -0.9542290     0.1902110
units angstrom
no_reorient  #important for SAPT in psi4, default
symmetry c1  #important for SAPT in psi4, default
}

set PROPERTIES_ORIGIN ["COM"]
properties('MP2/aug-cc-pvtz', properties = ['dipole'])
--------------------------------------------------------------------------

    Molecular point group: c1
  Charge       = 0
  Multiplicity = 1
  Basis Set: AUG-CC-PVTZ
    Blend: AUG-CC-PVTZ
  Basis Set: (AUG-CC-PVTZ AUX)
    Blend: AUG-CC-PVTZ-JKFIT

    Orbital Energies [Eh]
    ---------------------

    Doubly Occupied:

       1A    -20.584111     2A    -20.565788     3A    -20.554481
       4A    -11.294553     5A    -11.293132     6A    -11.281497
       7A    -11.276617     8A     -1.398871     9A     -1.373766
      10A     -1.353784    11A     -1.038075    12A     -0.938486
      13A     -0.916348    14A     -0.761954    15A     -0.731259
      16A     -0.703319    17A     -0.679838    18A     -0.659392
      19A     -0.620008    20A     -0.596352    21A     -0.566408
      22A     -0.553896    23A     -0.541859    24A     -0.514073
      25A     -0.476804    26A     -0.472651    27A     -0.434502
      28A     -0.414333

  @DF-RHF Final Energy:  -380.80334736045398

   => Energetics <=

    Nuclear Repulsion Energy =            335.5700839379172180
    One-Electron Energy =               -1187.5545537179584699
    Two-Electron Energy =                 471.1811224195873251
    Total Energy =                       -380.8033473604539836
  Basis Set: (AUG-CC-PVTZ AUX)
    Blend: AUG-CC-PVTZ-RI
    Molecular point group: c1

    Geometry (in Angstrom), charge = 0, multiplicity = 1:

       Center              X                  Y                   Z               Mass
    ------------   -----------------  -----------------  -----------------  -----------------
         O            1.851282021605    -0.747162278238    -0.039407372005    15.994914619570
         O           -0.471539978395     1.606367721762    -0.264105372005    15.994914619570
         O           -2.126650978395    -0.553055278238    -0.232777372005    15.994914619570
         C            0.024352021605     0.326541721762     0.053898627995    12.000000000000
         C            1.329471021605     0.289547621762     0.846180827995    12.000000000000
         C            0.815771021605    -0.443819278238    -1.018121372005    12.000000000000
         C           -1.050092978395    -0.508752278238     0.712068627995    12.000000000000
         H            1.899352021605     1.260600721762     0.660675627995     1.007825032230
         H            1.355250021605     0.044363721762     1.869974627995     1.007825032230
         H            0.376928021605    -1.347860278238    -1.451034372005     1.007825032230
         H            1.181307021605     0.226526721762    -1.805757372005     1.007825032230
         H           -1.361788978395    -0.020731278238     1.645942627995     1.007825032230
         H           -0.661563978395    -1.509899278238     0.938933627995     1.007825032230
         H           -1.368436978395     1.452925721762    -0.619425372005     1.007825032230
         H           -2.896767978395    -0.958315278238     0.199029627995     1.007825032230

  Basis Set: AUG-CC-PVTZ
    Blend: AUG-CC-PVTZ
  Basis Set: (AUG-CC-PVTZ AUX)
    Blend: AUG-CC-PVTZ-JKFIT
	 Reference Energy          =    -380.8033473604539836 [Eh]
	 Singles Energy            =      -0.0000000000000000 [Eh]
	 Same-Spin Energy          =      -0.3699029987472389 [Eh]
	 Opposite-Spin Energy      =      -1.1729897331472627 [Eh]
	 Correlation Energy        =      -1.5428927318945016 [Eh]
	 Total Energy              =    -382.3462400923484665 [Eh]

	 ================> DF-SCS-MP2 Energies <==================
	-----------------------------------------------------------
	 SCS Same-Spin Scale       =       0.3333333333333333 [-]
	 SCS Opposite-Spin Scale   =       1.2000000000000000 [-]
	 SCS Same-Spin Energy      =      -0.1233009995824129 [Eh]
	 SCS Opposite-Spin Energy  =      -1.4075876797767153 [Eh]
	 SCS Correlation Energy    =      -1.5308886793591283 [Eh]
	 SCS Total Energy          =    -382.3342360398131063 [Eh]
	-----------------------------------------------------------

  Dipole Moment: [D]
     X:    -2.5876      Y:    -0.8667      Z:     1.2857     Total:     3.0166

*** Psi4 exiting successfully. Buy a developer a beer!
