                               Psi4 1.4a3.dev225

  ==> Input File <==

--------------------------------------------------------------------------
#psi4
#
memory 32 gb

molecule  {
0 1
  O        1.8620410    -0.7430760    -0.0482260
  O       -0.4607810     1.6104540    -0.2729240
  O       -2.1158920    -0.5489690    -0.2415960
  C        0.0421504     0.3124602     0.0495942
  C        1.3621440     0.3258420     0.8009740
  C        0.8265300    -0.4397330    -1.0269400
  C       -1.0393340    -0.5046660     0.7032500
  H        1.9101110     1.2646870     0.6518570
  H        1.3660090     0.0484500     1.8611560
  H        0.3876870    -1.3437740    -1.4598530
  H        1.1920660     0.2306130    -1.8145760
  H       -1.3510300    -0.0166450     1.6371240
  H       -0.6508050    -1.5058130     0.9301150
  H       -1.3576780     1.4570120    -0.6282440
  H       -2.8860090    -0.9542290     0.1902110
units angstrom
no_reorient  #important for SAPT in psi4, default
symmetry c1  #important for SAPT in psi4, default
}

set PROPERTIES_ORIGIN ["COM"]
properties('MP2/aug-cc-pvtz', properties = ['dipole'])
--------------------------------------------------------------------------

    Molecular point group: c1
  Charge       = 0
  Multiplicity = 1
  Basis Set: AUG-CC-PVTZ
    Blend: AUG-CC-PVTZ
  Basis Set: (AUG-CC-PVTZ AUX)
    Blend: AUG-CC-PVTZ-JKFIT

    Orbital Energies [Eh]
    ---------------------

    Doubly Occupied:

       1A    -20.584903     2A    -20.562585     3A    -20.555336
       4A    -11.294271     5A    -11.293301     6A    -11.281344
       7A    -11.277255     8A     -1.397800     9A     -1.376380
      10A     -1.348564    11A     -1.039917    12A     -0.938644
      13A     -0.920067    14A     -0.758134    15A     -0.729974
      16A     -0.705305    17A     -0.677441    18A     -0.658010
      19A     -0.618935    20A     -0.599142    21A     -0.571104
      22A     -0.550029    23A     -0.540730    24A     -0.511416
      25A     -0.476931    26A     -0.473208    27A     -0.437649
      28A     -0.418104

  @DF-RHF Final Energy:  -380.80592785609713

   => Energetics <=

    Nuclear Repulsion Energy =            335.6835161997101409
    One-Electron Energy =               -1187.7859281929411281
    Two-Electron Energy =                 471.2964841371339162
    Total Energy =                       -380.8059278560971279
  Basis Set: (AUG-CC-PVTZ AUX)
    Blend: AUG-CC-PVTZ-RI
    Molecular point group: c1

    Geometry (in Angstrom), charge = 0, multiplicity = 1:

       Center              X                  Y                   Z               Mass
    ------------   -----------------  -----------------  -----------------  -----------------
         O            1.847942764818    -0.748781575698    -0.035731276250    15.994914619570
         O           -0.474879235182     1.604748424302    -0.260429276250    15.994914619570
         O           -2.129990235182    -0.554674575698    -0.229101276250    15.994914619570
         C            0.028052164818     0.306754624302     0.062088923750    12.000000000000
         C            1.348045764818     0.320136424302     0.813468723750    12.000000000000
         C            0.812431764818    -0.445438575698    -1.014445276250    12.000000000000
         C           -1.053432235182    -0.510371575698     0.715744723750    12.000000000000
         H            1.896012764818     1.258981424302     0.664351723750     1.007825032230
         H            1.351910764818     0.042744424302     1.873650723750     1.007825032230
         H            0.373588764818    -1.349479575698    -1.447358276250     1.007825032230
         H            1.177967764818     0.224907424302    -1.802081276250     1.007825032230
         H           -1.365128235182    -0.022350575698     1.649618723750     1.007825032230
         H           -0.664903235182    -1.511518575698     0.942609723750     1.007825032230
         H           -1.371776235182     1.451306424302    -0.615749276250     1.007825032230
         H           -2.900107235182    -0.959934575698     0.202705723750     1.007825032230

  Basis Set: AUG-CC-PVTZ
    Blend: AUG-CC-PVTZ
  Basis Set: (AUG-CC-PVTZ AUX)
    Blend: AUG-CC-PVTZ-JKFIT
	 Reference Energy          =    -380.8059278560971279 [Eh]
	 Singles Energy            =      -0.0000000000000000 [Eh]
	 Same-Spin Energy          =      -0.3698903410225317 [Eh]
	 Opposite-Spin Energy      =      -1.1729846119385119 [Eh]
	 Correlation Energy        =      -1.5428749529610437 [Eh]
	 Total Energy              =    -382.3488028090581565 [Eh]

	 ================> DF-SCS-MP2 Energies <==================
	-----------------------------------------------------------
	 SCS Same-Spin Scale       =       0.3333333333333333 [-]
	 SCS Opposite-Spin Scale   =       1.2000000000000000 [-]
	 SCS Same-Spin Energy      =      -0.1232967803408439 [Eh]
	 SCS Opposite-Spin Energy  =      -1.4075815343262141 [Eh]
	 SCS Correlation Energy    =      -1.5308783146670579 [Eh]
	 SCS Total Energy          =    -382.3368061707641914 [Eh]
	-----------------------------------------------------------

  Dipole Moment: [D]
     X:    -2.5171      Y:    -0.8893      Z:     1.2407     Total:     2.9438

*** Psi4 exiting successfully. Buy a developer a beer!
