                               Psi4 1.3.2 release

  ==> Input File <==

--------------------------------------------------------------------------
#psi4
#
memory 32 gb

molecule  {
0 1
  O        1.8620410    -0.7430760    -0.0482260
  O       -0.4607810     1.6104540    -0.2729240
  O       -2.1158920    -0.5489690    -0.2415960
  C        0.0703082     0.2397891     0.0676511
  C        1.3621440     0.3258420     0.8009740
  C        0.8265300    -0.4397330    -1.0269400
  C       -1.0393340    -0.5046660     0.7032500
  H        1.9101110     1.2646870     0.6518570
  H        1.3660090     0.0484500     1.8611560
  H        0.3876870    -1.3437740    -1.4598530
  H        1.1920660     0.2306130    -1.8145760
  H       -1.3510300    -0.0166450     1.6371240
  H       -0.6508050    -1.5058130     0.9301150
  H       -1.3576780     1.4570120    -0.6282440
  H       -2.8860090    -0.9542290     0.1902110
units angstrom
no_reorient  #important for SAPT in psi4, default
symmetry c1  #important for SAPT in psi4, default
}

set PROPERTIES_ORIGIN ["COM"]
properties('MP2/aug-cc-pvtz', properties = ['dipole'])
--------------------------------------------------------------------------

    Molecular point group: c1
  Charge       = 0
  Multiplicity = 1
  Basis Set: AUG-CC-PVTZ
    Blend: AUG-CC-PVTZ
  Basis Set: (AUG-CC-PVTZ AUX)
    Blend: AUG-CC-PVTZ-JKFIT

    Orbital Energies [Eh]
    ---------------------

    Doubly Occupied:

       1A    -20.586279     2A    -20.557315     3A    -20.551601
       4A    -11.296457     5A    -11.294107     6A    -11.282544
       7A    -11.278919     8A     -1.397697     9A     -1.380320
      10A     -1.323307    11A     -1.050763    12A     -0.945835
      13A     -0.926423    14A     -0.755946    15A     -0.728563
      16A     -0.702343    17A     -0.678921    18A     -0.653116
      19A     -0.616926    20A     -0.600589    21A     -0.573623
      22A     -0.551286    23A     -0.532837    24A     -0.500286
      25A     -0.481828    26A     -0.471109    27A     -0.445023
      28A     -0.425123

  @DF-RHF Final Energy:  -380.79516140478893

   => Energetics <=

    Nuclear Repulsion Energy =            335.8906081342991001
    One-Electron Energy =               -1188.1933696251355741
    Two-Electron Energy =                 471.5076000860475460
    Total Energy =                       -380.7951614047889279
  Basis Set: (AUG-CC-PVTZ AUX)
    Blend: AUG-CC-PVTZ-RI
    Molecular point group: c1

    Geometry (in Angstrom), charge = 0, multiplicity = 1:

       Center              X                  Y                   Z               Mass
    ------------   -----------------  -----------------  -----------------  -----------------
         O            1.844695266260    -0.740400264215    -0.037813816673    15.994914619570
         O           -0.478126733740     1.613129735785    -0.262511816673    15.994914619570
         O           -2.133237733740    -0.546293264215    -0.231183816673    15.994914619570
         C            0.052962466260     0.242464835785     0.078063283327    12.000000000000
         C            1.344798266260     0.328517735785     0.811386183327    12.000000000000
         C            0.809184266260    -0.437057264215    -1.016527816673    12.000000000000
         C           -1.056679733740    -0.501990264215     0.713662183327    12.000000000000
         H            1.892765266260     1.267362735785     0.662269183327     1.007825032230
         H            1.348663266260     0.051125735785     1.871568183327     1.007825032230
         H            0.370341266260    -1.341098264215    -1.449440816673     1.007825032230
         H            1.174720266260     0.233288735785    -1.804163816673     1.007825032230
         H           -1.368375733740    -0.013969264215     1.647536183327     1.007825032230
         H           -0.668150733740    -1.503137264215     0.940527183327     1.007825032230
         H           -1.375023733740     1.459687735785    -0.617831816673     1.007825032230
         H           -2.903354733740    -0.951553264215     0.200623183327     1.007825032230

  Basis Set: AUG-CC-PVTZ
    Blend: AUG-CC-PVTZ
  Basis Set: (AUG-CC-PVTZ AUX)
    Blend: AUG-CC-PVTZ-JKFIT
	 Reference Energy          =    -380.7951614047889279 [Eh]
	 Singles Energy            =      -0.0000000000000000 [Eh]
	 Same-Spin Energy          =      -0.3705126167340905 [Eh]
	 Opposite-Spin Energy      =      -1.1747606003539302 [Eh]
	 Correlation Energy        =      -1.5452732170880208 [Eh]
	 Total Energy              =    -382.3404346218769660 [Eh]

	 ================> DF-SCS-MP2 Energies <==================
	-----------------------------------------------------------
	 SCS Same-Spin Scale       =       0.3333333333333333 [-]
	 SCS Opposite-Spin Scale   =       1.2000000000000000 [-]
	 SCS Same-Spin Energy      =      -0.1235042055780302 [Eh]
	 SCS Opposite-Spin Energy  =      -1.4097127204247162 [Eh]
	 SCS Correlation Energy    =      -1.5332169260027464 [Eh]
	 SCS Total Energy          =    -382.3283783307916792 [Eh]
	-----------------------------------------------------------

  Dipole Moment: [D]
     X:    -2.3394      Y:    -1.1517      Z:     1.2914     Total:     2.9098

*** Psi4 exiting successfully. Buy a developer a beer!
