                               Psi4 1.3.2 release

  ==> Input File <==

--------------------------------------------------------------------------
#psi4
#
memory 32 gb

molecule  {
0 1
  O        1.8620410    -0.7430760    -0.0482260
  O       -0.4607810     1.6104540    -0.2729240
  O       -2.1158920    -0.5489690    -0.2415960
  C        0.0351110     0.3306280     0.0450800
  C        1.3621440     0.3258420     0.8009740
  C        0.8265300    -0.4397330    -1.0269400
  C       -0.8971865    -0.3941578     0.6161751
  H        1.9101110     1.2646870     0.6518570
  H        1.3660090     0.0484500     1.8611560
  H        0.3876870    -1.3437740    -1.4598530
  H        1.1920660     0.2306130    -1.8145760
  H       -1.3510300    -0.0166450     1.6371240
  H       -0.6508050    -1.5058130     0.9301150
  H       -1.3576780     1.4570120    -0.6282440
  H       -2.8860090    -0.9542290     0.1902110
units angstrom
no_reorient  #important for SAPT in psi4, default
symmetry c1  #important for SAPT in psi4, default
}

set PROPERTIES_ORIGIN ["COM"]
properties('MP2/aug-cc-pvtz', properties = ['dipole'])
--------------------------------------------------------------------------

    Molecular point group: c1
  Charge       = 0
  Multiplicity = 1
  Basis Set: AUG-CC-PVTZ
    Blend: AUG-CC-PVTZ
  Basis Set: (AUG-CC-PVTZ AUX)
    Blend: AUG-CC-PVTZ-JKFIT

    Orbital Energies [Eh]
    ---------------------

    Doubly Occupied:

       1A    -20.571223     2A    -20.567670     3A    -20.559889
       4A    -11.303129     5A    -11.289800     6A    -11.286510
       7A    -11.282493     8A     -1.405185     9A     -1.369460
      10A     -1.341971    11A     -1.083228    12A     -0.944551
      13A     -0.919576    14A     -0.767380    15A     -0.724563
      16A     -0.712274    17A     -0.689369    18A     -0.651259
      19A     -0.620264    20A     -0.597772    21A     -0.571389
      22A     -0.553106    23A     -0.528062    24A     -0.520015
      25A     -0.483602    26A     -0.455537    27A     -0.433083
      28A     -0.425357

  @DF-RHF Final Energy:  -380.75359472867939

   => Energetics <=

    Nuclear Repulsion Energy =            338.7845224327836036
    One-Electron Energy =               -1193.7607979140423140
    Two-Electron Energy =                 474.2226807525792651
    Total Energy =                       -380.7535947286793885
  Basis Set: (AUG-CC-PVTZ AUX)
    Blend: AUG-CC-PVTZ-RI
    Molecular point group: c1

    Geometry (in Angstrom), charge = 0, multiplicity = 1:

       Center              X                  Y                   Z               Mass
    ------------   -----------------  -----------------  -----------------  -----------------
         O            1.832360462226    -0.763622050610    -0.025168111862    15.994914619570
         O           -0.490461537774     1.589907949390    -0.249866111862    15.994914619570
         O           -2.145572537774    -0.569515050610    -0.218538111862    15.994914619570
         C            0.005430462226     0.310081949390     0.068137888138    12.000000000000
         C            1.332463462226     0.305295949390     0.824031888138    12.000000000000
         C            0.796849462226    -0.460279050610    -1.003882111862    12.000000000000
         C           -0.926867037774    -0.414703850610     0.639232988138    12.000000000000
         H            1.880430462226     1.244140949390     0.674914888138     1.007825032230
         H            1.336328462226     0.027903949390     1.884213888138     1.007825032230
         H            0.358006462226    -1.364320050610    -1.436795111862     1.007825032230
         H            1.162385462226     0.210066949390    -1.791518111862     1.007825032230
         H           -1.380710537774    -0.037191050610     1.660181888138     1.007825032230
         H           -0.680485537774    -1.526359050610     0.953172888138     1.007825032230
         H           -1.387358537774     1.436465949390    -0.605186111862     1.007825032230
         H           -2.915689537774    -0.974775050610     0.213268888138     1.007825032230

  Basis Set: AUG-CC-PVTZ
    Blend: AUG-CC-PVTZ
  Basis Set: (AUG-CC-PVTZ AUX)
    Blend: AUG-CC-PVTZ-JKFIT
	 Reference Energy          =    -380.7535947286793885 [Eh]
	 Singles Energy            =      -0.0000000000000000 [Eh]
	 Same-Spin Energy          =      -0.3729894047618270 [Eh]
	 Opposite-Spin Energy      =      -1.1774687715683567 [Eh]
	 Correlation Energy        =      -1.5504581763301837 [Eh]
	 Total Energy              =    -382.3040529050095984 [Eh]

	 ================> DF-SCS-MP2 Energies <==================
	-----------------------------------------------------------
	 SCS Same-Spin Scale       =       0.3333333333333333 [-]
	 SCS Opposite-Spin Scale   =       1.2000000000000000 [-]
	 SCS Same-Spin Energy      =      -0.1243298015872756 [Eh]
	 SCS Opposite-Spin Energy  =      -1.4129625258820280 [Eh]
	 SCS Correlation Energy    =      -1.5372923274693036 [Eh]
	 SCS Total Energy          =    -382.2908870561486765 [Eh]
	-----------------------------------------------------------

  Dipole Moment: [D]
     X:    -2.0754      Y:    -0.7310      Z:     1.2289     Total:     2.5203

*** Psi4 exiting successfully. Buy a developer a beer!
