                               Psi4 1.3.2 release

  ==> Input File <==

--------------------------------------------------------------------------
#psi4
#
memory 32 gb

molecule  {
0 1
  O        1.8620410    -0.7430760    -0.0482260
  O       -0.4607810     1.6104540    -0.2729240
  O       -2.1158920    -0.5489690    -0.2415960
  C       -0.0352834     0.5123058    -0.0000623
  C        1.3621440     0.3258420     0.8009740
  C        0.8265300    -0.4397330    -1.0269400
  C       -1.0393340    -0.5046660     0.7032500
  H        1.9101110     1.2646870     0.6518570
  H        1.3660090     0.0484500     1.8611560
  H        0.3876870    -1.3437740    -1.4598530
  H        1.1920660     0.2306130    -1.8145760
  H       -1.3510300    -0.0166450     1.6371240
  H       -0.6508050    -1.5058130     0.9301150
  H       -1.3576780     1.4570120    -0.6282440
  H       -2.8860090    -0.9542290     0.1902110
units angstrom
no_reorient  #important for SAPT in psi4, default
symmetry c1  #important for SAPT in psi4, default
}

set PROPERTIES_ORIGIN ["COM"]
properties('MP2/aug-cc-pvtz', properties = ['dipole'])
--------------------------------------------------------------------------

    Molecular point group: c1
  Charge       = 0
  Multiplicity = 1
  Basis Set: AUG-CC-PVTZ
    Blend: AUG-CC-PVTZ
  Basis Set: (AUG-CC-PVTZ AUX)
    Blend: AUG-CC-PVTZ-JKFIT

    Orbital Energies [Eh]
    ---------------------

    Doubly Occupied:

       1A    -20.592898     2A    -20.581454     3A    -20.551840
       4A    -11.302246     5A    -11.287934     6A    -11.277224
       7A    -11.269450     8A     -1.486987     9A     -1.375114
      10A     -1.360138    11A     -1.006556    12A     -0.921292
      13A     -0.906578    14A     -0.809143    15A     -0.742908
      16A     -0.696184    17A     -0.683456    18A     -0.660100
      19A     -0.654774    20A     -0.600848    21A     -0.572652
      22A     -0.565450    23A     -0.541118    24A     -0.533377
      25A     -0.474039    26A     -0.448639    27A     -0.401635
      28A     -0.376481

  @DF-RHF Final Energy:  -380.75448696939185

   => Energetics <=

    Nuclear Repulsion Energy =            335.5156358536704602
    One-Electron Energy =               -1187.1792155562170592
    Two-Electron Energy =                 470.9090927331547505
    Total Energy =                       -380.7544869693918486
  Basis Set: (AUG-CC-PVTZ AUX)
    Blend: AUG-CC-PVTZ-RI
    Molecular point group: c1

    Geometry (in Angstrom), charge = 0, multiplicity = 1:

       Center              X                  Y                   Z               Mass
    ------------   -----------------  -----------------  -----------------  -----------------
         O            1.856873368554    -0.771830190925    -0.030004287204    15.994914619570
         O           -0.465948631446     1.581699809075    -0.254702287204    15.994914619570
         O           -2.121059631446    -0.577723190925    -0.223374287204    15.994914619570
         C           -0.040451031446     0.483551609075     0.018159412796    12.000000000000
         C            1.356976368554     0.297087809075     0.819195712796    12.000000000000
         C            0.821362368554    -0.468487190925    -1.008718287204    12.000000000000
         C           -1.044501631446    -0.533420190925     0.721471712796    12.000000000000
         H            1.904943368554     1.235932809075     0.670078712796     1.007825032230
         H            1.360841368554     0.019695809075     1.879377712796     1.007825032230
         H            0.382519368554    -1.372528190925    -1.441631287204     1.007825032230
         H            1.186898368554     0.201858809075    -1.796354287204     1.007825032230
         H           -1.356197631446    -0.045399190925     1.655345712796     1.007825032230
         H           -0.655972631446    -1.534567190925     0.948336712796     1.007825032230
         H           -1.362845631446     1.428257809075    -0.610022287204     1.007825032230
         H           -2.891176631446    -0.982983190925     0.208432712796     1.007825032230

  Basis Set: AUG-CC-PVTZ
    Blend: AUG-CC-PVTZ
  Basis Set: (AUG-CC-PVTZ AUX)
    Blend: AUG-CC-PVTZ-JKFIT
	 Reference Energy          =    -380.7544869693918486 [Eh]
	 Singles Energy            =      -0.0000000000000000 [Eh]
	 Same-Spin Energy          =      -0.3714201834998829 [Eh]
	 Opposite-Spin Energy      =      -1.1734469666050336 [Eh]
	 Correlation Energy        =      -1.5448671501049165 [Eh]
	 Total Energy              =    -382.2993541194967406 [Eh]

	 ================> DF-SCS-MP2 Energies <==================
	-----------------------------------------------------------
	 SCS Same-Spin Scale       =       0.3333333333333333 [-]
	 SCS Opposite-Spin Scale   =       1.2000000000000000 [-]
	 SCS Same-Spin Energy      =      -0.1238067278332943 [Eh]
	 SCS Opposite-Spin Energy  =      -1.4081363599260401 [Eh]
	 SCS Correlation Energy    =      -1.5319430877593345 [Eh]
	 SCS Total Energy          =    -382.2864300571511649 [Eh]
	-----------------------------------------------------------

  Dipole Moment: [D]
     X:    -3.0499      Y:    -0.0102      Z:     1.0757     Total:     3.2341

*** Psi4 exiting successfully. Buy a developer a beer!
