                               Psi4 1.4a3.dev225

  ==> Input File <==

--------------------------------------------------------------------------
#psi4
#
memory 32 gb

molecule  {
0 1
  O        1.8620410    -0.7430760    -0.0482260
  O       -0.4607810     1.6104540    -0.2729240
  O       -2.1158920    -0.5489690    -0.2415960
  C        0.0351110     0.3306280     0.0450800
  C        1.4055899     0.3256853     0.8257213
  C        0.8265300    -0.4397330    -1.0269400
  C       -1.0393340    -0.5046660     0.7032500
  H        1.9101110     1.2646870     0.6518570
  H        1.3660090     0.0484500     1.8611560
  H        0.3876870    -1.3437740    -1.4598530
  H        1.1920660     0.2306130    -1.8145760
  H       -1.3510300    -0.0166450     1.6371240
  H       -0.6508050    -1.5058130     0.9301150
  H       -1.3576780     1.4570120    -0.6282440
  H       -2.8860090    -0.9542290     0.1902110
units angstrom
no_reorient  #important for SAPT in psi4, default
symmetry c1  #important for SAPT in psi4, default
}

set PROPERTIES_ORIGIN ["COM"]
properties('MP2/aug-cc-pvtz', properties = ['dipole'])
--------------------------------------------------------------------------

    Molecular point group: c1
  Charge       = 0
  Multiplicity = 1
  Basis Set: AUG-CC-PVTZ
    Blend: AUG-CC-PVTZ
  Basis Set: (AUG-CC-PVTZ AUX)
    Blend: AUG-CC-PVTZ-JKFIT

    Orbital Energies [Eh]
    ---------------------

    Doubly Occupied:

       1A    -20.584130     2A    -20.564501     3A    -20.554798
       4A    -11.295112     5A    -11.292817     6A    -11.280013
       7A    -11.276129     8A     -1.397604     9A     -1.373519
      10A     -1.353203    11A     -1.030979    12A     -0.939220
      13A     -0.914984    14A     -0.761525    15A     -0.730247
      16A     -0.703107    17A     -0.676274    18A     -0.658299
      19A     -0.618314    20A     -0.601550    21A     -0.572803
      22A     -0.554336    23A     -0.543571    24A     -0.513516
      25A     -0.474589    26A     -0.464502    27A     -0.431345
      28A     -0.416987

  @DF-RHF Final Energy:  -380.80479500790074

   => Energetics <=

    Nuclear Repulsion Energy =            334.7462802900002430
    One-Electron Energy =               -1185.9462046142414238
    Two-Electron Energy =                 470.3951293163405012
    Total Energy =                       -380.8047950079007364
  Basis Set: (AUG-CC-PVTZ AUX)
    Blend: AUG-CC-PVTZ-RI
    Molecular point group: c1

    Geometry (in Angstrom), charge = 0, multiplicity = 1:

       Center              X                  Y                   Z               Mass
    ------------   -----------------  -----------------  -----------------  -----------------
         O            1.843743926264    -0.750858833910    -0.038064802416    15.994914619570
         O           -0.479078073736     1.602671166090    -0.262762802416    15.994914619570
         O           -2.134189073736    -0.556751833910    -0.231434802416    15.994914619570
         C            0.016813926264     0.322845166090     0.055241197584    12.000000000000
         C            1.387292826264     0.317902466090     0.835882497584    12.000000000000
         C            0.808232926264    -0.447515833910    -1.016778802416    12.000000000000
         C           -1.057631073736    -0.512448833910     0.713411197584    12.000000000000
         H            1.891813926264     1.256904166090     0.662018197584     1.007825032230
         H            1.347711926264     0.040667166090     1.871317197584     1.007825032230
         H            0.369389926264    -1.351556833910    -1.449691802416     1.007825032230
         H            1.173768926264     0.222830166090    -1.804414802416     1.007825032230
         H           -1.369327073736    -0.024427833910     1.647285197584     1.007825032230
         H           -0.669102073736    -1.513595833910     0.940276197584     1.007825032230
         H           -1.375975073736     1.449229166090    -0.618082802416     1.007825032230
         H           -2.904306073736    -0.962011833910     0.200372197584     1.007825032230

  Basis Set: AUG-CC-PVTZ
    Blend: AUG-CC-PVTZ
  Basis Set: (AUG-CC-PVTZ AUX)
    Blend: AUG-CC-PVTZ-JKFIT
	 Reference Energy          =    -380.8047950079007364 [Eh]
	 Singles Energy            =      -0.0000000000000000 [Eh]
	 Same-Spin Energy          =      -0.3695712212949141 [Eh]
	 Opposite-Spin Energy      =      -1.1726417307438823 [Eh]
	 Correlation Energy        =      -1.5422129520387964 [Eh]
	 Total Energy              =    -382.3470079599395604 [Eh]

	 ================> DF-SCS-MP2 Energies <==================
	-----------------------------------------------------------
	 SCS Same-Spin Scale       =       0.3333333333333333 [-]
	 SCS Opposite-Spin Scale   =       1.2000000000000000 [-]
	 SCS Same-Spin Energy      =      -0.1231904070983047 [Eh]
	 SCS Opposite-Spin Energy  =      -1.4071700768926587 [Eh]
	 SCS Correlation Energy    =      -1.5303604839909635 [Eh]
	 SCS Total Energy          =    -382.3351554918917259 [Eh]
	-----------------------------------------------------------

  Dipole Moment: [D]
     X:    -2.5367      Y:    -0.8064      Z:     1.2627     Total:     2.9460

*** Psi4 exiting successfully. Buy a developer a beer!
