                               Psi4 1.4a3.dev225

  ==> Input File <==

--------------------------------------------------------------------------
#psi4
#
memory 32 gb

molecule  {
0 1
  O        1.8620410    -0.7430760    -0.0482260
  O       -0.4607810     1.6104540    -0.2729240
  O       -2.1158920    -0.5489690    -0.2415960
  C        0.0175124     0.3760474     0.0337944
  C        1.3621440     0.3258420     0.8009740
  C        0.8265300    -0.4397330    -1.0269400
  C       -1.0393340    -0.5046660     0.7032500
  H        1.9101110     1.2646870     0.6518570
  H        1.3660090     0.0484500     1.8611560
  H        0.3876870    -1.3437740    -1.4598530
  H        1.1920660     0.2306130    -1.8145760
  H       -1.3510300    -0.0166450     1.6371240
  H       -0.6508050    -1.5058130     0.9301150
  H       -1.3576780     1.4570120    -0.6282440
  H       -2.8860090    -0.9542290     0.1902110
units angstrom
no_reorient  #important for SAPT in psi4, default
symmetry c1  #important for SAPT in psi4, default
}

set PROPERTIES_ORIGIN ["COM"]
properties('MP2/aug-cc-pvtz', properties = ['dipole'])
--------------------------------------------------------------------------

    Molecular point group: c1
  Charge       = 0
  Multiplicity = 1
  Basis Set: AUG-CC-PVTZ
    Blend: AUG-CC-PVTZ
  Basis Set: (AUG-CC-PVTZ AUX)
    Blend: AUG-CC-PVTZ-JKFIT

    Orbital Energies [Eh]
    ---------------------

    Doubly Occupied:

       1A    -20.583751     2A    -20.571597     3A    -20.554117
       4A    -11.294601     5A    -11.292270     6A    -11.280362
       7A    -11.275565     8A     -1.409689     9A     -1.373434
      10A     -1.364066    11A     -1.029749    12A     -0.932804
      13A     -0.914893    14A     -0.766942    15A     -0.733664
      16A     -0.704997    17A     -0.676724    18A     -0.660597
      19A     -0.625278    20A     -0.597547    21A     -0.571448
      22A     -0.549211    23A     -0.547537    24A     -0.521837
      25A     -0.475594    26A     -0.466976    27A     -0.427349
      28A     -0.409347

  @DF-RHF Final Energy:  -380.80446368648489

   => Energetics <=

    Nuclear Repulsion Energy =            335.5474969327203780
    One-Electron Energy =               -1187.4800261801876786
    Two-Electron Energy =                 471.1280655609824066
    Total Energy =                       -380.8044636864848940
  Basis Set: (AUG-CC-PVTZ AUX)
    Blend: AUG-CC-PVTZ-RI
    Molecular point group: c1

    Geometry (in Angstrom), charge = 0, multiplicity = 1:

       Center              X                  Y                   Z               Mass
    ------------   -----------------  -----------------  -----------------  -----------------
         O            1.850784317407    -0.756115221804    -0.033909051938    15.994914619570
         O           -0.472037682593     1.597414778196    -0.258607051938    15.994914619570
         O           -2.127148682593    -0.562008221804    -0.227279051938    15.994914619570
         C            0.006255717407     0.363008178196     0.048111348062    12.000000000000
         C            1.350887317407     0.312802778196     0.815290948062    12.000000000000
         C            0.815273317407    -0.452772221804    -1.012623051938    12.000000000000
         C           -1.050590682593    -0.517705221804     0.717566948062    12.000000000000
         H            1.898854317407     1.251647778196     0.666173948062     1.007825032230
         H            1.354752317407     0.035410778196     1.875472948062     1.007825032230
         H            0.376430317407    -1.356813221804    -1.445536051938     1.007825032230
         H            1.180809317407     0.217573778196    -1.800259051938     1.007825032230
         H           -1.362286682593    -0.029684221804     1.651440948062     1.007825032230
         H           -0.662061682593    -1.518852221804     0.944431948062     1.007825032230
         H           -1.368934682593     1.443972778196    -0.613927051938     1.007825032230
         H           -2.897265682593    -0.967268221804     0.204527948062     1.007825032230

  Basis Set: AUG-CC-PVTZ
    Blend: AUG-CC-PVTZ
  Basis Set: (AUG-CC-PVTZ AUX)
    Blend: AUG-CC-PVTZ-JKFIT
	 Reference Energy          =    -380.8044636864848940 [Eh]
	 Singles Energy            =      -0.0000000000000000 [Eh]
	 Same-Spin Energy          =      -0.3698460816164756 [Eh]
	 Opposite-Spin Energy      =      -1.1722356620693872 [Eh]
	 Correlation Energy        =      -1.5420817436858629 [Eh]
	 Total Energy              =    -382.3465454301707496 [Eh]

	 ================> DF-SCS-MP2 Energies <==================
	-----------------------------------------------------------
	 SCS Same-Spin Scale       =       0.3333333333333333 [-]
	 SCS Opposite-Spin Scale   =       1.2000000000000000 [-]
	 SCS Same-Spin Energy      =      -0.1232820272054919 [Eh]
	 SCS Opposite-Spin Energy  =      -1.4066827944832647 [Eh]
	 SCS Correlation Energy    =      -1.5299648216887567 [Eh]
	 SCS Total Energy          =    -382.3344285081736302 [Eh]
	-----------------------------------------------------------

  Dipole Moment: [D]
     X:    -2.6732      Y:    -0.6454      Z:     1.1939     Total:     2.9980

*** Psi4 exiting successfully. Buy a developer a beer!
