                               Psi4 1.3.2 release

  ==> Input File <==

--------------------------------------------------------------------------
#psi4
#
memory 32 gb

molecule  {
0 1
  O        1.8620410    -0.7430760    -0.0482260
  O       -0.4607810     1.6104540    -0.2729240
  O       -2.1158920    -0.5489690    -0.2415960
  C        0.0351110     0.3306280     0.0450800
  C        1.2914504     0.3439766     0.7304693
  C        0.8265300    -0.4397330    -1.0269400
  C       -1.0393340    -0.5046660     0.7032500
  H        1.9101110     1.2646870     0.6518570
  H        1.3660090     0.0484500     1.8611560
  H        0.3876870    -1.3437740    -1.4598530
  H        1.1920660     0.2306130    -1.8145760
  H       -1.3510300    -0.0166450     1.6371240
  H       -0.6508050    -1.5058130     0.9301150
  H       -1.3576780     1.4570120    -0.6282440
  H       -2.8860090    -0.9542290     0.1902110
units angstrom
no_reorient  #important for SAPT in psi4, default
symmetry c1  #important for SAPT in psi4, default
}

set PROPERTIES_ORIGIN ["COM"]
properties('MP2/aug-cc-pvtz', properties = ['dipole'])
--------------------------------------------------------------------------

    Molecular point group: c1
  Charge       = 0
  Multiplicity = 1
  Basis Set: AUG-CC-PVTZ
    Blend: AUG-CC-PVTZ
  Basis Set: (AUG-CC-PVTZ AUX)
    Blend: AUG-CC-PVTZ-JKFIT

    Orbital Energies [Eh]
    ---------------------

    Doubly Occupied:

       1A    -20.585779     2A    -20.566509     3A    -20.555861
       4A    -11.295595     5A    -11.289941     6A    -11.284902
       7A    -11.279470     8A     -1.405097     9A     -1.379336
      10A     -1.356435    11A     -1.052207    12A     -0.933314
      13A     -0.927251    14A     -0.756098    15A     -0.732075
      16A     -0.712811    17A     -0.678106    18A     -0.660405
      19A     -0.625134    20A     -0.596090    21A     -0.568984
      22A     -0.546566    23A     -0.534903    24A     -0.517572
      25A     -0.488732    26A     -0.475805    27A     -0.438903
      28A     -0.409892

  @DF-RHF Final Energy:  -380.79337770375594

   => Energetics <=

    Nuclear Repulsion Energy =            337.4597632537353320
    One-Electron Energy =               -1191.1987359617123730
    Two-Electron Energy =                 472.9455950042211043
    Total Energy =                       -380.7933777037559366
  Basis Set: (AUG-CC-PVTZ AUX)
    Blend: AUG-CC-PVTZ-RI
    Molecular point group: c1

    Geometry (in Angstrom), charge = 0, multiplicity = 1:

       Center              X                  Y                   Z               Mass
    ------------   -----------------  -----------------  -----------------  -----------------
         O            1.856907875922    -0.752968408180    -0.027079188033    15.994914619570
         O           -0.465914124078     1.600561591820    -0.251777188033    15.994914619570
         O           -2.121025124078    -0.558861408180    -0.220449188033    15.994914619570
         C            0.029977875922     0.320735591820     0.066226811967    12.000000000000
         C            1.286317275922     0.334084191820     0.751616111967    12.000000000000
         C            0.821396875922    -0.449625408180    -1.005793188033    12.000000000000
         C           -1.044467124078    -0.514558408180     0.724396811967    12.000000000000
         H            1.904977875922     1.254794591820     0.673003811967     1.007825032230
         H            1.360875875922     0.038557591820     1.882302811967     1.007825032230
         H            0.382553875922    -1.353666408180    -1.438706188033     1.007825032230
         H            1.186932875922     0.220720591820    -1.793429188033     1.007825032230
         H           -1.356163124078    -0.026537408180     1.658270811967     1.007825032230
         H           -0.655938124078    -1.515705408180     0.951261811967     1.007825032230
         H           -1.362811124078     1.447119591820    -0.607097188033     1.007825032230
         H           -2.891142124078    -0.964121408180     0.211357811967     1.007825032230

  Basis Set: AUG-CC-PVTZ
    Blend: AUG-CC-PVTZ
  Basis Set: (AUG-CC-PVTZ AUX)
    Blend: AUG-CC-PVTZ-JKFIT
	 Reference Energy          =    -380.7933777037559366 [Eh]
	 Singles Energy            =      -0.0000000000000000 [Eh]
	 Same-Spin Energy          =      -0.3710252392788044 [Eh]
	 Opposite-Spin Energy      =      -1.1739714707339155 [Eh]
	 Correlation Energy        =      -1.5449967100127200 [Eh]
	 Total Energy              =    -382.3383744137686335 [Eh]

	 ================> DF-SCS-MP2 Energies <==================
	-----------------------------------------------------------
	 SCS Same-Spin Scale       =       0.3333333333333333 [-]
	 SCS Opposite-Spin Scale   =       1.2000000000000000 [-]
	 SCS Same-Spin Energy      =      -0.1236750797596015 [Eh]
	 SCS Opposite-Spin Energy  =      -1.4087657648806986 [Eh]
	 SCS Correlation Energy    =      -1.5324408446403002 [Eh]
	 SCS Total Energy          =    -382.3258185483962279 [Eh]
	-----------------------------------------------------------

  Dipole Moment: [D]
     X:    -2.6053      Y:    -0.8323      Z:     1.0822     Total:     2.9413

*** Psi4 exiting successfully. Buy a developer a beer!
