                               Psi4 1.3.2 release

  ==> Input File <==

--------------------------------------------------------------------------
#psi4
#
memory 32 gb

molecule  {
0 1
  O        1.8620410    -0.7430760    -0.0482260
  O       -0.4607810     1.6104540    -0.2729240
  O       -2.1158920    -0.5489690    -0.2415960
  C        0.0351110     0.3306280     0.0450800
  C        1.3621440     0.3258420     0.8009740
  C        0.8265300    -0.4397330    -1.0269400
  C       -1.0393340    -0.5046660     0.7032500
  H        1.8102299     1.0935584     0.6790374
  H        1.3660090     0.0484500     1.8611560
  H        0.3876870    -1.3437740    -1.4598530
  H        1.1920660     0.2306130    -1.8145760
  H       -1.3510300    -0.0166450     1.6371240
  H       -0.6508050    -1.5058130     0.9301150
  H       -1.3576780     1.4570120    -0.6282440
  H       -2.8860090    -0.9542290     0.1902110
units angstrom
no_reorient  #important for SAPT in psi4, default
symmetry c1  #important for SAPT in psi4, default
}

set PROPERTIES_ORIGIN ["COM"]
properties('MP2/aug-cc-pvtz', properties = ['dipole'])
--------------------------------------------------------------------------

    Molecular point group: c1
  Charge       = 0
  Multiplicity = 1
  Basis Set: AUG-CC-PVTZ
    Blend: AUG-CC-PVTZ
  Basis Set: (AUG-CC-PVTZ AUX)
    Blend: AUG-CC-PVTZ-JKFIT

    Orbital Energies [Eh]
    ---------------------

    Doubly Occupied:

       1A    -20.583798     2A    -20.565307     3A    -20.552391
       4A    -11.292748     5A    -11.292015     6A    -11.276044
       7A    -11.257318     8A     -1.399293     9A     -1.374600
      10A     -1.353812    11A     -1.037924    12A     -0.958163
      13A     -0.920938    14A     -0.773483    15A     -0.730593
      16A     -0.713388    17A     -0.676391    18A     -0.658381
      19A     -0.619656    20A     -0.611445    21A     -0.580185
      22A     -0.551629    23A     -0.542739    24A     -0.513751
      25A     -0.475315    26A     -0.471283    27A     -0.436631
      28A     -0.417869

  @DF-RHF Final Energy:  -380.77437069474195

   => Energetics <=

    Nuclear Repulsion Energy =            336.7792319617955172
    One-Electron Energy =               -1189.8330207474994040
    Two-Electron Energy =                 472.2794180909619399
    Total Energy =                       -380.7743706947419469
  Basis Set: (AUG-CC-PVTZ AUX)
    Blend: AUG-CC-PVTZ-RI
    Molecular point group: c1

    Geometry (in Angstrom), charge = 0, multiplicity = 1:

       Center              X                  Y                   Z               Mass
    ------------   -----------------  -----------------  -----------------  -----------------
         O            1.849722103584    -0.749219317897    -0.035473919248    15.994914619570
         O           -0.473099896416     1.604310682103    -0.260171919248    15.994914619570
         O           -2.128210896416    -0.555112317897    -0.228843919248    15.994914619570
         C            0.022792103584     0.324484682103     0.057832080752    12.000000000000
         C            1.349825103584     0.319698682103     0.813726080752    12.000000000000
         C            0.814211103584    -0.445876317897    -1.014187919248    12.000000000000
         C           -1.051652896416    -0.510809317897     0.716002080752    12.000000000000
         H            1.797911003584     1.087415082103     0.691789480752     1.007825032230
         H            1.353690103584     0.042306682103     1.873908080752     1.007825032230
         H            0.375368103584    -1.349917317897    -1.447100919248     1.007825032230
         H            1.179747103584     0.224469682103    -1.801823919248     1.007825032230
         H           -1.363348896416    -0.022788317897     1.649876080752     1.007825032230
         H           -0.663123896416    -1.511956317897     0.942867080752     1.007825032230
         H           -1.369996896416     1.450868682103    -0.615491919248     1.007825032230
         H           -2.898327896416    -0.960372317897     0.202963080752     1.007825032230

  Basis Set: AUG-CC-PVTZ
    Blend: AUG-CC-PVTZ
  Basis Set: (AUG-CC-PVTZ AUX)
    Blend: AUG-CC-PVTZ-JKFIT
	 Reference Energy          =    -380.7743706947419469 [Eh]
	 Singles Energy            =      -0.0000000000000000 [Eh]
	 Same-Spin Energy          =      -0.3696132577228162 [Eh]
	 Opposite-Spin Energy      =      -1.1717289879891788 [Eh]
	 Correlation Energy        =      -1.5413422457119950 [Eh]
	 Total Energy              =    -382.3157129404539205 [Eh]

	 ================> DF-SCS-MP2 Energies <==================
	-----------------------------------------------------------
	 SCS Same-Spin Scale       =       0.3333333333333333 [-]
	 SCS Opposite-Spin Scale   =       1.2000000000000000 [-]
	 SCS Same-Spin Energy      =      -0.1232044192409387 [Eh]
	 SCS Opposite-Spin Energy  =      -1.4060747855870146 [Eh]
	 SCS Correlation Energy    =      -1.5292792048279533 [Eh]
	 SCS Total Energy          =    -382.3036498995699048 [Eh]
	-----------------------------------------------------------

  Dipole Moment: [D]
     X:    -2.5251      Y:    -0.7407      Z:     1.2560     Total:     2.9159

*** Psi4 exiting successfully. Buy a developer a beer!
