                               Psi4 1.3.2 release

  ==> Input File <==

--------------------------------------------------------------------------
#psi4
#
memory 32 gb

molecule  {
0 1
  O        1.8620410    -0.7430760    -0.0482260
  O       -0.4607810     1.6104540    -0.2729240
  O       -2.1158920    -0.5489690    -0.2415960
  C        0.0351110     0.3306280     0.0450800
  C        1.3733081     0.3124389     0.7808197
  C        0.8265300    -0.4397330    -1.0269400
  C       -1.0393340    -0.5046660     0.7032500
  H        1.9101110     1.2646870     0.6518570
  H        1.3660090     0.0484500     1.8611560
  H        0.3876870    -1.3437740    -1.4598530
  H        1.1920660     0.2306130    -1.8145760
  H       -1.3510300    -0.0166450     1.6371240
  H       -0.6508050    -1.5058130     0.9301150
  H       -1.3576780     1.4570120    -0.6282440
  H       -2.8860090    -0.9542290     0.1902110
units angstrom
no_reorient  #important for SAPT in psi4, default
symmetry c1  #important for SAPT in psi4, default
}

set PROPERTIES_ORIGIN ["COM"]
properties('MP2/aug-cc-pvtz', properties = ['dipole'])
--------------------------------------------------------------------------

    Molecular point group: c1
  Charge       = 0
  Multiplicity = 1
  Basis Set: AUG-CC-PVTZ
    Blend: AUG-CC-PVTZ
  Basis Set: (AUG-CC-PVTZ AUX)
    Blend: AUG-CC-PVTZ-JKFIT

    Orbital Energies [Eh]
    ---------------------

    Doubly Occupied:

       1A    -20.584563     2A    -20.565268     3A    -20.556829
       4A    -11.293716     5A    -11.292696     6A    -11.281464
       7A    -11.278206     8A     -1.402697     9A     -1.379936
      10A     -1.355792    11A     -1.037398    12A     -0.936895
      13A     -0.918957    14A     -0.758313    15A     -0.730783
      16A     -0.707045    17A     -0.677922    18A     -0.659659
      19A     -0.622722    20A     -0.600781    21A     -0.571252
      22A     -0.548596    23A     -0.544570    24A     -0.516704
      25A     -0.475893    26A     -0.471235    27A     -0.433789
      28A     -0.415794

  @DF-RHF Final Energy:  -380.80652678759498

   => Energetics <=

    Nuclear Repulsion Energy =            335.9515087737567001
    One-Electron Energy =               -1188.2771209225347775
    Two-Electron Energy =                 471.5190853611831017
    Total Energy =                       -380.8065267875949758
  Basis Set: (AUG-CC-PVTZ AUX)
    Blend: AUG-CC-PVTZ-RI
    Molecular point group: c1

    Geometry (in Angstrom), charge = 0, multiplicity = 1:

       Center              X                  Y                   Z               Mass
    ------------   -----------------  -----------------  -----------------  -----------------
         O            1.847467054454    -0.749331098614    -0.032886206032    15.994914619570
         O           -0.475354945546     1.604198901386    -0.257584206032    15.994914619570
         O           -2.130465945546    -0.555224098614    -0.226256206032    15.994914619570
         C            0.020537054454     0.324372901386     0.060419793968    12.000000000000
         C            1.358734154454     0.306183801386     0.796159493968    12.000000000000
         C            0.811956054454    -0.445988098614    -1.011600206032    12.000000000000
         C           -1.053907945546    -0.510921098614     0.718589793968    12.000000000000
         H            1.895537054454     1.258431901386     0.667196793968     1.007825032230
         H            1.351435054454     0.042194901386     1.876495793968     1.007825032230
         H            0.373113054454    -1.350029098614    -1.444513206032     1.007825032230
         H            1.177492054454     0.224357901386    -1.799236206032     1.007825032230
         H           -1.365603945546    -0.022900098614     1.652463793968     1.007825032230
         H           -0.665378945546    -1.512068098614     0.945454793968     1.007825032230
         H           -1.372251945546     1.450756901386    -0.612904206032     1.007825032230
         H           -2.900582945546    -0.960484098614     0.205550793968     1.007825032230

  Basis Set: AUG-CC-PVTZ
    Blend: AUG-CC-PVTZ
  Basis Set: (AUG-CC-PVTZ AUX)
    Blend: AUG-CC-PVTZ-JKFIT
	 Reference Energy          =    -380.8065267875949758 [Eh]
	 Singles Energy            =      -0.0000000000000000 [Eh]
	 Same-Spin Energy          =      -0.3697970977433396 [Eh]
	 Opposite-Spin Energy      =      -1.1722152987467434 [Eh]
	 Correlation Energy        =      -1.5420123964900829 [Eh]
	 Total Energy              =    -382.3485391840850411 [Eh]

	 ================> DF-SCS-MP2 Energies <==================
	-----------------------------------------------------------
	 SCS Same-Spin Scale       =       0.3333333333333333 [-]
	 SCS Opposite-Spin Scale   =       1.2000000000000000 [-]
	 SCS Same-Spin Energy      =      -0.1232656992477799 [Eh]
	 SCS Opposite-Spin Energy  =      -1.4066583584960919 [Eh]
	 SCS Correlation Energy    =      -1.5299240577438717 [Eh]
	 SCS Total Energy          =    -382.3364508453388453 [Eh]
	-----------------------------------------------------------

  Dipole Moment: [D]
     X:    -2.5515      Y:    -0.8605      Z:     1.1624     Total:     2.9329

*** Psi4 exiting successfully. Buy a developer a beer!
