                               Psi4 1.3.2 release

  ==> Input File <==

--------------------------------------------------------------------------
#psi4
#
memory 32 gb

molecule  {
0 1
  O        1.8620410    -0.7430760    -0.0482260
  O       -0.4607810     1.6104540    -0.2729240
  O       -2.1158920    -0.5489690    -0.2415960
  C       -0.0936343     0.2772601    -0.0031329
  C        1.3621440     0.3258420     0.8009740
  C        0.8265300    -0.4397330    -1.0269400
  C       -1.0393340    -0.5046660     0.7032500
  H        1.9101110     1.2646870     0.6518570
  H        1.3660090     0.0484500     1.8611560
  H        0.3876870    -1.3437740    -1.4598530
  H        1.1920660     0.2306130    -1.8145760
  H       -1.3510300    -0.0166450     1.6371240
  H       -0.6508050    -1.5058130     0.9301150
  H       -1.3576780     1.4570120    -0.6282440
  H       -2.8860090    -0.9542290     0.1902110
units angstrom
no_reorient  #important for SAPT in psi4, default
symmetry c1  #important for SAPT in psi4, default
}

set PROPERTIES_ORIGIN ["COM"]
properties('MP2/aug-cc-pvtz', properties = ['dipole'])
--------------------------------------------------------------------------

    Molecular point group: c1
  Charge       = 0
  Multiplicity = 1
  Basis Set: AUG-CC-PVTZ
    Blend: AUG-CC-PVTZ
  Basis Set: (AUG-CC-PVTZ AUX)
    Blend: AUG-CC-PVTZ-JKFIT

    Orbital Energies [Eh]
    ---------------------

    Doubly Occupied:

       1A    -20.584704     2A    -20.569813     3A    -20.553706
       4A    -11.294473     5A    -11.291718     6A    -11.281598
       7A    -11.280804     8A     -1.403629     9A     -1.372329
      10A     -1.355716    11A     -1.047697    12A     -0.932762
      13A     -0.909077    14A     -0.762687    15A     -0.738009
      16A     -0.700375    17A     -0.675778    18A     -0.653725
      19A     -0.616233    20A     -0.604004    21A     -0.572500
      22A     -0.550958    23A     -0.548706    24A     -0.528027
      25A     -0.478339    26A     -0.459777    27A     -0.425087
      28A     -0.405730

  @DF-RHF Final Energy:  -380.78125948342279

   => Energetics <=

    Nuclear Repulsion Energy =            335.6607961090261938
    One-Electron Energy =               -1187.6881867369547763
    Two-Electron Energy =                 471.2461311445057390
    Total Energy =                       -380.7812594834227866
  Basis Set: (AUG-CC-PVTZ AUX)
    Blend: AUG-CC-PVTZ-RI
    Molecular point group: c1

    Geometry (in Angstrom), charge = 0, multiplicity = 1:

       Center              X                  Y                   Z               Mass
    ------------   -----------------  -----------------  -----------------  -----------------
         O            1.863603101119    -0.744721873804    -0.029650148419    15.994914619570
         O           -0.459218898881     1.608808126196    -0.254348148419    15.994914619570
         O           -2.114329898881    -0.550614873804    -0.223020148419    15.994914619570
         C           -0.092072198881     0.275614226196     0.015442951581    12.000000000000
         C            1.363706101119     0.324196126196     0.819549851581    12.000000000000
         C            0.828092101119    -0.441378873804    -1.008364148419    12.000000000000
         C           -1.037771898881    -0.506311873804     0.721825851581    12.000000000000
         H            1.911673101119     1.263041126196     0.670432851581     1.007825032230
         H            1.367571101119     0.046804126196     1.879731851581     1.007825032230
         H            0.389249101119    -1.345419873804    -1.441277148419     1.007825032230
         H            1.193628101119     0.228967126196    -1.796000148419     1.007825032230
         H           -1.349467898881    -0.018290873804     1.655699851581     1.007825032230
         H           -0.649242898881    -1.507458873804     0.948690851581     1.007825032230
         H           -1.356115898881     1.455366126196    -0.609668148419     1.007825032230
         H           -2.884446898881    -0.955874873804     0.208786851581     1.007825032230

  Basis Set: AUG-CC-PVTZ
    Blend: AUG-CC-PVTZ
  Basis Set: (AUG-CC-PVTZ AUX)
    Blend: AUG-CC-PVTZ-JKFIT
	 Reference Energy          =    -380.7812594834227866 [Eh]
	 Singles Energy            =      -0.0000000000000000 [Eh]
	 Same-Spin Energy          =      -0.3715147947989637 [Eh]
	 Opposite-Spin Energy      =      -1.1761262326138824 [Eh]
	 Correlation Energy        =      -1.5476410274128460 [Eh]
	 Total Energy              =    -382.3289005108356378 [Eh]

	 ================> DF-SCS-MP2 Energies <==================
	-----------------------------------------------------------
	 SCS Same-Spin Scale       =       0.3333333333333333 [-]
	 SCS Opposite-Spin Scale   =       1.2000000000000000 [-]
	 SCS Same-Spin Energy      =      -0.1238382649329879 [Eh]
	 SCS Opposite-Spin Energy  =      -1.4113514791366588 [Eh]
	 SCS Correlation Energy    =      -1.5351897440696467 [Eh]
	 SCS Total Energy          =    -382.3164492274924555 [Eh]
	-----------------------------------------------------------

  Dipole Moment: [D]
     X:    -2.7076      Y:    -0.8139      Z:     1.2335     Total:     3.0846

*** Psi4 exiting successfully. Buy a developer a beer!
