                               Psi4 1.3.2 release

  ==> Input File <==

--------------------------------------------------------------------------
#psi4
#
memory 32 gb

molecule  {
0 1
  O        1.8839089    -0.7427693    -0.0353601
  O       -0.4607810     1.6104540    -0.2729240
  O       -2.1158920    -0.5489690    -0.2415960
  C        0.0351110     0.3306280     0.0450800
  C        1.3621440     0.3258420     0.8009740
  C        0.8265300    -0.4397330    -1.0269400
  C       -1.0393340    -0.5046660     0.7032500
  H        1.9101110     1.2646870     0.6518570
  H        1.3660090     0.0484500     1.8611560
  H        0.3876870    -1.3437740    -1.4598530
  H        1.1920660     0.2306130    -1.8145760
  H       -1.3510300    -0.0166450     1.6371240
  H       -0.6508050    -1.5058130     0.9301150
  H       -1.3576780     1.4570120    -0.6282440
  H       -2.8860090    -0.9542290     0.1902110
units angstrom
no_reorient  #important for SAPT in psi4, default
symmetry c1  #important for SAPT in psi4, default
}

set PROPERTIES_ORIGIN ["COM"]
properties('MP2/aug-cc-pvtz', properties = ['dipole'])
--------------------------------------------------------------------------

    Molecular point group: c1
  Charge       = 0
  Multiplicity = 1
  Basis Set: AUG-CC-PVTZ
    Blend: AUG-CC-PVTZ
  Basis Set: (AUG-CC-PVTZ AUX)
    Blend: AUG-CC-PVTZ-JKFIT

    Orbital Energies [Eh]
    ---------------------

    Doubly Occupied:

       1A    -20.584985     2A    -20.566080     3A    -20.555057
       4A    -11.294609     5A    -11.293797     6A    -11.280393
       7A    -11.279602     8A     -1.398328     9A     -1.371955
      10A     -1.352713    11A     -1.038359    12A     -0.935026
      13A     -0.919587    14A     -0.760441    15A     -0.731181
      16A     -0.704721    17A     -0.676004    18A     -0.658532
      19A     -0.618490    20A     -0.597707    21A     -0.570533
      22A     -0.548937    23A     -0.542403    24A     -0.515357
      25A     -0.476314    26A     -0.471057    27A     -0.435319
      28A     -0.417463

  @DF-RHF Final Energy:  -380.80521881799552

   => Energetics <=

    Nuclear Repulsion Energy =            335.0571804574993848
    One-Electron Energy =               -1186.5349035116591949
    Two-Electron Energy =                 470.6725042361642863
    Total Energy =                       -380.8052188179955238
  Basis Set: (AUG-CC-PVTZ AUX)
    Blend: AUG-CC-PVTZ-RI
    Molecular point group: c1

    Geometry (in Angstrom), charge = 0, multiplicity = 1:

       Center              X                  Y                   Z               Mass
    ------------   -----------------  -----------------  -----------------  -----------------
         O            1.867260841028    -0.750617354607    -0.024322583767    15.994914619570
         O           -0.477429058972     1.602605945393    -0.261886483767    15.994914619570
         O           -2.132540058972    -0.556817054607    -0.230558483767    15.994914619570
         C            0.018462941028     0.322779945393     0.056117516233    12.000000000000
         C            1.345495941028     0.317993945393     0.812011516233    12.000000000000
         C            0.809881941028    -0.447581054607    -1.015902483767    12.000000000000
         C           -1.055982058972    -0.512514054607     0.714287516233    12.000000000000
         H            1.893462941028     1.256838945393     0.662894516233     1.007825032230
         H            1.349360941028     0.040601945393     1.872193516233     1.007825032230
         H            0.371038941028    -1.351622054607    -1.448815483767     1.007825032230
         H            1.175417941028     0.222764945393    -1.803538483767     1.007825032230
         H           -1.367678058972    -0.024493054607     1.648161516233     1.007825032230
         H           -0.667453058972    -1.513661054607     0.941152516233     1.007825032230
         H           -1.374326058972     1.449163945393    -0.617206483767     1.007825032230
         H           -2.902657058972    -0.962077054607     0.201248516233     1.007825032230

  Basis Set: AUG-CC-PVTZ
    Blend: AUG-CC-PVTZ
  Basis Set: (AUG-CC-PVTZ AUX)
    Blend: AUG-CC-PVTZ-JKFIT
	 Reference Energy          =    -380.8052188179955238 [Eh]
	 Singles Energy            =      -0.0000000000000000 [Eh]
	 Same-Spin Energy          =      -0.3699896923167956 [Eh]
	 Opposite-Spin Energy      =      -1.1733799552206714 [Eh]
	 Correlation Energy        =      -1.5433696475374670 [Eh]
	 Total Energy              =    -382.3485884655329983 [Eh]

	 ================> DF-SCS-MP2 Energies <==================
	-----------------------------------------------------------
	 SCS Same-Spin Scale       =       0.3333333333333333 [-]
	 SCS Opposite-Spin Scale   =       1.2000000000000000 [-]
	 SCS Same-Spin Energy      =      -0.1233298974389319 [Eh]
	 SCS Opposite-Spin Energy  =      -1.4080559462648057 [Eh]
	 SCS Correlation Energy    =      -1.5313858437037375 [Eh]
	 SCS Total Energy          =    -382.3366046616992548 [Eh]
	-----------------------------------------------------------

  Dipole Moment: [D]
     X:    -2.6267      Y:    -0.8152      Z:     1.1711     Total:     2.9893

*** Psi4 exiting successfully. Buy a developer a beer!
