                               Psi4 1.3.2 release

  ==> Input File <==

--------------------------------------------------------------------------
#psi4
#
memory 32 gb

molecule  {
0 1
  O        1.8962292    -0.7107634    -0.0672573
  O       -0.4607810     1.6104540    -0.2729240
  O       -2.1158920    -0.5489690    -0.2415960
  C        0.0351110     0.3306280     0.0450800
  C        1.3621440     0.3258420     0.8009740
  C        0.8265300    -0.4397330    -1.0269400
  C       -1.0393340    -0.5046660     0.7032500
  H        1.9101110     1.2646870     0.6518570
  H        1.3660090     0.0484500     1.8611560
  H        0.3876870    -1.3437740    -1.4598530
  H        1.1920660     0.2306130    -1.8145760
  H       -1.3510300    -0.0166450     1.6371240
  H       -0.6508050    -1.5058130     0.9301150
  H       -1.3576780     1.4570120    -0.6282440
  H       -2.8860090    -0.9542290     0.1902110
units angstrom
no_reorient  #important for SAPT in psi4, default
symmetry c1  #important for SAPT in psi4, default
}

set PROPERTIES_ORIGIN ["COM"]
properties('MP2/aug-cc-pvtz', properties = ['dipole'])
--------------------------------------------------------------------------

    Molecular point group: c1
  Charge       = 0
  Multiplicity = 1
  Basis Set: AUG-CC-PVTZ
    Blend: AUG-CC-PVTZ
  Basis Set: (AUG-CC-PVTZ AUX)
    Blend: AUG-CC-PVTZ-JKFIT

    Orbital Energies [Eh]
    ---------------------

    Doubly Occupied:

       1A    -20.585127     2A    -20.565806     3A    -20.554043
       4A    -11.294507     5A    -11.293828     6A    -11.280732
       7A    -11.277278     8A     -1.399206     9A     -1.374337
      10A     -1.353913    11A     -1.038302    12A     -0.936246
      13A     -0.918595    14A     -0.759747    15A     -0.731497
      16A     -0.705281    17A     -0.677207    18A     -0.659036
      19A     -0.619622    20A     -0.598572    21A     -0.568856
      22A     -0.553156    23A     -0.542267    24A     -0.515772
      25A     -0.476643    26A     -0.470567    27A     -0.434228
      28A     -0.416357

  @DF-RHF Final Energy:  -380.80637861792138

   => Energetics <=

    Nuclear Repulsion Energy =            335.2911604030280728
    One-Electron Energy =               -1186.9936220012293688
    Two-Electron Energy =                 470.8960829802799708
    Total Energy =                       -380.8063786179213821
  Basis Set: (AUG-CC-PVTZ AUX)
    Blend: AUG-CC-PVTZ-RI
    Molecular point group: c1

    Geometry (in Angstrom), charge = 0, multiplicity = 1:

       Center              X                  Y                   Z               Mass
    ------------   -----------------  -----------------  -----------------  -----------------
         O            1.877687174889    -0.723531634379    -0.051316314150    15.994914619570
         O           -0.479323025111     1.597685765621    -0.256983014150    15.994914619570
         O           -2.134434025111    -0.561737234379    -0.225655014150    15.994914619570
         C            0.016568974889     0.317859765621     0.061020985850    12.000000000000
         C            1.343601974889     0.313073765621     0.816914985850    12.000000000000
         C            0.807987974889    -0.452501234379    -1.010999014150    12.000000000000
         C           -1.057876025111    -0.517434234379     0.719190985850    12.000000000000
         H            1.891568974889     1.251918765621     0.667797985850     1.007825032230
         H            1.347466974889     0.035681765621     1.877096985850     1.007825032230
         H            0.369144974889    -1.356542234379    -1.443912014150     1.007825032230
         H            1.173523974889     0.217844765621    -1.798635014150     1.007825032230
         H           -1.369572025111    -0.029413234379     1.653064985850     1.007825032230
         H           -0.669347025111    -1.518581234379     0.946055985850     1.007825032230
         H           -1.376220025111     1.444243765621    -0.612303014150     1.007825032230
         H           -2.904551025111    -0.966997234379     0.206151985850     1.007825032230

  Basis Set: AUG-CC-PVTZ
    Blend: AUG-CC-PVTZ
  Basis Set: (AUG-CC-PVTZ AUX)
    Blend: AUG-CC-PVTZ-JKFIT
	 Reference Energy          =    -380.8063786179213821 [Eh]
	 Singles Energy            =      -0.0000000000000000 [Eh]
	 Same-Spin Energy          =      -0.3697604323674136 [Eh]
	 Opposite-Spin Energy      =      -1.1727104826112744 [Eh]
	 Correlation Energy        =      -1.5424709149786882 [Eh]
	 Total Energy              =    -382.3488495329000898 [Eh]

	 ================> DF-SCS-MP2 Energies <==================
	-----------------------------------------------------------
	 SCS Same-Spin Scale       =       0.3333333333333333 [-]
	 SCS Opposite-Spin Scale   =       1.2000000000000000 [-]
	 SCS Same-Spin Energy      =      -0.1232534774558045 [Eh]
	 SCS Opposite-Spin Energy  =      -1.4072525791335293 [Eh]
	 SCS Correlation Energy    =      -1.5305060565893338 [Eh]
	 SCS Total Energy          =    -382.3368846745107135 [Eh]
	-----------------------------------------------------------

  Dipole Moment: [D]
     X:    -2.6364      Y:    -0.8658      Z:     1.2501     Total:     3.0435

*** Psi4 exiting successfully. Buy a developer a beer!
