                               Psi4 1.3.2 release

  ==> Input File <==

--------------------------------------------------------------------------
#psi4
#
memory 32 gb

molecule  {
0 1
  O        1.8620410    -0.7430760    -0.0482260
  O       -0.4607810     1.6104540    -0.2729240
  O       -2.1158920    -0.5489690    -0.2415960
  C        0.0351110     0.3306280     0.0450800
  C        1.3167259     0.2614708     0.8727851
  C        0.8265300    -0.4397330    -1.0269400
  C       -1.0393340    -0.5046660     0.7032500
  H        1.9101110     1.2646870     0.6518570
  H        1.3660090     0.0484500     1.8611560
  H        0.3876870    -1.3437740    -1.4598530
  H        1.1920660     0.2306130    -1.8145760
  H       -1.3510300    -0.0166450     1.6371240
  H       -0.6508050    -1.5058130     0.9301150
  H       -1.3576780     1.4570120    -0.6282440
  H       -2.8860090    -0.9542290     0.1902110
units angstrom
no_reorient  #important for SAPT in psi4, default
symmetry c1  #important for SAPT in psi4, default
}

set PROPERTIES_ORIGIN ["COM"]
properties('MP2/aug-cc-pvtz', properties = ['dipole'])
--------------------------------------------------------------------------

    Molecular point group: c1
  Charge       = 0
  Multiplicity = 1
  Basis Set: AUG-CC-PVTZ
    Blend: AUG-CC-PVTZ
  Basis Set: (AUG-CC-PVTZ AUX)
    Blend: AUG-CC-PVTZ-JKFIT

    Orbital Energies [Eh]
    ---------------------

    Doubly Occupied:

       1A    -20.583745     2A    -20.566541     3A    -20.554406
       4A    -11.295946     5A    -11.292977     6A    -11.282643
       7A    -11.276650     8A     -1.398328     9A     -1.372187
      10A     -1.353338    11A     -1.039483    12A     -0.940821
      13A     -0.914551    14A     -0.766505    15A     -0.731717
      16A     -0.702090    17A     -0.681696    18A     -0.659871
      19A     -0.619871    20A     -0.594767    21A     -0.562794
      22A     -0.557892    23A     -0.538861    24A     -0.513448
      25A     -0.477564    26A     -0.473096    27A     -0.434871
      28A     -0.410753

  @DF-RHF Final Energy:  -380.79338601840391

   => Energetics <=

    Nuclear Repulsion Energy =            335.5012124809571787
    One-Electron Energy =               -1187.3943703031438872
    Two-Electron Energy =                 471.0997718037828008
    Total Energy =                       -380.7933860184039077
  Basis Set: (AUG-CC-PVTZ AUX)
    Blend: AUG-CC-PVTZ-RI
    Molecular point group: c1

    Geometry (in Angstrom), charge = 0, multiplicity = 1:

       Center              X                  Y                   Z               Mass
    ------------   -----------------  -----------------  -----------------  -----------------
         O            1.853992799111    -0.743452839970    -0.043492769894    15.994914619570
         O           -0.468829200889     1.610077160030    -0.268190769894    15.994914619570
         O           -2.123940200889    -0.549345839970    -0.236862769894    15.994914619570
         C            0.027062799111     0.330251160030     0.049813230106    12.000000000000
         C            1.308677699111     0.261093960030     0.877518330106    12.000000000000
         C            0.818481799111    -0.440109839970    -1.022206769894    12.000000000000
         C           -1.047382200889    -0.505042839970     0.707983230106    12.000000000000
         H            1.902062799111     1.264310160030     0.656590230106     1.007825032230
         H            1.357960799111     0.048073160030     1.865889230106     1.007825032230
         H            0.379638799111    -1.344150839970    -1.455119769894     1.007825032230
         H            1.184017799111     0.230236160030    -1.809842769894     1.007825032230
         H           -1.359078200889    -0.017021839970     1.641857230106     1.007825032230
         H           -0.658853200889    -1.506189839970     0.934848230106     1.007825032230
         H           -1.365726200889     1.456635160030    -0.623510769894     1.007825032230
         H           -2.894057200889    -0.954605839970     0.194944230106     1.007825032230

  Basis Set: AUG-CC-PVTZ
    Blend: AUG-CC-PVTZ
  Basis Set: (AUG-CC-PVTZ AUX)
    Blend: AUG-CC-PVTZ-JKFIT
	 Reference Energy          =    -380.7933860184039077 [Eh]
	 Singles Energy            =      -0.0000000000000000 [Eh]
	 Same-Spin Energy          =      -0.3701043014102782 [Eh]
	 Opposite-Spin Energy      =      -1.1736590748955993 [Eh]
	 Correlation Energy        =      -1.5437633763058773 [Eh]
	 Total Energy              =    -382.3371493947097974 [Eh]

	 ================> DF-SCS-MP2 Energies <==================
	-----------------------------------------------------------
	 SCS Same-Spin Scale       =       0.3333333333333333 [-]
	 SCS Opposite-Spin Scale   =       1.2000000000000000 [-]
	 SCS Same-Spin Energy      =      -0.1233681004700927 [Eh]
	 SCS Opposite-Spin Energy  =      -1.4083908898747191 [Eh]
	 SCS Correlation Energy    =      -1.5317589903448119 [Eh]
	 SCS Total Energy          =    -382.3251450087487342 [Eh]
	-----------------------------------------------------------

  Dipole Moment: [D]
     X:    -2.6206      Y:    -0.9181      Z:     1.3291     Total:     3.0785

*** Psi4 exiting successfully. Buy a developer a beer!
