                               Psi4 1.3.2 release

  ==> Input File <==

--------------------------------------------------------------------------
#psi4
#
memory 32 gb

molecule  {
0 1
  O        1.8620410    -0.7430760    -0.0482260
  O       -0.4607810     1.6104540    -0.2729240
  O       -2.1158920    -0.5489690    -0.2415960
  C        0.0351110     0.3306280     0.0450800
  C        1.3621440     0.3258420     0.8009740
  C        0.8265300    -0.4397330    -1.0269400
  C       -1.0393340    -0.5046660     0.7032500
  H        1.9025739     1.2623524     0.6143797
  H        1.3660090     0.0484500     1.8611560
  H        0.3876870    -1.3437740    -1.4598530
  H        1.1920660     0.2306130    -1.8145760
  H       -1.3510300    -0.0166450     1.6371240
  H       -0.6508050    -1.5058130     0.9301150
  H       -1.3576780     1.4570120    -0.6282440
  H       -2.8860090    -0.9542290     0.1902110
units angstrom
no_reorient  #important for SAPT in psi4, default
symmetry c1  #important for SAPT in psi4, default
}

set PROPERTIES_ORIGIN ["COM"]
properties('MP2/aug-cc-pvtz', properties = ['dipole'])
--------------------------------------------------------------------------

    Molecular point group: c1
  Charge       = 0
  Multiplicity = 1
  Basis Set: AUG-CC-PVTZ
    Blend: AUG-CC-PVTZ
  Basis Set: (AUG-CC-PVTZ AUX)
    Blend: AUG-CC-PVTZ-JKFIT

    Orbital Energies [Eh]
    ---------------------

    Doubly Occupied:

       1A    -20.584506     2A    -20.565232     3A    -20.554465
       4A    -11.293755     5A    -11.293046     6A    -11.281106
       7A    -11.276718     8A     -1.399591     9A     -1.375271
      10A     -1.354183    11A     -1.037045    12A     -0.936678
      13A     -0.918717    14A     -0.759096    15A     -0.730823
      16A     -0.705623    17A     -0.677416    18A     -0.659010
      19A     -0.620244    20A     -0.598926    21A     -0.570845
      22A     -0.550447    23A     -0.542722    24A     -0.514440
      25A     -0.476141    26A     -0.472090    27A     -0.434088
      28A     -0.416149

  @DF-RHF Final Energy:  -380.80647723473641

   => Energetics <=

    Nuclear Repulsion Energy =            335.6970002135142863
    One-Electron Energy =               -1187.8102128286966490
    Two-Electron Energy =                 471.3067353804460140
    Total Energy =                       -380.8064772347364055
  Basis Set: (AUG-CC-PVTZ AUX)
    Blend: AUG-CC-PVTZ-RI
    Molecular point group: c1

    Geometry (in Angstrom), charge = 0, multiplicity = 1:

       Center              X                  Y                   Z               Mass
    ------------   -----------------  -----------------  -----------------  -----------------
         O            1.848827639669    -0.750854293012    -0.034847630811    15.994914619570
         O           -0.473994360331     1.602675706988    -0.259545630811    15.994914619570
         O           -2.129105360331    -0.556747293012    -0.228217630811    15.994914619570
         C            0.021897639669     0.322849706988     0.058458369189    12.000000000000
         C            1.348930639669     0.318063706988     0.814352369189    12.000000000000
         C            0.813316639669    -0.447511293012    -1.013561630811    12.000000000000
         C           -1.052547360331    -0.512444293012     0.716628369189    12.000000000000
         H            1.889360539669     1.254574106988     0.627758069189     1.007825032230
         H            1.352795639669     0.040671706988     1.874534369189     1.007825032230
         H            0.374473639669    -1.351552293012    -1.446474630811     1.007825032230
         H            1.178852639669     0.222834706988    -1.801197630811     1.007825032230
         H           -1.364243360331    -0.024423293012     1.650502369189     1.007825032230
         H           -0.664018360331    -1.513591293012     0.943493369189     1.007825032230
         H           -1.370891360331     1.449233706988    -0.614865630811     1.007825032230
         H           -2.899222360331    -0.962007293012     0.203589369189     1.007825032230

  Basis Set: AUG-CC-PVTZ
    Blend: AUG-CC-PVTZ
  Basis Set: (AUG-CC-PVTZ AUX)
    Blend: AUG-CC-PVTZ-JKFIT
	 Reference Energy          =    -380.8064772347364055 [Eh]
	 Singles Energy            =      -0.0000000000000000 [Eh]
	 Same-Spin Energy          =      -0.3698773945612027 [Eh]
	 Opposite-Spin Energy      =      -1.1727546314290951 [Eh]
	 Correlation Energy        =      -1.5426320259902977 [Eh]
	 Total Energy              =    -382.3491092607267205 [Eh]

	 ================> DF-SCS-MP2 Energies <==================
	-----------------------------------------------------------
	 SCS Same-Spin Scale       =       0.3333333333333333 [-]
	 SCS Opposite-Spin Scale   =       1.2000000000000000 [-]
	 SCS Same-Spin Energy      =      -0.1232924648537342 [Eh]
	 SCS Opposite-Spin Energy  =      -1.4073055577149141 [Eh]
	 SCS Correlation Energy    =      -1.5305980225686482 [Eh]
	 SCS Total Energy          =    -382.3370752573050595 [Eh]
	-----------------------------------------------------------

  Dipole Moment: [D]
     X:    -2.5662      Y:    -0.8248      Z:     1.2243     Total:     2.9605

*** Psi4 exiting successfully. Buy a developer a beer!
