                               Psi4 1.3.2 release

  ==> Input File <==

--------------------------------------------------------------------------
#psi4
#
memory 32 gb

molecule  {
0 1
  O        1.7918798    -0.8037564    -0.0070841
  O       -0.4607810     1.6104540    -0.2729240
  O       -2.1158920    -0.5489690    -0.2415960
  C        0.0351110     0.3306280     0.0450800
  C        1.3621440     0.3258420     0.8009740
  C        0.8265300    -0.4397330    -1.0269400
  C       -1.0393340    -0.5046660     0.7032500
  H        1.9101110     1.2646870     0.6518570
  H        1.3660090     0.0484500     1.8611560
  H        0.3876870    -1.3437740    -1.4598530
  H        1.1920660     0.2306130    -1.8145760
  H       -1.3510300    -0.0166450     1.6371240
  H       -0.6508050    -1.5058130     0.9301150
  H       -1.3576780     1.4570120    -0.6282440
  H       -2.8860090    -0.9542290     0.1902110
units angstrom
no_reorient  #important for SAPT in psi4, default
symmetry c1  #important for SAPT in psi4, default
}

set PROPERTIES_ORIGIN ["COM"]
properties('MP2/aug-cc-pvtz', properties = ['dipole'])
--------------------------------------------------------------------------

    Molecular point group: c1
  Charge       = 0
  Multiplicity = 1
  Basis Set: AUG-CC-PVTZ
    Blend: AUG-CC-PVTZ
  Basis Set: (AUG-CC-PVTZ AUX)
    Blend: AUG-CC-PVTZ-JKFIT

    Orbital Energies [Eh]
    ---------------------

    Doubly Occupied:

       1A    -20.583390     2A    -20.563830     3A    -20.557055
       4A    -11.292845     5A    -11.292072     6A    -11.281574
       7A    -11.276495     8A     -1.400519     9A     -1.376709
      10A     -1.354158    11A     -1.034541    12A     -0.938116
      13A     -0.918640    14A     -0.760318    15A     -0.729556
      16A     -0.705899    17A     -0.676630    18A     -0.658571
      19A     -0.622096    20A     -0.598685    21A     -0.574664
      22A     -0.545559    23A     -0.539061    24A     -0.512185
      25A     -0.476568    26A     -0.473763    27A     -0.436494
      28A     -0.414941

  @DF-RHF Final Energy:  -380.80417486517172

   => Energetics <=

    Nuclear Repulsion Energy =            336.3044211955535161
    One-Electron Energy =               -1189.0273233867883391
    Two-Electron Energy =                 471.9187273260631628
    Total Energy =                       -380.8041748651717171
  Basis Set: (AUG-CC-PVTZ AUX)
    Blend: AUG-CC-PVTZ-RI
    Molecular point group: c1

    Geometry (in Angstrom), charge = 0, multiplicity = 1:

       Center              X                  Y                   Z               Mass
    ------------   -----------------  -----------------  -----------------  -----------------
         O            1.789379123736    -0.802229073950    -0.000393376178    15.994914619570
         O           -0.463281676264     1.611981326050    -0.266233276178    15.994914619570
         O           -2.118392676264    -0.547441673950    -0.234905276178    15.994914619570
         C            0.032610323736     0.332155326050     0.051770723822    12.000000000000
         C            1.359643323736     0.327369326050     0.807664723822    12.000000000000
         C            0.824029323736    -0.438205673950    -1.020249276178    12.000000000000
         C           -1.041834676264    -0.503138673950     0.709940723822    12.000000000000
         H            1.907610323736     1.266214326050     0.658547723822     1.007825032230
         H            1.363508323736     0.049977326050     1.867846723822     1.007825032230
         H            0.385186323736    -1.342246673950    -1.453162276178     1.007825032230
         H            1.189565323736     0.232140326050    -1.807885276178     1.007825032230
         H           -1.353530676264    -0.015117673950     1.643814723822     1.007825032230
         H           -0.653305676264    -1.504285673950     0.936805723822     1.007825032230
         H           -1.360178676264     1.458539326050    -0.621553276178     1.007825032230
         H           -2.888509676264    -0.952701673950     0.196901723822     1.007825032230

  Basis Set: AUG-CC-PVTZ
    Blend: AUG-CC-PVTZ
  Basis Set: (AUG-CC-PVTZ AUX)
    Blend: AUG-CC-PVTZ-JKFIT
	 Reference Energy          =    -380.8041748651717171 [Eh]
	 Singles Energy            =      -0.0000000000000000 [Eh]
	 Same-Spin Energy          =      -0.3701441040006731 [Eh]
	 Opposite-Spin Energy      =      -1.1730289441840369 [Eh]
	 Correlation Energy        =      -1.5431730481847099 [Eh]
	 Total Energy              =    -382.3473479133564297 [Eh]

	 ================> DF-SCS-MP2 Energies <==================
	-----------------------------------------------------------
	 SCS Same-Spin Scale       =       0.3333333333333333 [-]
	 SCS Opposite-Spin Scale   =       1.2000000000000000 [-]
	 SCS Same-Spin Energy      =      -0.1233813680002244 [Eh]
	 SCS Opposite-Spin Energy  =      -1.4076347330208443 [Eh]
	 SCS Correlation Energy    =      -1.5310161010210686 [Eh]
	 SCS Total Energy          =    -382.3351909661927834 [Eh]
	-----------------------------------------------------------

  Dipole Moment: [D]
     X:    -2.4070      Y:    -0.7439      Z:     1.1702     Total:     2.7778

*** Psi4 exiting successfully. Buy a developer a beer!
