                               Psi4 1.3.2 release

  ==> Input File <==

--------------------------------------------------------------------------
#psi4
#
memory 32 gb

molecule  {
0 1
  O        1.8620410    -0.7430760    -0.0482260
  O       -0.4607810     1.6104540    -0.2729240
  O       -2.1158920    -0.5489690    -0.2415960
  C        0.0351110     0.3306280     0.0450800
  C        1.4010969     0.3902365     0.7254803
  C        0.8265300    -0.4397330    -1.0269400
  C       -1.0393340    -0.5046660     0.7032500
  H        1.9101110     1.2646870     0.6518570
  H        1.3660090     0.0484500     1.8611560
  H        0.3876870    -1.3437740    -1.4598530
  H        1.1920660     0.2306130    -1.8145760
  H       -1.3510300    -0.0166450     1.6371240
  H       -0.6508050    -1.5058130     0.9301150
  H       -1.3576780     1.4570120    -0.6282440
  H       -2.8860090    -0.9542290     0.1902110
units angstrom
no_reorient  #important for SAPT in psi4, default
symmetry c1  #important for SAPT in psi4, default
}

set PROPERTIES_ORIGIN ["COM"]
properties('MP2/aug-cc-pvtz', properties = ['dipole'])
--------------------------------------------------------------------------

    Molecular point group: c1
  Charge       = 0
  Multiplicity = 1
  Basis Set: AUG-CC-PVTZ
    Blend: AUG-CC-PVTZ
  Basis Set: (AUG-CC-PVTZ AUX)
    Blend: AUG-CC-PVTZ-JKFIT

    Orbital Energies [Eh]
    ---------------------

    Doubly Occupied:

       1A    -20.585768     2A    -20.564439     3A    -20.557162
       4A    -11.294973     5A    -11.293563     6A    -11.282442
       7A    -11.277914     8A     -1.401525     9A     -1.378311
      10A     -1.355107    11A     -1.036241    12A     -0.937000
      13A     -0.923394    14A     -0.763620    15A     -0.731001
      16A     -0.710205    17A     -0.672456    18A     -0.658694
      19A     -0.621069    20A     -0.604052    21A     -0.578577
      22A     -0.548189    23A     -0.535467    24A     -0.515654
      25A     -0.475769    26A     -0.469709    27A     -0.439045
      28A     -0.412238

  @DF-RHF Final Energy:  -380.79318073896417

   => Energetics <=

    Nuclear Repulsion Energy =            335.7749791139410149
    One-Electron Energy =               -1187.8891490935734510
    Two-Electron Energy =                 471.3209892406682116
    Total Energy =                       -380.7931807389641676
  Basis Set: (AUG-CC-PVTZ AUX)
    Blend: AUG-CC-PVTZ-RI
    Molecular point group: c1

    Geometry (in Angstrom), charge = 0, multiplicity = 1:

       Center              X                  Y                   Z               Mass
    ------------   -----------------  -----------------  -----------------  -----------------
         O            1.844262113445    -0.758303660172    -0.026503796124    15.994914619570
         O           -0.478559886555     1.595226339828    -0.251201796124    15.994914619570
         O           -2.133670886555    -0.564196660172    -0.219873796124    15.994914619570
         C            0.017332113445     0.315400339828     0.066802203876    12.000000000000
         C            1.383318013445     0.375008839828     0.747202503876    12.000000000000
         C            0.808751113445    -0.454960660172    -1.005217796124    12.000000000000
         C           -1.057112886555    -0.519893660172     0.724972203876    12.000000000000
         H            1.892332113445     1.249459339828     0.673579203876     1.007825032230
         H            1.348230113445     0.033222339828     1.882878203876     1.007825032230
         H            0.369908113445    -1.359001660172    -1.438130796124     1.007825032230
         H            1.174287113445     0.215385339828    -1.792853796124     1.007825032230
         H           -1.368808886555    -0.031872660172     1.658846203876     1.007825032230
         H           -0.668583886555    -1.521040660172     0.951837203876     1.007825032230
         H           -1.375456886555     1.441784339828    -0.606521796124     1.007825032230
         H           -2.903787886555    -0.969456660172     0.211933203876     1.007825032230

  Basis Set: AUG-CC-PVTZ
    Blend: AUG-CC-PVTZ
  Basis Set: (AUG-CC-PVTZ AUX)
    Blend: AUG-CC-PVTZ-JKFIT
	 Reference Energy          =    -380.7931807389641676 [Eh]
	 Singles Energy            =      -0.0000000000000000 [Eh]
	 Same-Spin Energy          =      -0.3700546519939161 [Eh]
	 Opposite-Spin Energy      =      -1.1731849935380767 [Eh]
	 Correlation Energy        =      -1.5432396455319928 [Eh]
	 Total Energy              =    -382.3364203844961366 [Eh]

	 ================> DF-SCS-MP2 Energies <==================
	-----------------------------------------------------------
	 SCS Same-Spin Scale       =       0.3333333333333333 [-]
	 SCS Opposite-Spin Scale   =       1.2000000000000000 [-]
	 SCS Same-Spin Energy      =      -0.1233515506646387 [Eh]
	 SCS Opposite-Spin Energy  =      -1.4078219922456920 [Eh]
	 SCS Correlation Energy    =      -1.5311735429103308 [Eh]
	 SCS Total Energy          =    -382.3243542818744913 [Eh]
	-----------------------------------------------------------

  Dipole Moment: [D]
     X:    -2.5299      Y:    -0.7542      Z:     1.0682     Total:     2.8479

*** Psi4 exiting successfully. Buy a developer a beer!
