                               Psi4 1.3.2 release

  ==> Input File <==

--------------------------------------------------------------------------
#psi4
#
memory 32 gb

molecule  {
0 1
  O        1.8620410    -0.7430760    -0.0482260
  O       -0.4607810     1.6104540    -0.2729240
  O       -2.1290158    -0.5630781    -0.2256502
  C        0.0351110     0.3306280     0.0450800
  C        1.3621440     0.3258420     0.8009740
  C        0.8265300    -0.4397330    -1.0269400
  C       -1.0393340    -0.5046660     0.7032500
  H        1.9101110     1.2646870     0.6518570
  H        1.3660090     0.0484500     1.8611560
  H        0.3876870    -1.3437740    -1.4598530
  H        1.1920660     0.2306130    -1.8145760
  H       -1.3510300    -0.0166450     1.6371240
  H       -0.6508050    -1.5058130     0.9301150
  H       -1.3576780     1.4570120    -0.6282440
  H       -2.8860090    -0.9542290     0.1902110
units angstrom
no_reorient  #important for SAPT in psi4, default
symmetry c1  #important for SAPT in psi4, default
}

set PROPERTIES_ORIGIN ["COM"]
properties('MP2/aug-cc-pvtz', properties = ['dipole'])
--------------------------------------------------------------------------

    Molecular point group: c1
  Charge       = 0
  Multiplicity = 1
  Basis Set: AUG-CC-PVTZ
    Blend: AUG-CC-PVTZ
  Basis Set: (AUG-CC-PVTZ AUX)
    Blend: AUG-CC-PVTZ-JKFIT

    Orbital Energies [Eh]
    ---------------------

    Doubly Occupied:

       1A    -20.581306     2A    -20.565821     3A    -20.555318
       4A    -11.294537     5A    -11.293715     6A    -11.281671
       7A    -11.277161     8A     -1.400666     9A     -1.377592
      10A     -1.355544    11A     -1.038290    12A     -0.937387
      13A     -0.920364    14A     -0.760350    15A     -0.732535
      16A     -0.707616    17A     -0.678638    18A     -0.659025
      19A     -0.621848    20A     -0.599310    21A     -0.571130
      22A     -0.549732    23A     -0.542702    24A     -0.514882
      25A     -0.476404    26A     -0.472315    27A     -0.435321
      28A     -0.416420

  @DF-RHF Final Energy:  -380.80790764302878

   => Energetics <=

    Nuclear Repulsion Energy =            335.4703273666088421
    One-Electron Energy =               -1187.3212730385860141
    Two-Electron Energy =                 471.0430380289483310
    Total Energy =                       -380.8079076430287842
  Basis Set: (AUG-CC-PVTZ AUX)
    Blend: AUG-CC-PVTZ-RI
    Molecular point group: c1

    Geometry (in Angstrom), charge = 0, multiplicity = 1:

       Center              X                  Y                   Z               Mass
    ------------   -----------------  -----------------  -----------------  -----------------
         O            1.850772119695    -0.748707952965    -0.037661948400    15.994914619570
         O           -0.472049880305     1.604822047035    -0.262359948400    15.994914619570
         O           -2.140284680305    -0.568710052965    -0.215086148400    15.994914619570
         C            0.023842119695     0.324996047035     0.055644051600    12.000000000000
         C            1.350875119695     0.320210047035     0.811538051600    12.000000000000
         C            0.815261119695    -0.445364952965    -1.016375948400    12.000000000000
         C           -1.050602880305    -0.510297952965     0.713814051600    12.000000000000
         H            1.898842119695     1.259055047035     0.662421051600     1.007825032230
         H            1.354740119695     0.042818047035     1.871720051600     1.007825032230
         H            0.376418119695    -1.349405952965    -1.449288948400     1.007825032230
         H            1.180797119695     0.224981047035    -1.804011948400     1.007825032230
         H           -1.362298880305    -0.022276952965     1.647688051600     1.007825032230
         H           -0.662073880305    -1.511444952965     0.940679051600     1.007825032230
         H           -1.368946880305     1.451380047035    -0.617679948400     1.007825032230
         H           -2.897277880305    -0.959860952965     0.200775051600     1.007825032230

  Basis Set: AUG-CC-PVTZ
    Blend: AUG-CC-PVTZ
  Basis Set: (AUG-CC-PVTZ AUX)
    Blend: AUG-CC-PVTZ-JKFIT
	 Reference Energy          =    -380.8079076430287842 [Eh]
	 Singles Energy            =      -0.0000000000000000 [Eh]
	 Same-Spin Energy          =      -0.3694250432421513 [Eh]
	 Opposite-Spin Energy      =      -1.1717683086080264 [Eh]
	 Correlation Energy        =      -1.5411933518501777 [Eh]
	 Total Energy              =    -382.3491009948789383 [Eh]

	 ================> DF-SCS-MP2 Energies <==================
	-----------------------------------------------------------
	 SCS Same-Spin Scale       =       0.3333333333333333 [-]
	 SCS Opposite-Spin Scale   =       1.2000000000000000 [-]
	 SCS Same-Spin Energy      =      -0.1231416810807171 [Eh]
	 SCS Opposite-Spin Energy  =      -1.4061219703296317 [Eh]
	 SCS Correlation Energy    =      -1.5292636514103488 [Eh]
	 SCS Total Energy          =    -382.3371712944391447 [Eh]
	-----------------------------------------------------------

  Dipole Moment: [D]
     X:    -2.5189      Y:    -0.7901      Z:     1.2106     Total:     2.9042

*** Psi4 exiting successfully. Buy a developer a beer!
