                               Psi4 1.3.2 release

  ==> Input File <==

--------------------------------------------------------------------------
#psi4
#
memory 32 gb

molecule  {
0 1
  O        1.8620410    -0.7430760    -0.0482260
  O       -0.4607810     1.6104540    -0.2729240
  O       -2.1158920    -0.5489690    -0.2415960
  C        0.0351110     0.3306280     0.0450800
  C        1.3621440     0.3258420     0.8009740
  C        0.8265300    -0.4397330    -1.0269400
  C       -0.9682603    -0.4494119     0.6597125
  H        1.9101110     1.2646870     0.6518570
  H        1.3660090     0.0484500     1.8611560
  H        0.3876870    -1.3437740    -1.4598530
  H        1.1920660     0.2306130    -1.8145760
  H       -1.3510300    -0.0166450     1.6371240
  H       -0.6508050    -1.5058130     0.9301150
  H       -1.3576780     1.4570120    -0.6282440
  H       -2.8860090    -0.9542290     0.1902110
units angstrom
no_reorient  #important for SAPT in psi4, default
symmetry c1  #important for SAPT in psi4, default
}

set PROPERTIES_ORIGIN ["COM"]
properties('MP2/aug-cc-pvtz', properties = ['dipole'])
--------------------------------------------------------------------------

    Molecular point group: c1
  Charge       = 0
  Multiplicity = 1
  Basis Set: AUG-CC-PVTZ
    Blend: AUG-CC-PVTZ
  Basis Set: (AUG-CC-PVTZ AUX)
    Blend: AUG-CC-PVTZ-JKFIT

    Orbital Energies [Eh]
    ---------------------

    Doubly Occupied:

       1A    -20.578316     2A    -20.566150     3A    -20.557104
       4A    -11.297711     5A    -11.290759     6A    -11.284770
       7A    -11.279152     8A     -1.400874     9A     -1.370215
      10A     -1.351264    11A     -1.057158    12A     -0.940284
      13A     -0.918447    14A     -0.763699    15A     -0.727230
      16A     -0.709221    17A     -0.682665    18A     -0.653350
      19A     -0.620347    20A     -0.597554    21A     -0.570027
      22A     -0.550219    23A     -0.536864    24A     -0.520701
      25A     -0.480052    26A     -0.464572    27A     -0.435624
      28A     -0.421815

  @DF-RHF Final Energy:  -380.79456428962465

   => Energetics <=

    Nuclear Repulsion Energy =            337.1537043311504931
    One-Electron Energy =               -1190.6442447382496539
    Two-Electron Energy =                 472.6959761174745154
    Total Energy =                       -380.7945642896246454
  Basis Set: (AUG-CC-PVTZ AUX)
    Blend: AUG-CC-PVTZ-RI
    Molecular point group: c1

    Geometry (in Angstrom), charge = 0, multiplicity = 1:

       Center              X                  Y                   Z               Mass
    ------------   -----------------  -----------------  -----------------  -----------------
         O            1.840557553725    -0.757249478531    -0.030189372178    15.994914619570
         O           -0.482264446275     1.596280521469    -0.254887372178    15.994914619570
         O           -2.137375446275    -0.563142478531    -0.223559372178    15.994914619570
         C            0.013627553725     0.316454521469     0.063116627822    12.000000000000
         C            1.340660553725     0.311668521469     0.819010627822    12.000000000000
         C            0.805046553725    -0.453906478531    -1.008903372178    12.000000000000
         C           -0.989743746275    -0.463585378531     0.677749127822    12.000000000000
         H            1.888627553725     1.250513521469     0.669893627822     1.007825032230
         H            1.344525553725     0.034276521469     1.879192627822     1.007825032230
         H            0.366203553725    -1.357947478531    -1.441816372178     1.007825032230
         H            1.170582553725     0.216439521469    -1.796539372178     1.007825032230
         H           -1.372513446275    -0.030818478531     1.655160627822     1.007825032230
         H           -0.672288446275    -1.519986478531     0.948151627822     1.007825032230
         H           -1.379161446275     1.442838521469    -0.610207372178     1.007825032230
         H           -2.907492446275    -0.968402478531     0.208247627822     1.007825032230

  Basis Set: AUG-CC-PVTZ
    Blend: AUG-CC-PVTZ
  Basis Set: (AUG-CC-PVTZ AUX)
    Blend: AUG-CC-PVTZ-JKFIT
	 Reference Energy          =    -380.7945642896246454 [Eh]
	 Singles Energy            =      -0.0000000000000000 [Eh]
	 Same-Spin Energy          =      -0.3708079794274813 [Eh]
	 Opposite-Spin Energy      =      -1.1740847769701845 [Eh]
	 Correlation Energy        =      -1.5448927563976658 [Eh]
	 Total Energy              =    -382.3394570460222894 [Eh]

	 ================> DF-SCS-MP2 Energies <==================
	-----------------------------------------------------------
	 SCS Same-Spin Scale       =       0.3333333333333333 [-]
	 SCS Opposite-Spin Scale   =       1.2000000000000000 [-]
	 SCS Same-Spin Energy      =      -0.1236026598091604 [Eh]
	 SCS Opposite-Spin Energy  =      -1.4089017323642214 [Eh]
	 SCS Correlation Energy    =      -1.5325043921733819 [Eh]
	 SCS Total Energy          =    -382.3270686817980391 [Eh]
	-----------------------------------------------------------

  Dipole Moment: [D]
     X:    -2.3483      Y:    -0.7860      Z:     1.2385     Total:     2.7688

*** Psi4 exiting successfully. Buy a developer a beer!
