                               Psi4 1.3.2 release

  ==> Input File <==

--------------------------------------------------------------------------
#psi4
#
memory 32 gb

molecule  {
0 1
  O        1.8447159    -0.7587463    -0.0383209
  O       -0.4607810     1.6104540    -0.2729240
  O       -2.1158920    -0.5489690    -0.2415960
  C        0.0351110     0.3306280     0.0450800
  C        1.3621440     0.3258420     0.8009740
  C        0.8265300    -0.4397330    -1.0269400
  C       -1.0393340    -0.5046660     0.7032500
  H        1.9101110     1.2646870     0.6518570
  H        1.3660090     0.0484500     1.8611560
  H        0.3876870    -1.3437740    -1.4598530
  H        1.1920660     0.2306130    -1.8145760
  H       -1.3510300    -0.0166450     1.6371240
  H       -0.6508050    -1.5058130     0.9301150
  H       -1.3576780     1.4570120    -0.6282440
  H       -2.8860090    -0.9542290     0.1902110
units angstrom
no_reorient  #important for SAPT in psi4, default
symmetry c1  #important for SAPT in psi4, default
}

set PROPERTIES_ORIGIN ["COM"]
properties('MP2/aug-cc-pvtz', properties = ['dipole'])
--------------------------------------------------------------------------

    Molecular point group: c1
  Charge       = 0
  Multiplicity = 1
  Basis Set: AUG-CC-PVTZ
    Blend: AUG-CC-PVTZ
  Basis Set: (AUG-CC-PVTZ AUX)
    Blend: AUG-CC-PVTZ-JKFIT

    Orbital Energies [Eh]
    ---------------------

    Doubly Occupied:

       1A    -20.584283     2A    -20.564857     3A    -20.555445
       4A    -11.293655     5A    -11.292978     6A    -11.281216
       7A    -11.276655     8A     -1.399819     9A     -1.375771
      10A     -1.354253    11A     -1.036449    12A     -0.937262
      13A     -0.918540    14A     -0.759934    15A     -0.730569
      16A     -0.705717    17A     -0.677020    18A     -0.658879
      19A     -0.620644    20A     -0.598681    21A     -0.572055
      22A     -0.547806    23A     -0.542914    24A     -0.513994
      25A     -0.476027    26A     -0.472735    27A     -0.435323
      28A     -0.415706

  @DF-RHF Final Energy:  -380.80640834755229

   => Energetics <=

    Nuclear Repulsion Energy =            335.8095149054206559
    One-Electron Energy =               -1188.0334712080882582
    Two-Electron Energy =                 471.4175479551153103
    Total Energy =                       -380.8064083475522921
  Basis Set: (AUG-CC-PVTZ AUX)
    Blend: AUG-CC-PVTZ-RI
    Molecular point group: c1

    Geometry (in Angstrom), charge = 0, multiplicity = 1:

       Center              X                  Y                   Z               Mass
    ------------   -----------------  -----------------  -----------------  -----------------
         O            1.834092874093    -0.764138253944    -0.026828228053    15.994914619570
         O           -0.471404025907     1.605062046056    -0.261431328053    15.994914619570
         O           -2.126515025907    -0.554360953944    -0.230103328053    15.994914619570
         C            0.024487974093     0.325236046056     0.056572671947    12.000000000000
         C            1.351520974093     0.320450046056     0.812466671947    12.000000000000
         C            0.815906974093    -0.445124953944    -1.015447328053    12.000000000000
         C           -1.049957025907    -0.510057953944     0.714742671947    12.000000000000
         H            1.899487974093     1.259295046056     0.663349671947     1.007825032230
         H            1.355385974093     0.043058046056     1.872648671947     1.007825032230
         H            0.377063974093    -1.349165953944    -1.448360328053     1.007825032230
         H            1.181442974093     0.225221046056    -1.803083328053     1.007825032230
         H           -1.361653025907    -0.022036953944     1.648616671947     1.007825032230
         H           -0.661428025907    -1.511204953944     0.941607671947     1.007825032230
         H           -1.368301025907     1.451620046056    -0.616751328053     1.007825032230
         H           -2.896632025907    -0.959620953944     0.201703671947     1.007825032230

  Basis Set: AUG-CC-PVTZ
    Blend: AUG-CC-PVTZ
  Basis Set: (AUG-CC-PVTZ AUX)
    Blend: AUG-CC-PVTZ-JKFIT
	 Reference Energy          =    -380.8064083475522921 [Eh]
	 Singles Energy            =      -0.0000000000000000 [Eh]
	 Same-Spin Energy          =      -0.3698850305133802 [Eh]
	 Opposite-Spin Energy      =      -1.1727273101872990 [Eh]
	 Correlation Energy        =      -1.5426123407006793 [Eh]
	 Total Energy              =    -382.3490206882529492 [Eh]

	 ================> DF-SCS-MP2 Energies <==================
	-----------------------------------------------------------
	 SCS Same-Spin Scale       =       0.3333333333333333 [-]
	 SCS Opposite-Spin Scale   =       1.2000000000000000 [-]
	 SCS Same-Spin Energy      =      -0.1232950101711267 [Eh]
	 SCS Opposite-Spin Energy  =      -1.4072727722247589 [Eh]
	 SCS Correlation Energy    =      -1.5305677823958856 [Eh]
	 SCS Total Energy          =    -382.3369761299481979 [Eh]
	-----------------------------------------------------------

  Dipole Moment: [D]
     X:    -2.5231      Y:    -0.8009      Z:     1.2149     Total:     2.9126

*** Psi4 exiting successfully. Buy a developer a beer!
