                               Psi4 1.3.2 release

  ==> Input File <==

--------------------------------------------------------------------------
#psi4
#
memory 32 gb

molecule  {
0 1
  O        1.8620410    -0.7430760    -0.0482260
  O       -0.4607810     1.6104540    -0.2729240
  O       -2.1158920    -0.5489690    -0.2415960
  C        0.0351110     0.3306280     0.0450800
  C        1.3621440     0.3258420     0.8009740
  C        0.8265300    -0.4397330    -1.0269400
  C       -1.1814815    -0.6151742     0.7903249
  H        1.9101110     1.2646870     0.6518570
  H        1.3660090     0.0484500     1.8611560
  H        0.3876870    -1.3437740    -1.4598530
  H        1.1920660     0.2306130    -1.8145760
  H       -1.3510300    -0.0166450     1.6371240
  H       -0.6508050    -1.5058130     0.9301150
  H       -1.3576780     1.4570120    -0.6282440
  H       -2.8860090    -0.9542290     0.1902110
units angstrom
no_reorient  #important for SAPT in psi4, default
symmetry c1  #important for SAPT in psi4, default
}

set PROPERTIES_ORIGIN ["COM"]
properties('MP2/aug-cc-pvtz', properties = ['dipole'])
--------------------------------------------------------------------------

    Molecular point group: c1
  Charge       = 0
  Multiplicity = 1
  Basis Set: AUG-CC-PVTZ
    Blend: AUG-CC-PVTZ
  Basis Set: (AUG-CC-PVTZ AUX)
    Blend: AUG-CC-PVTZ-JKFIT

    Orbital Energies [Eh]
    ---------------------

    Doubly Occupied:

       1A    -20.595791     2A    -20.565062     3A    -20.552078
       4A    -11.296163     5A    -11.292491     6A    -11.276164
       7A    -11.274413     8A     -1.408680     9A     -1.381322
      10A     -1.353577    11A     -1.011087    12A     -0.932358
      13A     -0.920109    14A     -0.754211    15A     -0.734731
      16A     -0.700314    17A     -0.677978    18A     -0.666908
      19A     -0.621663    20A     -0.608095    21A     -0.577000
      22A     -0.553828    23A     -0.538701    24A     -0.501001
      25A     -0.492161    26A     -0.452743    27A     -0.431839
      28A     -0.392178

  @DF-RHF Final Energy:  -380.77361695501304

   => Energetics <=

    Nuclear Repulsion Energy =            332.7650497247105932
    One-Electron Energy =               -1181.9520387943589412
    Two-Electron Energy =                 468.4133721146353082
    Total Energy =                       -380.7736169550130398
  Basis Set: (AUG-CC-PVTZ AUX)
    Blend: AUG-CC-PVTZ-RI
    Molecular point group: c1

    Geometry (in Angstrom), charge = 0, multiplicity = 1:

       Center              X                  Y                   Z               Mass
    ------------   -----------------  -----------------  -----------------  -----------------
         O            1.865148805157    -0.738131762294    -0.045253176193    15.994914619570
         O           -0.457673194843     1.615398237706    -0.269951176193    15.994914619570
         O           -2.112784194843    -0.544024762294    -0.238623176193    15.994914619570
         C            0.038218805157     0.335572237706     0.048052823807    12.000000000000
         C            1.365251805157     0.330786237706     0.803946823807    12.000000000000
         C            0.829637805157    -0.434788762294    -1.023967176193    12.000000000000
         C           -1.178373694843    -0.610229962294     0.793297723807    12.000000000000
         H            1.913218805157     1.269631237706     0.654829823807     1.007825032230
         H            1.369116805157     0.053394237706     1.864128823807     1.007825032230
         H            0.390794805157    -1.338829762294    -1.456880176193     1.007825032230
         H            1.195173805157     0.235557237706    -1.811603176193     1.007825032230
         H           -1.347922194843    -0.011700762294     1.640096823807     1.007825032230
         H           -0.647697194843    -1.500868762294     0.933087823807     1.007825032230
         H           -1.354570194843     1.461956237706    -0.625271176193     1.007825032230
         H           -2.882901194843    -0.949284762294     0.193183823807     1.007825032230

  Basis Set: AUG-CC-PVTZ
    Blend: AUG-CC-PVTZ
  Basis Set: (AUG-CC-PVTZ AUX)
    Blend: AUG-CC-PVTZ-JKFIT
	 Reference Energy          =    -380.7736169550130398 [Eh]
	 Singles Energy            =      -0.0000000000000000 [Eh]
	 Same-Spin Energy          =      -0.3708390454927280 [Eh]
	 Opposite-Spin Energy      =      -1.1751993198785646 [Eh]
	 Correlation Energy        =      -1.5460383653712926 [Eh]
	 Total Energy              =    -382.3196553203843564 [Eh]

	 ================> DF-SCS-MP2 Energies <==================
	-----------------------------------------------------------
	 SCS Same-Spin Scale       =       0.3333333333333333 [-]
	 SCS Opposite-Spin Scale   =       1.2000000000000000 [-]
	 SCS Same-Spin Energy      =      -0.1236130151642427 [Eh]
	 SCS Opposite-Spin Energy  =      -1.4102391838542776 [Eh]
	 SCS Correlation Energy    =      -1.5338521990185203 [Eh]
	 SCS Total Energy          =    -382.3074691540315371 [Eh]
	-----------------------------------------------------------

  Dipole Moment: [D]
     X:    -2.8275      Y:    -0.8183      Z:     1.1345     Total:     3.1546

*** Psi4 exiting successfully. Buy a developer a beer!
