                               Psi4 1.3.2 release

  ==> Input File <==

--------------------------------------------------------------------------
#psi4
#
memory 32 gb

molecule  {
0 1
  O        1.8620410    -0.7430760    -0.0482260
  O       -0.4607810     1.6104540    -0.2729240
  O       -2.1158920    -0.5489690    -0.2415960
  C        0.0351110     0.3306280     0.0450800
  C        1.5359276     0.3252152     0.8999632
  C        0.8265300    -0.4397330    -1.0269400
  C       -1.0393340    -0.5046660     0.7032500
  H        1.9101110     1.2646870     0.6518570
  H        1.3660090     0.0484500     1.8611560
  H        0.3876870    -1.3437740    -1.4598530
  H        1.1920660     0.2306130    -1.8145760
  H       -1.3510300    -0.0166450     1.6371240
  H       -0.6508050    -1.5058130     0.9301150
  H       -1.3576780     1.4570120    -0.6282440
  H       -2.8860090    -0.9542290     0.1902110
units angstrom
no_reorient  #important for SAPT in psi4, default
symmetry c1  #important for SAPT in psi4, default
}

set PROPERTIES_ORIGIN ["COM"]
properties('MP2/aug-cc-pvtz', properties = ['dipole'])
--------------------------------------------------------------------------

    Molecular point group: c1
  Charge       = 0
  Multiplicity = 1
  Basis Set: AUG-CC-PVTZ
    Blend: AUG-CC-PVTZ
  Basis Set: (AUG-CC-PVTZ AUX)
    Blend: AUG-CC-PVTZ-JKFIT

    Orbital Energies [Eh]
    ---------------------

    Doubly Occupied:

       1A    -20.583081     2A    -20.563168     3A    -20.554616
       4A    -11.298808     5A    -11.291280     6A    -11.280643
       7A    -11.275666     8A     -1.393300     9A     -1.367124
      10A     -1.349823    11A     -1.018877    12A     -0.945939
      13A     -0.907319    14A     -0.765158    15A     -0.728682
      16A     -0.698763    17A     -0.674505    18A     -0.657021
      19A     -0.616098    20A     -0.610603    21A     -0.575640
      22A     -0.565931    23A     -0.542963    24A     -0.510890
      25A     -0.472960    26A     -0.452585    27A     -0.423636
      28A     -0.397157

  @DF-RHF Final Energy:  -380.77489677063573

   => Energetics <=

    Nuclear Repulsion Energy =            332.1110974223981884
    One-Electron Energy =               -1180.7275159153782624
    Two-Electron Energy =                 467.8415217223443392
    Total Energy =                       -380.7748967706357348
  Basis Set: (AUG-CC-PVTZ AUX)
    Blend: AUG-CC-PVTZ-RI
    Molecular point group: c1

    Geometry (in Angstrom), charge = 0, multiplicity = 1:

       Center              X                  Y                   Z               Mass
    ------------   -----------------  -----------------  -----------------  -----------------
         O            1.828711803980    -0.750804616284    -0.046627277581    15.994914619570
         O           -0.494110196020     1.602725383716    -0.271325277581    15.994914619570
         O           -2.149221196020    -0.556697616284    -0.239997277581    15.994914619570
         C            0.001781803980     0.322899383716     0.046678722419    12.000000000000
         C            1.502598403980     0.317486583716     0.901561922419    12.000000000000
         C            0.793200803980    -0.447461616284    -1.025341277581    12.000000000000
         C           -1.072663196020    -0.512394616284     0.704848722419    12.000000000000
         H            1.876781803980     1.256958383716     0.653455722419     1.007825032230
         H            1.332679803980     0.040721383716     1.862754722419     1.007825032230
         H            0.354357803980    -1.351502616284    -1.458254277581     1.007825032230
         H            1.158736803980     0.222884383716    -1.812977277581     1.007825032230
         H           -1.384359196020    -0.024373616284     1.638722722419     1.007825032230
         H           -0.684134196020    -1.513541616284     0.931713722419     1.007825032230
         H           -1.391007196020     1.449283383716    -0.626645277581     1.007825032230
         H           -2.919338196020    -0.961957616284     0.191809722419     1.007825032230

  Basis Set: AUG-CC-PVTZ
    Blend: AUG-CC-PVTZ
  Basis Set: (AUG-CC-PVTZ AUX)
    Blend: AUG-CC-PVTZ-JKFIT
	 Reference Energy          =    -380.7748967706357348 [Eh]
	 Singles Energy            =      -0.0000000000000000 [Eh]
	 Same-Spin Energy          =      -0.3700895679118044 [Eh]
	 Opposite-Spin Energy      =      -1.1749621952129319 [Eh]
	 Correlation Energy        =      -1.5450517631247362 [Eh]
	 Total Energy              =    -382.3199485337604528 [Eh]

	 ================> DF-SCS-MP2 Energies <==================
	-----------------------------------------------------------
	 SCS Same-Spin Scale       =       0.3333333333333333 [-]
	 SCS Opposite-Spin Scale   =       1.2000000000000000 [-]
	 SCS Same-Spin Energy      =      -0.1233631893039348 [Eh]
	 SCS Opposite-Spin Energy  =      -1.4099546342555183 [Eh]
	 SCS Correlation Energy    =      -1.5333178235594531 [Eh]
	 SCS Total Energy          =    -382.3082145941951921 [Eh]
	-----------------------------------------------------------

  Dipole Moment: [D]
     X:    -2.5049      Y:    -0.7716      Z:     1.3084     Total:     2.9295

*** Psi4 exiting successfully. Buy a developer a beer!
