                               Psi4 1.3.2 release

  ==> Input File <==

--------------------------------------------------------------------------
#psi4
#
memory 32 gb

molecule  {
0 1
  O        1.9056178    -0.7421371    -0.0222394
  O       -0.4607810     1.6104540    -0.2729240
  O       -2.1158920    -0.5489690    -0.2415960
  C        0.0351110     0.3306280     0.0450800
  C        1.3621440     0.3258420     0.8009740
  C        0.8265300    -0.4397330    -1.0269400
  C       -1.0393340    -0.5046660     0.7032500
  H        1.9101110     1.2646870     0.6518570
  H        1.3660090     0.0484500     1.8611560
  H        0.3876870    -1.3437740    -1.4598530
  H        1.1920660     0.2306130    -1.8145760
  H       -1.3510300    -0.0166450     1.6371240
  H       -0.6508050    -1.5058130     0.9301150
  H       -1.3576780     1.4570120    -0.6282440
  H       -2.8860090    -0.9542290     0.1902110
units angstrom
no_reorient  #important for SAPT in psi4, default
symmetry c1  #important for SAPT in psi4, default
}

set PROPERTIES_ORIGIN ["COM"]
properties('MP2/aug-cc-pvtz', properties = ['dipole'])
--------------------------------------------------------------------------

    Molecular point group: c1
  Charge       = 0
  Multiplicity = 1
  Basis Set: AUG-CC-PVTZ
    Blend: AUG-CC-PVTZ
  Basis Set: (AUG-CC-PVTZ AUX)
    Blend: AUG-CC-PVTZ-JKFIT

    Orbital Energies [Eh]
    ---------------------

    Doubly Occupied:

       1A    -20.585404     2A    -20.566968     3A    -20.555093
       4A    -11.295378     5A    -11.294253     6A    -11.282409
       7A    -11.279743     8A     -1.397721     9A     -1.369337
      10A     -1.350213    11A     -1.039723    12A     -0.933533
      13A     -0.920291    14A     -0.761076    15A     -0.731488
      16A     -0.703957    17A     -0.675150    18A     -0.658076
      19A     -0.617029    20A     -0.596823    21A     -0.570214
      22A     -0.548605    23A     -0.541583    24A     -0.515969
      25A     -0.476562    26A     -0.469689    27A     -0.435653
      28A     -0.418740

  @DF-RHF Final Energy:  -380.80310633148082

   => Energetics <=

    Nuclear Repulsion Energy =            334.4903542702262484
    One-Electron Energy =               -1185.4055573245725554
    Two-Electron Energy =                 470.1120967228654877
    Total Energy =                       -380.8031063314808193
  Basis Set: (AUG-CC-PVTZ AUX)
    Blend: AUG-CC-PVTZ-RI
    Molecular point group: c1

    Geometry (in Angstrom), charge = 0, multiplicity = 1:

       Center              X                  Y                   Z               Mass
    ------------   -----------------  -----------------  -----------------  -----------------
         O            1.885632491000    -0.750082340990    -0.013218893216    15.994914619570
         O           -0.480766309000     1.602508759010    -0.263903493216    15.994914619570
         O           -2.135877309000    -0.556914240990    -0.232575493216    15.994914619570
         C            0.015125691000     0.322682759010     0.054100506784    12.000000000000
         C            1.342158691000     0.317896759010     0.809994506784    12.000000000000
         C            0.806544691000    -0.447678240990    -1.017919493216    12.000000000000
         C           -1.059319309000    -0.512611240990     0.712270506784    12.000000000000
         H            1.890125691000     1.256741759010     0.660877506784     1.007825032230
         H            1.346023691000     0.040504759010     1.870176506784     1.007825032230
         H            0.367701691000    -1.351719240990    -1.450832493216     1.007825032230
         H            1.172080691000     0.222667759010    -1.805555493216     1.007825032230
         H           -1.371015309000    -0.024590240990     1.646144506784     1.007825032230
         H           -0.670790309000    -1.513758240990     0.939135506784     1.007825032230
         H           -1.377663309000     1.449066759010    -0.619223493216     1.007825032230
         H           -2.905994309000    -0.962174240990     0.199231506784     1.007825032230

  Basis Set: AUG-CC-PVTZ
    Blend: AUG-CC-PVTZ
  Basis Set: (AUG-CC-PVTZ AUX)
    Blend: AUG-CC-PVTZ-JKFIT
	 Reference Energy          =    -380.8031063314808193 [Eh]
	 Singles Energy            =      -0.0000000000000000 [Eh]
	 Same-Spin Energy          =      -0.3701715935828561 [Eh]
	 Opposite-Spin Energy      =      -1.1741111145348757 [Eh]
	 Correlation Energy        =      -1.5442827081177319 [Eh]
	 Total Energy              =    -382.3473890395985677 [Eh]

	 ================> DF-SCS-MP2 Energies <==================
	-----------------------------------------------------------
	 SCS Same-Spin Scale       =       0.3333333333333333 [-]
	 SCS Opposite-Spin Scale   =       1.2000000000000000 [-]
	 SCS Same-Spin Energy      =      -0.1233905311942854 [Eh]
	 SCS Opposite-Spin Energy  =      -1.4089333374418509 [Eh]
	 SCS Correlation Energy    =      -1.5323238686361362 [Eh]
	 SCS Total Energy          =    -382.3354302001169458 [Eh]
	-----------------------------------------------------------

  Dipole Moment: [D]
     X:    -2.6913      Y:    -0.8097      Z:     1.1163     Total:     3.0240

*** Psi4 exiting successfully. Buy a developer a beer!
