                               Psi4 1.4a3.dev225

  ==> Input File <==

--------------------------------------------------------------------------
#psi4
#
memory 32 gb

molecule  {
0 1
  O        1.8620410    -0.7430760    -0.0482260
  O       -0.4607810     1.6104540    -0.2729240
  O       -2.1158920    -0.5489690    -0.2415960
  C        0.0351110     0.3306280     0.0450800
  C        1.3621440     0.3258420     0.8009740
  C        0.8265300    -0.4397330    -1.0269400
  C       -1.0768954    -0.5062117     0.6702841
  H        1.9101110     1.2646870     0.6518570
  H        1.3660090     0.0484500     1.8611560
  H        0.3876870    -1.3437740    -1.4598530
  H        1.1920660     0.2306130    -1.8145760
  H       -1.3510300    -0.0166450     1.6371240
  H       -0.6508050    -1.5058130     0.9301150
  H       -1.3576780     1.4570120    -0.6282440
  H       -2.8860090    -0.9542290     0.1902110
units angstrom
no_reorient  #important for SAPT in psi4, default
symmetry c1  #important for SAPT in psi4, default
}

set PROPERTIES_ORIGIN ["COM"]
properties('MP2/aug-cc-pvtz', properties = ['dipole'])
--------------------------------------------------------------------------

    Molecular point group: c1
  Charge       = 0
  Multiplicity = 1
  Basis Set: AUG-CC-PVTZ
    Blend: AUG-CC-PVTZ
  Basis Set: (AUG-CC-PVTZ AUX)
    Blend: AUG-CC-PVTZ-JKFIT

    Orbital Energies [Eh]
    ---------------------

    Doubly Occupied:

       1A    -20.590075     2A    -20.564346     3A    -20.554121
       4A    -11.294491     5A    -11.292745     6A    -11.280760
       7A    -11.275575     8A     -1.410360     9A     -1.382702
      10A     -1.355576    11A     -1.032256    12A     -0.936171
      13A     -0.916533    14A     -0.758271    15A     -0.738603
      16A     -0.707991    17A     -0.678877    18A     -0.660440
      19A     -0.622401    20A     -0.604033    21A     -0.573161
      22A     -0.551491    23A     -0.541746    24A     -0.511194
      25A     -0.473723    26A     -0.466615    27A     -0.433507
      28A     -0.413334

  @DF-RHF Final Energy:  -380.80496657315973

   => Energetics <=

    Nuclear Repulsion Energy =            335.8947282001219605
    One-Electron Energy =               -1188.1571929597178041
    Two-Electron Energy =                 471.4574981864360552
    Total Energy =                       -380.8049665731597315
  Basis Set: (AUG-CC-PVTZ AUX)
    Blend: AUG-CC-PVTZ-RI
    Molecular point group: c1

    Geometry (in Angstrom), charge = 0, multiplicity = 1:

       Center              X                  Y                   Z               Mass
    ------------   -----------------  -----------------  -----------------  -----------------
         O            1.853086669303    -0.750698637605    -0.031408617139    15.994914619570
         O           -0.469735330697     1.602831362395    -0.256106617139    15.994914619570
         O           -2.124846330697    -0.556591637605    -0.224778617139    15.994914619570
         C            0.026156669303     0.323005362395     0.061897382861    12.000000000000
         C            1.353189669303     0.318219362395     0.817791382861    12.000000000000
         C            0.817575669303    -0.447355637605    -1.010122617139    12.000000000000
         C           -1.085849730697    -0.513834337605     0.687101482861    12.000000000000
         H            1.901156669303     1.257064362395     0.668674382861     1.007825032230
         H            1.357054669303     0.040827362395     1.877973382861     1.007825032230
         H            0.378732669303    -1.351396637605    -1.443035617139     1.007825032230
         H            1.183111669303     0.222990362395    -1.797758617139     1.007825032230
         H           -1.359984330697    -0.024267637605     1.653941382861     1.007825032230
         H           -0.659759330697    -1.513435637605     0.946932382861     1.007825032230
         H           -1.366632330697     1.449389362395    -0.611426617139     1.007825032230
         H           -2.894963330697    -0.961851637605     0.207028382861     1.007825032230

  Basis Set: AUG-CC-PVTZ
    Blend: AUG-CC-PVTZ
  Basis Set: (AUG-CC-PVTZ AUX)
    Blend: AUG-CC-PVTZ-JKFIT
	 Reference Energy          =    -380.8049665731597315 [Eh]
	 Singles Energy            =      -0.0000000000000000 [Eh]
	 Same-Spin Energy          =      -0.3697699463587892 [Eh]
	 Opposite-Spin Energy      =      -1.1719932019034460 [Eh]
	 Correlation Energy        =      -1.5417631482622354 [Eh]
	 Total Energy              =    -382.3467297214219798 [Eh]

	 ================> DF-SCS-MP2 Energies <==================
	-----------------------------------------------------------
	 SCS Same-Spin Scale       =       0.3333333333333333 [-]
	 SCS Opposite-Spin Scale   =       1.2000000000000000 [-]
	 SCS Same-Spin Energy      =      -0.1232566487862631 [Eh]
	 SCS Opposite-Spin Energy  =      -1.4063918422841353 [Eh]
	 SCS Correlation Energy    =      -1.5296484910703982 [Eh]
	 SCS Total Energy          =    -382.3346150642301495 [Eh]
	-----------------------------------------------------------

  Dipole Moment: [D]
     X:    -2.7167      Y:    -0.8330      Z:     1.1229     Total:     3.0553

*** Psi4 exiting successfully. Buy a developer a beer!
