                               Psi4 1.3.2 release

  ==> Input File <==

--------------------------------------------------------------------------
#psi4
#
memory 32 gb

molecule  {
0 1
  O        1.8400209    -0.7430571    -0.0608333
  O       -0.4607810     1.6104540    -0.2729240
  O       -2.1158920    -0.5489690    -0.2415960
  C        0.0351110     0.3306280     0.0450800
  C        1.3621440     0.3258420     0.8009740
  C        0.8265300    -0.4397330    -1.0269400
  C       -1.0393340    -0.5046660     0.7032500
  H        1.9101110     1.2646870     0.6518570
  H        1.3660090     0.0484500     1.8611560
  H        0.3876870    -1.3437740    -1.4598530
  H        1.1920660     0.2306130    -1.8145760
  H       -1.3510300    -0.0166450     1.6371240
  H       -0.6508050    -1.5058130     0.9301150
  H       -1.3576780     1.4570120    -0.6282440
  H       -2.8860090    -0.9542290     0.1902110
units angstrom
no_reorient  #important for SAPT in psi4, default
symmetry c1  #important for SAPT in psi4, default
}

set PROPERTIES_ORIGIN ["COM"]
properties('MP2/aug-cc-pvtz', properties = ['dipole'])
--------------------------------------------------------------------------

    Molecular point group: c1
  Charge       = 0
  Multiplicity = 1
  Basis Set: AUG-CC-PVTZ
    Blend: AUG-CC-PVTZ
  Basis Set: (AUG-CC-PVTZ AUX)
    Blend: AUG-CC-PVTZ-JKFIT

    Orbital Energies [Eh]
    ---------------------

    Doubly Occupied:

       1A    -20.584159     2A    -20.564272     3A    -20.554783
       4A    -11.293417     5A    -11.292606     6A    -11.281775
       7A    -11.274043     8A     -1.401964     9A     -1.378839
      10A     -1.354913    11A     -1.035880    12A     -0.939158
      13A     -0.917269    14A     -0.759315    15A     -0.730611
      16A     -0.706599    17A     -0.678467    18A     -0.659319
      19A     -0.622381    20A     -0.599637    21A     -0.571648
      22A     -0.550268    23A     -0.543298    24A     -0.513687
      25A     -0.476244    26A     -0.472630    27A     -0.434507
      28A     -0.414177

  @DF-RHF Final Energy:  -380.80731036296129

   => Energetics <=

    Nuclear Repulsion Energy =            336.2369546141169963
    One-Electron Energy =               -1188.8768043261211460
    Two-Electron Energy =                 471.8325393490429178
    Total Energy =                       -380.8073103629612888
  Basis Set: (AUG-CC-PVTZ AUX)
    Blend: AUG-CC-PVTZ-RI
    Molecular point group: c1

    Geometry (in Angstrom), charge = 0, multiplicity = 1:

       Center              X                  Y                   Z               Mass
    ------------   -----------------  -----------------  -----------------  -----------------
         O            1.830119623646    -0.750860911897    -0.045879858161    15.994914619570
         O           -0.470682276354     1.602650188103    -0.257970558161    15.994914619570
         O           -2.125793276354    -0.556772811897    -0.226642558161    15.994914619570
         C            0.025209723646     0.322824188103     0.060033441839    12.000000000000
         C            1.352242723646     0.318038188103     0.815927441839    12.000000000000
         C            0.816628723646    -0.447536811897    -1.011986558161    12.000000000000
         C           -1.049235276354    -0.512469811897     0.718203441839    12.000000000000
         H            1.900209723646     1.256883188103     0.666810441839     1.007825032230
         H            1.356107723646     0.040646188103     1.876109441839     1.007825032230
         H            0.377785723646    -1.351577811897    -1.444899558161     1.007825032230
         H            1.182164723646     0.222809188103    -1.799622558161     1.007825032230
         H           -1.360931276354    -0.024448811897     1.652077441839     1.007825032230
         H           -0.660706276354    -1.513616811897     0.945068441839     1.007825032230
         H           -1.367579276354     1.449208188103    -0.613290558161     1.007825032230
         H           -2.895910276354    -0.962032811897     0.205164441839     1.007825032230

  Basis Set: AUG-CC-PVTZ
    Blend: AUG-CC-PVTZ
  Basis Set: (AUG-CC-PVTZ AUX)
    Blend: AUG-CC-PVTZ-JKFIT
	 Reference Energy          =    -380.8073103629612888 [Eh]
	 Singles Energy            =      -0.0000000000000000 [Eh]
	 Same-Spin Energy          =      -0.3696900594524056 [Eh]
	 Opposite-Spin Energy      =      -1.1720445450744972 [Eh]
	 Correlation Energy        =      -1.5417346045269027 [Eh]
	 Total Energy              =    -382.3490449674881688 [Eh]

	 ================> DF-SCS-MP2 Energies <==================
	-----------------------------------------------------------
	 SCS Same-Spin Scale       =       0.3333333333333333 [-]
	 SCS Opposite-Spin Scale   =       1.2000000000000000 [-]
	 SCS Same-Spin Energy      =      -0.1232300198174685 [Eh]
	 SCS Opposite-Spin Energy  =      -1.4064534540893965 [Eh]
	 SCS Correlation Energy    =      -1.5296834739068650 [Eh]
	 SCS Total Energy          =    -382.3369938368681460 [Eh]
	-----------------------------------------------------------

  Dipole Moment: [D]
     X:    -2.4947      Y:    -0.8291      Z:     1.2859     Total:     2.9265

*** Psi4 exiting successfully. Buy a developer a beer!
