                               Psi4 1.3.2 release

  ==> Input File <==

--------------------------------------------------------------------------
#psi4
#
memory 32 gb

molecule  {
0 1
  O        1.8620410    -0.7430760    -0.0482260
  O       -0.4607810     1.6104540    -0.2729240
  O       -2.1158920    -0.5489690    -0.2415960
  C        0.0351110     0.3306280     0.0450800
  C        1.2867983     0.4061486     0.9168545
  C        0.8265300    -0.4397330    -1.0269400
  C       -1.0393340    -0.5046660     0.7032500
  H        1.9101110     1.2646870     0.6518570
  H        1.3660090     0.0484500     1.8611560
  H        0.3876870    -1.3437740    -1.4598530
  H        1.1920660     0.2306130    -1.8145760
  H       -1.3510300    -0.0166450     1.6371240
  H       -0.6508050    -1.5058130     0.9301150
  H       -1.3576780     1.4570120    -0.6282440
  H       -2.8860090    -0.9542290     0.1902110
units angstrom
no_reorient  #important for SAPT in psi4, default
symmetry c1  #important for SAPT in psi4, default
}

set PROPERTIES_ORIGIN ["COM"]
properties('MP2/aug-cc-pvtz', properties = ['dipole'])
--------------------------------------------------------------------------

    Molecular point group: c1
  Charge       = 0
  Multiplicity = 1
  Basis Set: AUG-CC-PVTZ
    Blend: AUG-CC-PVTZ
  Basis Set: (AUG-CC-PVTZ AUX)
    Blend: AUG-CC-PVTZ-JKFIT

    Orbital Energies [Eh]
    ---------------------

    Doubly Occupied:

       1A    -20.584806     2A    -20.565344     3A    -20.543311
       4A    -11.299505     5A    -11.293955     6A    -11.284820
       7A    -11.270469     8A     -1.395660     9A     -1.363905
      10A     -1.326511    11A     -1.038208    12A     -0.942071
      13A     -0.913603    14A     -0.770695    15A     -0.732123
      16A     -0.699682    17A     -0.675668    18A     -0.655407
      19A     -0.612368    20A     -0.594986    21A     -0.575672
      22A     -0.551228    23A     -0.531510    24A     -0.500485
      25A     -0.477618    26A     -0.474019    27A     -0.431259
      28A     -0.411130

  @DF-RHF Final Energy:  -380.78426800743688

   => Energetics <=

    Nuclear Repulsion Energy =            333.9986263001426892
    One-Electron Energy =               -1184.5337526228840943
    Two-Electron Energy =                 469.7508583153045834
    Total Energy =                       -380.7842680074368786
  Basis Set: (AUG-CC-PVTZ AUX)
    Blend: AUG-CC-PVTZ-RI
    Molecular point group: c1

    Geometry (in Angstrom), charge = 0, multiplicity = 1:

       Center              X                  Y                   Z               Mass
    ------------   -----------------  -----------------  -----------------  -----------------
         O            1.857444412442    -0.760138836280    -0.048575386893    15.994914619570
         O           -0.465377587558     1.593391163720    -0.273273386893    15.994914619570
         O           -2.120488587558    -0.566031836280    -0.241945386893    15.994914619570
         C            0.030514412442     0.313565163720     0.044730613107    12.000000000000
         C            1.282201712442     0.389085763720     0.916505113107    12.000000000000
         C            0.821933412442    -0.456795836280    -1.027289386893    12.000000000000
         C           -1.043930587558    -0.521728836280     0.702900613107    12.000000000000
         H            1.905514412442     1.247624163720     0.651507613107     1.007825032230
         H            1.361412412442     0.031387163720     1.860806613107     1.007825032230
         H            0.383090412442    -1.360836836280    -1.460202386893     1.007825032230
         H            1.187469412442     0.213550163720    -1.814925386893     1.007825032230
         H           -1.355626587558    -0.033707836280     1.636774613107     1.007825032230
         H           -0.655401587558    -1.522875836280     0.929765613107     1.007825032230
         H           -1.362274587558     1.439949163720    -0.628593386893     1.007825032230
         H           -2.890605587558    -0.971291836280     0.189861613107     1.007825032230

  Basis Set: AUG-CC-PVTZ
    Blend: AUG-CC-PVTZ
  Basis Set: (AUG-CC-PVTZ AUX)
    Blend: AUG-CC-PVTZ-JKFIT
	 Reference Energy          =    -380.7842680074368786 [Eh]
	 Singles Energy            =      -0.0000000000000000 [Eh]
	 Same-Spin Energy          =      -0.3708658687363873 [Eh]
	 Opposite-Spin Energy      =      -1.1771359922704407 [Eh]
	 Correlation Energy        =      -1.5480018610068280 [Eh]
	 Total Energy              =    -382.3322698684436887 [Eh]

	 ================> DF-SCS-MP2 Energies <==================
	-----------------------------------------------------------
	 SCS Same-Spin Scale       =       0.3333333333333333 [-]
	 SCS Opposite-Spin Scale   =       1.2000000000000000 [-]
	 SCS Same-Spin Energy      =      -0.1236219562454624 [Eh]
	 SCS Opposite-Spin Energy  =      -1.4125631907245288 [Eh]
	 SCS Correlation Energy    =      -1.5361851469699912 [Eh]
	 SCS Total Energy          =    -382.3204531544068914 [Eh]
	-----------------------------------------------------------

  Dipole Moment: [D]
     X:    -2.6235      Y:    -0.6515      Z:     1.4992     Total:     3.0911

*** Psi4 exiting successfully. Buy a developer a beer!
