                               Psi4 1.3.2 release

  ==> Input File <==

--------------------------------------------------------------------------
#psi4
#
memory 32 gb

molecule  {
0 1
  O        1.8620410    -0.7430760    -0.0482260
  O       -0.4607810     1.6104540    -0.2729240
  O       -2.1158920    -0.5489690    -0.2415960
  C        0.0351110     0.3306280     0.0450800
  C        1.3984261     0.3148153     0.8346956
  C        0.8265300    -0.4397330    -1.0269400
  C       -1.0393340    -0.5046660     0.7032500
  H        1.9101110     1.2646870     0.6518570
  H        1.3660090     0.0484500     1.8611560
  H        0.3876870    -1.3437740    -1.4598530
  H        1.1920660     0.2306130    -1.8145760
  H       -1.3510300    -0.0166450     1.6371240
  H       -0.6508050    -1.5058130     0.9301150
  H       -1.3576780     1.4570120    -0.6282440
  H       -2.8860090    -0.9542290     0.1902110
units angstrom
no_reorient  #important for SAPT in psi4, default
symmetry c1  #important for SAPT in psi4, default
}

set PROPERTIES_ORIGIN ["COM"]
properties('MP2/aug-cc-pvtz', properties = ['dipole'])
--------------------------------------------------------------------------

    Molecular point group: c1
  Charge       = 0
  Multiplicity = 1
  Basis Set: AUG-CC-PVTZ
    Blend: AUG-CC-PVTZ
  Basis Set: (AUG-CC-PVTZ AUX)
    Blend: AUG-CC-PVTZ-JKFIT

    Orbital Energies [Eh]
    ---------------------

    Doubly Occupied:

       1A    -20.583994     2A    -20.564708     3A    -20.554745
       4A    -11.295218     5A    -11.292709     6A    -11.280112
       7A    -11.276187     8A     -1.397606     9A     -1.373451
      10A     -1.353276    11A     -1.031408    12A     -0.939574
      13A     -0.914427    14A     -0.761807    15A     -0.730360
      16A     -0.702468    17A     -0.677347    18A     -0.658526
      19A     -0.618445    20A     -0.600360    21A     -0.571455
      22A     -0.555940    23A     -0.543297    24A     -0.513555
      25A     -0.474617    26A     -0.464907    27A     -0.431602
      28A     -0.416434

  @DF-RHF Final Energy:  -380.80458417220461

   => Energetics <=

    Nuclear Repulsion Energy =            334.7778592014489050
    One-Electron Energy =               -1186.0078189562764237
    Two-Electron Energy =                 470.4253755826229053
    Total Energy =                       -380.8045841722046134
  Basis Set: (AUG-CC-PVTZ AUX)
    Blend: AUG-CC-PVTZ-RI
    Molecular point group: c1

    Geometry (in Angstrom), charge = 0, multiplicity = 1:

       Center              X                  Y                   Z               Mass
    ------------   -----------------  -----------------  -----------------  -----------------
         O            1.844570142451    -0.749605173847    -0.039099827393    15.994914619570
         O           -0.478251857549     1.603924826153    -0.263797827393    15.994914619570
         O           -2.133362857549    -0.555498173847    -0.232469827393    15.994914619570
         C            0.017640142451     0.324098826153     0.054206172607    12.000000000000
         C            1.380955242451     0.308286126153     0.843821772607    12.000000000000
         C            0.809059142451    -0.446262173847    -1.017813827393    12.000000000000
         C           -1.056804857549    -0.511195173847     0.712376172607    12.000000000000
         H            1.892640142451     1.258157826153     0.660983172607     1.007825032230
         H            1.348538142451     0.041920826153     1.870282172607     1.007825032230
         H            0.370216142451    -1.350303173847    -1.450726827393     1.007825032230
         H            1.174595142451     0.224083826153    -1.805449827393     1.007825032230
         H           -1.368500857549    -0.023174173847     1.646250172607     1.007825032230
         H           -0.668275857549    -1.512342173847     0.939241172607     1.007825032230
         H           -1.375148857549     1.450482826153    -0.619117827393     1.007825032230
         H           -2.903479857549    -0.960758173847     0.199337172607     1.007825032230

  Basis Set: AUG-CC-PVTZ
    Blend: AUG-CC-PVTZ
  Basis Set: (AUG-CC-PVTZ AUX)
    Blend: AUG-CC-PVTZ-JKFIT
	 Reference Energy          =    -380.8045841722046134 [Eh]
	 Singles Energy            =      -0.0000000000000000 [Eh]
	 Same-Spin Energy          =      -0.3695813504560381 [Eh]
	 Opposite-Spin Energy      =      -1.1726495390376324 [Eh]
	 Correlation Energy        =      -1.5422308894936705 [Eh]
	 Total Energy              =    -382.3468150616982939 [Eh]

	 ================> DF-SCS-MP2 Energies <==================
	-----------------------------------------------------------
	 SCS Same-Spin Scale       =       0.3333333333333333 [-]
	 SCS Opposite-Spin Scale   =       1.2000000000000000 [-]
	 SCS Same-Spin Energy      =      -0.1231937834853460 [Eh]
	 SCS Opposite-Spin Energy  =      -1.4071794468451588 [Eh]
	 SCS Correlation Energy    =      -1.5303732303305049 [Eh]
	 SCS Total Energy          =    -382.3349574025351103 [Eh]
	-----------------------------------------------------------

  Dipole Moment: [D]
     X:    -2.5441      Y:    -0.8220      Z:     1.2750     Total:     2.9621

*** Psi4 exiting successfully. Buy a developer a beer!
