                               Psi4 1.3.2 release

  ==> Input File <==

--------------------------------------------------------------------------
#psi4
#
memory 32 gb

molecule  {
0 1
  O        1.8620410    -0.7430760    -0.0482260
  O       -0.4607810     1.6104540    -0.2729240
  O       -2.1158920    -0.5489690    -0.2415960
  C        0.0351110     0.3306280     0.0450800
  C        1.3621440     0.3258420     0.8009740
  C        0.8265300    -0.4397330    -1.0269400
  C       -1.0393340    -0.5046660     0.7032500
  H        1.9136297     1.2654255     0.6706667
  H        1.3660090     0.0484500     1.8611560
  H        0.3876870    -1.3437740    -1.4598530
  H        1.1920660     0.2306130    -1.8145760
  H       -1.3510300    -0.0166450     1.6371240
  H       -0.6508050    -1.5058130     0.9301150
  H       -1.3576780     1.4570120    -0.6282440
  H       -2.8860090    -0.9542290     0.1902110
units angstrom
no_reorient  #important for SAPT in psi4, default
symmetry c1  #important for SAPT in psi4, default
}

set PROPERTIES_ORIGIN ["COM"]
properties('MP2/aug-cc-pvtz', properties = ['dipole'])
--------------------------------------------------------------------------

    Molecular point group: c1
  Charge       = 0
  Multiplicity = 1
  Basis Set: AUG-CC-PVTZ
    Blend: AUG-CC-PVTZ
  Basis Set: (AUG-CC-PVTZ AUX)
    Blend: AUG-CC-PVTZ-JKFIT

    Orbital Energies [Eh]
    ---------------------

    Doubly Occupied:

       1A    -20.584600     2A    -20.565158     3A    -20.555195
       4A    -11.294046     5A    -11.293362     6A    -11.281051
       7A    -11.276861     8A     -1.399606     9A     -1.375378
      10A     -1.354204    11A     -1.037089    12A     -0.937079
      13A     -0.918464    14A     -0.760242    15A     -0.730923
      16A     -0.705599    17A     -0.676961    18A     -0.658925
      19A     -0.620269    20A     -0.598502    21A     -0.571104
      22A     -0.548997    23A     -0.543087    24A     -0.514668
      25A     -0.476217    26A     -0.472038    27A     -0.435362
      28A     -0.415806

  @DF-RHF Final Energy:  -380.80661528647659

   => Energetics <=

    Nuclear Repulsion Energy =            335.6113564152849449
    One-Electron Energy =               -1187.6343595725693376
    Two-Electron Energy =                 471.2163878708078073
    Total Energy =                       -380.8066152864765854
  Basis Set: (AUG-CC-PVTZ AUX)
    Blend: AUG-CC-PVTZ-RI
    Molecular point group: c1

    Geometry (in Angstrom), charge = 0, multiplicity = 1:

       Center              X                  Y                   Z               Mass
    ------------   -----------------  -----------------  -----------------  -----------------
         O            1.848720550804    -0.750884059722    -0.035392838841    15.994914619570
         O           -0.474101449196     1.602645940278    -0.260090838841    15.994914619570
         O           -2.129212449196    -0.556777059722    -0.228762838841    15.994914619570
         C            0.021790550804     0.322819940278     0.057913161159    12.000000000000
         C            1.348823550804     0.318033940278     0.813807161159    12.000000000000
         C            0.813209550804    -0.447541059722    -1.014106838841    12.000000000000
         C           -1.052654449196    -0.512474059722     0.716083161159    12.000000000000
         H            1.900309250804     1.257617440278     0.683499861159     1.007825032230
         H            1.352688550804     0.040641940278     1.873989161159     1.007825032230
         H            0.374366550804    -1.351582059722    -1.447019838841     1.007825032230
         H            1.178745550804     0.222804940278    -1.801742838841     1.007825032230
         H           -1.364350449196    -0.024453059722     1.649957161159     1.007825032230
         H           -0.664125449196    -1.513621059722     0.942948161159     1.007825032230
         H           -1.370998449196     1.449203940278    -0.615410838841     1.007825032230
         H           -2.899329449196    -0.962037059722     0.203044161159     1.007825032230

  Basis Set: AUG-CC-PVTZ
    Blend: AUG-CC-PVTZ
  Basis Set: (AUG-CC-PVTZ AUX)
    Blend: AUG-CC-PVTZ-JKFIT
	 Reference Energy          =    -380.8066152864765854 [Eh]
	 Singles Energy            =      -0.0000000000000000 [Eh]
	 Same-Spin Energy          =      -0.3698094327863282 [Eh]
	 Opposite-Spin Energy      =      -1.1726654173751681 [Eh]
	 Correlation Energy        =      -1.5424748501614962 [Eh]
	 Total Energy              =    -382.3490901366380967 [Eh]

	 ================> DF-SCS-MP2 Energies <==================
	-----------------------------------------------------------
	 SCS Same-Spin Scale       =       0.3333333333333333 [-]
	 SCS Opposite-Spin Scale   =       1.2000000000000000 [-]
	 SCS Same-Spin Energy      =      -0.1232698109287760 [Eh]
	 SCS Opposite-Spin Energy  =      -1.4071985008502017 [Eh]
	 SCS Correlation Energy    =      -1.5304683117789777 [Eh]
	 SCS Total Energy          =    -382.3370835982555604 [Eh]
	-----------------------------------------------------------

  Dipole Moment: [D]
     X:    -2.5589      Y:    -0.8203      Z:     1.2295     Total:     2.9551

*** Psi4 exiting successfully. Buy a developer a beer!
