                               Psi4 1.3.2 release

  ==> Input File <==

--------------------------------------------------------------------------
#psi4
#
memory 32 gb

molecule  {
0 1
  O        1.8620410    -0.7430760    -0.0482260
  O       -0.4607810     1.6104540    -0.2729240
  O       -2.1663800    -0.6052813    -0.1761348
  C        0.0351110     0.3306280     0.0450800
  C        1.3621440     0.3258420     0.8009740
  C        0.8265300    -0.4397330    -1.0269400
  C       -1.0393340    -0.5046660     0.7032500
  H        1.9101110     1.2646870     0.6518570
  H        1.3660090     0.0484500     1.8611560
  H        0.3876870    -1.3437740    -1.4598530
  H        1.1920660     0.2306130    -1.8145760
  H       -1.3510300    -0.0166450     1.6371240
  H       -0.6508050    -1.5058130     0.9301150
  H       -1.3576780     1.4570120    -0.6282440
  H       -2.8860090    -0.9542290     0.1902110
units angstrom
no_reorient  #important for SAPT in psi4, default
symmetry c1  #important for SAPT in psi4, default
}

set PROPERTIES_ORIGIN ["COM"]
properties('MP2/aug-cc-pvtz', properties = ['dipole'])
--------------------------------------------------------------------------

    Molecular point group: c1
  Charge       = 0
  Multiplicity = 1
  Basis Set: AUG-CC-PVTZ
    Blend: AUG-CC-PVTZ
  Basis Set: (AUG-CC-PVTZ AUX)
    Blend: AUG-CC-PVTZ-JKFIT

    Orbital Energies [Eh]
    ---------------------

    Doubly Occupied:

       1A    -20.570854     2A    -20.567732     3A    -20.556455
       4A    -11.296843     5A    -11.295147     6A    -11.283509
       7A    -11.278263     8A     -1.406108     9A     -1.384879
      10A     -1.358804    11A     -1.042368    12A     -0.938878
      13A     -0.926775    14A     -0.762969    15A     -0.738641
      16A     -0.712815    17A     -0.682497    18A     -0.659434
      19A     -0.626034    20A     -0.601358    21A     -0.571203
      22A     -0.550901    23A     -0.541370    24A     -0.515060
      25A     -0.478283    26A     -0.471886    27A     -0.436492
      28A     -0.417804

  @DF-RHF Final Energy:  -380.80269518263430

   => Energetics <=

    Nuclear Repulsion Energy =            335.0280193678540854
    One-Electron Energy =               -1186.3147045736427572
    Two-Electron Energy =                 470.4839900231543766
    Total Energy =                       -380.8026951826342952
  Basis Set: (AUG-CC-PVTZ AUX)
    Blend: AUG-CC-PVTZ-RI
    Molecular point group: c1

    Geometry (in Angstrom), charge = 0, multiplicity = 1:

       Center              X                  Y                   Z               Mass
    ------------   -----------------  -----------------  -----------------  -----------------
         O            1.856516016321    -0.742220170058    -0.045273815882    15.994914619570
         O           -0.466305983679     1.611309829942    -0.269971815882    15.994914619570
         O           -2.171904983679    -0.604425470058    -0.173182615882    15.994914619570
         C            0.029586016321     0.331483829942     0.048032184118    12.000000000000
         C            1.356619016321     0.326697829942     0.803926184118    12.000000000000
         C            0.821005016321    -0.438877170058    -1.023987815882    12.000000000000
         C           -1.044858983679    -0.503810170058     0.706202184118    12.000000000000
         H            1.904586016321     1.265542829942     0.654809184118     1.007825032230
         H            1.360484016321     0.049305829942     1.864108184118     1.007825032230
         H            0.382162016321    -1.342918170058    -1.456900815882     1.007825032230
         H            1.186541016321     0.231468829942    -1.811623815882     1.007825032230
         H           -1.356554983679    -0.015789170058     1.640076184118     1.007825032230
         H           -0.656329983679    -1.504957170058     0.933067184118     1.007825032230
         H           -1.363202983679     1.457867829942    -0.625291815882     1.007825032230
         H           -2.891533983679    -0.953373170058     0.193163184118     1.007825032230

  Basis Set: AUG-CC-PVTZ
    Blend: AUG-CC-PVTZ
  Basis Set: (AUG-CC-PVTZ AUX)
    Blend: AUG-CC-PVTZ-JKFIT
	 Reference Energy          =    -380.8026951826342952 [Eh]
	 Singles Energy            =      -0.0000000000000000 [Eh]
	 Same-Spin Energy          =      -0.3683231626499682 [Eh]
	 Opposite-Spin Energy      =      -1.1693241230468758 [Eh]
	 Correlation Energy        =      -1.5376472856968442 [Eh]
	 Total Energy              =    -382.3403424683311300 [Eh]

	 ================> DF-SCS-MP2 Energies <==================
	-----------------------------------------------------------
	 SCS Same-Spin Scale       =       0.3333333333333333 [-]
	 SCS Opposite-Spin Scale   =       1.2000000000000000 [-]
	 SCS Same-Spin Energy      =      -0.1227743875499894 [Eh]
	 SCS Opposite-Spin Energy  =      -1.4031889476562509 [Eh]
	 SCS Correlation Energy    =      -1.5259633352062403 [Eh]
	 SCS Total Energy          =    -382.3286585178405517 [Eh]
	-----------------------------------------------------------

  Dipole Moment: [D]
     X:    -2.3844      Y:    -0.6897      Z:     1.1558     Total:     2.7380

*** Psi4 exiting successfully. Buy a developer a beer!
