                               Psi4 1.4a3.dev225

  ==> Input File <==

--------------------------------------------------------------------------
#psi4
#
memory 32 gb

molecule  {
0 1
  O        1.8620410    -0.7430760    -0.0482260
  O       -0.4607810     1.6104540    -0.2729240
  O       -2.1158920    -0.5489690    -0.2415960
  C        0.0280716     0.3487958     0.0405658
  C        1.3621440     0.3258420     0.8009740
  C        0.8265300    -0.4397330    -1.0269400
  C       -1.0393340    -0.5046660     0.7032500
  H        1.9101110     1.2646870     0.6518570
  H        1.3660090     0.0484500     1.8611560
  H        0.3876870    -1.3437740    -1.4598530
  H        1.1920660     0.2306130    -1.8145760
  H       -1.3510300    -0.0166450     1.6371240
  H       -0.6508050    -1.5058130     0.9301150
  H       -1.3576780     1.4570120    -0.6282440
  H       -2.8860090    -0.9542290     0.1902110
units angstrom
no_reorient  #important for SAPT in psi4, default
symmetry c1  #important for SAPT in psi4, default
}

set PROPERTIES_ORIGIN ["COM"]
properties('MP2/aug-cc-pvtz', properties = ['dipole'])
--------------------------------------------------------------------------

    Molecular point group: c1
  Charge       = 0
  Multiplicity = 1
  Basis Set: AUG-CC-PVTZ
    Blend: AUG-CC-PVTZ
  Basis Set: (AUG-CC-PVTZ AUX)
    Blend: AUG-CC-PVTZ-JKFIT

    Orbital Energies [Eh]
    ---------------------

    Doubly Occupied:

       1A    -20.584239     2A    -20.567752     3A    -20.554600
       4A    -11.294004     5A    -11.292967     6A    -11.280793
       7A    -11.276340     8A     -1.402557     9A     -1.374392
      10A     -1.359041    11A     -1.034178    12A     -0.935265
      13A     -0.917053    14A     -0.762183    15A     -0.731953
      16A     -0.705584    17A     -0.676851    18A     -0.659735
      19A     -0.621968    20A     -0.598168    21A     -0.571106
      22A     -0.548923    23A     -0.545261    24A     -0.517647
      25A     -0.475852    26A     -0.470253    27A     -0.432013
      28A     -0.413532

  @DF-RHF Final Energy:  -380.80648595525440

   => Energetics <=

    Nuclear Repulsion Energy =            335.5990211293400307
    One-Electron Energy =               -1187.6025863698157536
    Two-Electron Energy =                 471.1970792852213208
    Total Energy =                       -380.8064859552544021
  Basis Set: (AUG-CC-PVTZ AUX)
    Blend: AUG-CC-PVTZ-RI
    Molecular point group: c1

    Geometry (in Angstrom), charge = 0, multiplicity = 1:

       Center              X                  Y                   Z               Mass
    ------------   -----------------  -----------------  -----------------  -----------------
         O            1.849566502564    -0.752972237206    -0.034690011805    15.994914619570
         O           -0.473255497436     1.600557762794    -0.259388011805    15.994914619570
         O           -2.128366497436    -0.558865237206    -0.228060011805    15.994914619570
         C            0.015597102564     0.338899562794     0.054101788195    12.000000000000
         C            1.349669502564     0.315945762794     0.814509988195    12.000000000000
         C            0.814055502564    -0.449629237206    -1.013404011805    12.000000000000
         C           -1.051808497436    -0.514562237206     0.716785988195    12.000000000000
         H            1.897636502564     1.254790762794     0.665392988195     1.007825032230
         H            1.353534502564     0.038553762794     1.874691988195     1.007825032230
         H            0.375212502564    -1.353670237206    -1.446317011805     1.007825032230
         H            1.179591502564     0.220716762794    -1.801040011805     1.007825032230
         H           -1.363504497436    -0.026541237206     1.650659988195     1.007825032230
         H           -0.663279497436    -1.515709237206     0.943650988195     1.007825032230
         H           -1.370152497436     1.447115762794    -0.614708011805     1.007825032230
         H           -2.898483497436    -0.964125237206     0.203746988195     1.007825032230

  Basis Set: AUG-CC-PVTZ
    Blend: AUG-CC-PVTZ
  Basis Set: (AUG-CC-PVTZ AUX)
    Blend: AUG-CC-PVTZ-JKFIT
	 Reference Energy          =    -380.8064859552544021 [Eh]
	 Singles Energy            =      -0.0000000000000000 [Eh]
	 Same-Spin Energy          =      -0.3698056157238817 [Eh]
	 Opposite-Spin Energy      =      -1.1724588468710473 [Eh]
	 Correlation Energy        =      -1.5422644625949289 [Eh]
	 Total Energy              =    -382.3487504178493168 [Eh]

	 ================> DF-SCS-MP2 Energies <==================
	-----------------------------------------------------------
	 SCS Same-Spin Scale       =       0.3333333333333333 [-]
	 SCS Opposite-Spin Scale   =       1.2000000000000000 [-]
	 SCS Same-Spin Energy      =      -0.1232685385746272 [Eh]
	 SCS Opposite-Spin Energy  =      -1.4069506162452567 [Eh]
	 SCS Correlation Energy    =      -1.5302191548198840 [Eh]
	 SCS Total Energy          =    -382.3367051100742628 [Eh]
	-----------------------------------------------------------

  Dipole Moment: [D]
     X:    -2.6056      Y:    -0.7525      Z:     1.2144     Total:     2.9716

*** Psi4 exiting successfully. Buy a developer a beer!
