                               Psi4 1.3.2 release

  ==> Input File <==

--------------------------------------------------------------------------
#psi4
#
memory 32 gb

molecule  {
0 1
  O        1.8620410    -0.7430760    -0.0482260
  O       -0.4607810     1.6104540    -0.2729240
  O       -2.1158920    -0.5489690    -0.2415960
  C        0.0351110     0.3306280     0.0450800
  C        1.3724963     0.3419507     0.7824317
  C        0.8265300    -0.4397330    -1.0269400
  C       -1.0393340    -0.5046660     0.7032500
  H        1.9101110     1.2646870     0.6518570
  H        1.3660090     0.0484500     1.8611560
  H        0.3876870    -1.3437740    -1.4598530
  H        1.1920660     0.2306130    -1.8145760
  H       -1.3510300    -0.0166450     1.6371240
  H       -0.6508050    -1.5058130     0.9301150
  H       -1.3576780     1.4570120    -0.6282440
  H       -2.8860090    -0.9542290     0.1902110
units angstrom
no_reorient  #important for SAPT in psi4, default
symmetry c1  #important for SAPT in psi4, default
}

set PROPERTIES_ORIGIN ["COM"]
properties('MP2/aug-cc-pvtz', properties = ['dipole'])
--------------------------------------------------------------------------

    Molecular point group: c1
  Charge       = 0
  Multiplicity = 1
  Basis Set: AUG-CC-PVTZ
    Blend: AUG-CC-PVTZ
  Basis Set: (AUG-CC-PVTZ AUX)
    Blend: AUG-CC-PVTZ-JKFIT

    Orbital Energies [Eh]
    ---------------------

    Doubly Occupied:

       1A    -20.584834     2A    -20.564937     3A    -20.555345
       4A    -11.294034     5A    -11.293214     6A    -11.281130
       7A    -11.276996     8A     -1.400027     9A     -1.376112
      10A     -1.354405    11A     -1.036720    12A     -0.936506
      13A     -0.919752    14A     -0.759800    15A     -0.730781
      16A     -0.706866    17A     -0.675704    18A     -0.658769
      19A     -0.620425    20A     -0.600012    21A     -0.573216
      22A     -0.548152    23A     -0.542241    24A     -0.514847
      25A     -0.475973    26A     -0.471635    27A     -0.435597
      28A     -0.415861

  @DF-RHF Final Energy:  -380.80578326531196

   => Energetics <=

    Nuclear Repulsion Energy =            335.6736997521173862
    One-Electron Energy =               -1187.7511830119931346
    Two-Electron Energy =                 471.2716999945637895
    Total Energy =                       -380.8057832653119590
  Basis Set: (AUG-CC-PVTZ AUX)
    Blend: AUG-CC-PVTZ-RI
    Molecular point group: c1

    Geometry (in Angstrom), charge = 0, multiplicity = 1:

       Center              X                  Y                   Z               Mass
    ------------   -----------------  -----------------  -----------------  -----------------
         O            1.847560681063    -0.752734756853    -0.033072121397    15.994914619570
         O           -0.475261318937     1.600795243147    -0.257770121397    15.994914619570
         O           -2.130372318937    -0.558627756853    -0.226442121397    15.994914619570
         C            0.020630681063     0.320969243147     0.060233878603    12.000000000000
         C            1.358015981063     0.332291943147     0.797585578603    12.000000000000
         C            0.812049681063    -0.449391756853    -1.011786121397    12.000000000000
         C           -1.053814318937    -0.514324756853     0.718403878603    12.000000000000
         H            1.895630681063     1.255028243147     0.667010878603     1.007825032230
         H            1.351528681063     0.038791243147     1.876309878603     1.007825032230
         H            0.373206681063    -1.353432756853    -1.444699121397     1.007825032230
         H            1.177585681063     0.220954243147    -1.799422121397     1.007825032230
         H           -1.365510318937    -0.026303756853     1.652277878603     1.007825032230
         H           -0.665285318937    -1.515471756853     0.945268878603     1.007825032230
         H           -1.372158318937     1.447353243147    -0.613090121397     1.007825032230
         H           -2.900489318937    -0.963887756853     0.205364878603     1.007825032230

  Basis Set: AUG-CC-PVTZ
    Blend: AUG-CC-PVTZ
  Basis Set: (AUG-CC-PVTZ AUX)
    Blend: AUG-CC-PVTZ-JKFIT
	 Reference Energy          =    -380.8057832653119590 [Eh]
	 Singles Energy            =      -0.0000000000000000 [Eh]
	 Same-Spin Energy          =      -0.3698381809323547 [Eh]
	 Opposite-Spin Energy      =      -1.1726767409053127 [Eh]
	 Correlation Energy        =      -1.5425149218376675 [Eh]
	 Total Energy              =    -382.3482981871496236 [Eh]

	 ================> DF-SCS-MP2 Energies <==================
	-----------------------------------------------------------
	 SCS Same-Spin Scale       =       0.3333333333333333 [-]
	 SCS Opposite-Spin Scale   =       1.2000000000000000 [-]
	 SCS Same-Spin Energy      =      -0.1232793936441182 [Eh]
	 SCS Opposite-Spin Energy  =      -1.4072120890863753 [Eh]
	 SCS Correlation Energy    =      -1.5304914827304936 [Eh]
	 SCS Total Energy          =    -382.3362747480424559 [Eh]
	-----------------------------------------------------------

  Dipole Moment: [D]
     X:    -2.5507      Y:    -0.8018      Z:     1.1931     Total:     2.9279

*** Psi4 exiting successfully. Buy a developer a beer!
