                               Psi4 1.3.2 release

  ==> Input File <==

--------------------------------------------------------------------------
#psi4
#
memory 32 gb

molecule  {
0 1
  O        1.8620410    -0.7430760    -0.0482260
  O       -0.4607810     1.6104540    -0.2729240
  O       -2.1158920    -0.5489690    -0.2415960
  C        0.0351110     0.3306280     0.0450800
  C        1.3965288     0.2523178     0.7425628
  C        0.8265300    -0.4397330    -1.0269400
  C       -1.0393340    -0.5046660     0.7032500
  H        1.9101110     1.2646870     0.6518570
  H        1.3660090     0.0484500     1.8611560
  H        0.3876870    -1.3437740    -1.4598530
  H        1.1920660     0.2306130    -1.8145760
  H       -1.3510300    -0.0166450     1.6371240
  H       -0.6508050    -1.5058130     0.9301150
  H       -1.3576780     1.4570120    -0.6282440
  H       -2.8860090    -0.9542290     0.1902110
units angstrom
no_reorient  #important for SAPT in psi4, default
symmetry c1  #important for SAPT in psi4, default
}

set PROPERTIES_ORIGIN ["COM"]
properties('MP2/aug-cc-pvtz', properties = ['dipole'])
--------------------------------------------------------------------------

    Molecular point group: c1
  Charge       = 0
  Multiplicity = 1
  Basis Set: AUG-CC-PVTZ
    Blend: AUG-CC-PVTZ
  Basis Set: (AUG-CC-PVTZ AUX)
    Blend: AUG-CC-PVTZ-JKFIT

    Orbital Energies [Eh]
    ---------------------

    Doubly Occupied:

       1A    -20.584273     2A    -20.565888     3A    -20.562224
       4A    -11.293347     5A    -11.291080     6A    -11.284148
       7A    -11.282861     8A     -1.423303     9A     -1.387736
      10A     -1.357765    11A     -1.039249    12A     -0.940237
      13A     -0.916634    14A     -0.754173    15A     -0.730887
      16A     -0.710754    17A     -0.683791    18A     -0.661511
      19A     -0.632545    20A     -0.608041    21A     -0.572601
      22A     -0.553964    23A     -0.541895    24A     -0.521654
      25A     -0.475400    26A     -0.468066    27A     -0.427431
      28A     -0.412439

  @DF-RHF Final Energy:  -380.79930759972240

   => Energetics <=

    Nuclear Repulsion Energy =            336.8562333761817058
    One-Electron Energy =               -1189.9432859611392814
    Two-Electron Energy =                 472.2877449852351219
    Total Energy =                       -380.7993075997223968
  Basis Set: (AUG-CC-PVTZ AUX)
    Blend: AUG-CC-PVTZ-RI
    Molecular point group: c1

    Geometry (in Angstrom), charge = 0, multiplicity = 1:

       Center              X                  Y                   Z               Mass
    ------------   -----------------  -----------------  -----------------  -----------------
         O            1.844788962068    -0.742397205144    -0.028473956936    15.994914619570
         O           -0.478033037932     1.611132794856    -0.253171956936    15.994914619570
         O           -2.133144037932    -0.548290205144    -0.221843956936    15.994914619570
         C            0.017858962068     0.331306794856     0.064832043064    12.000000000000
         C            1.379276762068     0.252996594856     0.762314843064    12.000000000000
         C            0.809277962068    -0.439054205144    -1.007187956936    12.000000000000
         C           -1.056586037932    -0.503987205144     0.723002043064    12.000000000000
         H            1.892858962068     1.265365794856     0.671609043064     1.007825032230
         H            1.348756962068     0.049128794856     1.880908043064     1.007825032230
         H            0.370434962068    -1.343095205144    -1.440100956936     1.007825032230
         H            1.174813962068     0.231291794856    -1.794823956936     1.007825032230
         H           -1.368282037932    -0.015966205144     1.656876043064     1.007825032230
         H           -0.668057037932    -1.505134205144     0.949867043064     1.007825032230
         H           -1.374930037932     1.457690794856    -0.608491956936     1.007825032230
         H           -2.903261037932    -0.953550205144     0.209963043064     1.007825032230

  Basis Set: AUG-CC-PVTZ
    Blend: AUG-CC-PVTZ
  Basis Set: (AUG-CC-PVTZ AUX)
    Blend: AUG-CC-PVTZ-JKFIT
	 Reference Energy          =    -380.7993075997223968 [Eh]
	 Singles Energy            =      -0.0000000000000000 [Eh]
	 Same-Spin Energy          =      -0.3699082266269798 [Eh]
	 Opposite-Spin Energy      =      -1.1712408780222896 [Eh]
	 Correlation Energy        =      -1.5411491046492694 [Eh]
	 Total Energy              =    -382.3404567043716611 [Eh]

	 ================> DF-SCS-MP2 Energies <==================
	-----------------------------------------------------------
	 SCS Same-Spin Scale       =       0.3333333333333333 [-]
	 SCS Opposite-Spin Scale   =       1.2000000000000000 [-]
	 SCS Same-Spin Energy      =      -0.1233027422089932 [Eh]
	 SCS Opposite-Spin Energy  =      -1.4054890536267475 [Eh]
	 SCS Correlation Energy    =      -1.5287917958357407 [Eh]
	 SCS Total Energy          =    -382.3280993955581266 [Eh]
	-----------------------------------------------------------

  Dipole Moment: [D]
     X:    -2.5376      Y:    -1.0282      Z:     0.9788     Total:     2.9077

*** Psi4 exiting successfully. Buy a developer a beer!
