                               Psi4 1.3.2 release

  ==> Input File <==

--------------------------------------------------------------------------
#psi4
#
memory 32 gb

molecule  {
0 1
  O        1.8178551    -0.7427126    -0.0731780
  O       -0.4607810     1.6104540    -0.2729240
  O       -2.1158920    -0.5489690    -0.2415960
  C        0.0351110     0.3306280     0.0450800
  C        1.3621440     0.3258420     0.8009740
  C        0.8265300    -0.4397330    -1.0269400
  C       -1.0393340    -0.5046660     0.7032500
  H        1.9101110     1.2646870     0.6518570
  H        1.3660090     0.0484500     1.8611560
  H        0.3876870    -1.3437740    -1.4598530
  H        1.1920660     0.2306130    -1.8145760
  H       -1.3510300    -0.0166450     1.6371240
  H       -0.6508050    -1.5058130     0.9301150
  H       -1.3576780     1.4570120    -0.6282440
  H       -2.8860090    -0.9542290     0.1902110
units angstrom
no_reorient  #important for SAPT in psi4, default
symmetry c1  #important for SAPT in psi4, default
}

set PROPERTIES_ORIGIN ["COM"]
properties('MP2/aug-cc-pvtz', properties = ['dipole'])
--------------------------------------------------------------------------

    Molecular point group: c1
  Charge       = 0
  Multiplicity = 1
  Basis Set: AUG-CC-PVTZ
    Blend: AUG-CC-PVTZ
  Basis Set: (AUG-CC-PVTZ AUX)
    Blend: AUG-CC-PVTZ-JKFIT

    Orbital Energies [Eh]
    ---------------------

    Doubly Occupied:

       1A    -20.583752     2A    -20.563348     3A    -20.554555
       4A    -11.292998     5A    -11.291870     6A    -11.282511
       7A    -11.271304     8A     -1.405885     9A     -1.381728
      10A     -1.355145    11A     -1.034800    12A     -0.941603
      13A     -0.915836    14A     -0.758853    15A     -0.730355
      16A     -0.707721    17A     -0.680114    18A     -0.659637
      19A     -0.624886    20A     -0.600640    21A     -0.572365
      22A     -0.551171    23A     -0.543448    24A     -0.512651
      25A     -0.476453    26A     -0.472820    27A     -0.434000
      28A     -0.412168

  @DF-RHF Final Energy:  -380.80710664973731

   => Energetics <=

    Nuclear Repulsion Energy =            336.8507509349016686
    One-Electron Energy =               -1190.0904841774338365
    Two-Electron Energy =                 472.4326265927948043
    Total Energy =                       -380.8071066497373067
  Basis Set: (AUG-CC-PVTZ AUX)
    Blend: AUG-CC-PVTZ-RI
    Molecular point group: c1

    Geometry (in Angstrom), charge = 0, multiplicity = 1:

       Center              X                  Y                   Z               Mass
    ------------   -----------------  -----------------  -----------------  -----------------
         O            1.811361311665    -0.750569370943    -0.056326841077    15.994914619570
         O           -0.467274788335     1.602597229057    -0.256072841077    15.994914619570
         O           -2.122385788335    -0.556825770943    -0.224744841077    15.994914619570
         C            0.028617211665     0.322771229057     0.061931158923    12.000000000000
         C            1.355650211665     0.317985229057     0.817825158923    12.000000000000
         C            0.820036211665    -0.447589770943    -1.010088841077    12.000000000000
         C           -1.045827788335    -0.512522770943     0.720101158923    12.000000000000
         H            1.903617211665     1.256830229057     0.668708158923     1.007825032230
         H            1.359515211665     0.040593229057     1.878007158923     1.007825032230
         H            0.381193211665    -1.351630770943    -1.443001841077     1.007825032230
         H            1.185572211665     0.222756229057    -1.797724841077     1.007825032230
         H           -1.357523788335    -0.024501770943     1.653975158923     1.007825032230
         H           -0.657298788335    -1.513669770943     0.946966158923     1.007825032230
         H           -1.364171788335     1.449155229057    -0.611392841077     1.007825032230
         H           -2.892502788335    -0.962085770943     0.207062158923     1.007825032230

  Basis Set: AUG-CC-PVTZ
    Blend: AUG-CC-PVTZ
  Basis Set: (AUG-CC-PVTZ AUX)
    Blend: AUG-CC-PVTZ-JKFIT
	 Reference Energy          =    -380.8071066497373067 [Eh]
	 Singles Energy            =      -0.0000000000000000 [Eh]
	 Same-Spin Energy          =      -0.3695769188816570 [Eh]
	 Opposite-Spin Energy      =      -1.1714479136096470 [Eh]
	 Correlation Energy        =      -1.5410248324913041 [Eh]
	 Total Energy              =    -382.3481314822286095 [Eh]

	 ================> DF-SCS-MP2 Energies <==================
	-----------------------------------------------------------
	 SCS Same-Spin Scale       =       0.3333333333333333 [-]
	 SCS Opposite-Spin Scale   =       1.2000000000000000 [-]
	 SCS Same-Spin Energy      =      -0.1231923062938857 [Eh]
	 SCS Opposite-Spin Energy  =      -1.4057374963315763 [Eh]
	 SCS Correlation Energy    =      -1.5289298026254619 [Eh]
	 SCS Total Energy          =    -382.3360364523627482 [Eh]
	-----------------------------------------------------------

  Dipole Moment: [D]
     X:    -2.4272      Y:    -0.8377      Z:     1.3459     Total:     2.8991

*** Psi4 exiting successfully. Buy a developer a beer!
