                               Psi4 1.4a3.dev225

  ==> Input File <==

--------------------------------------------------------------------------
#psi4
#
memory 32 gb

molecule  {
0 1
  O        1.8620410    -0.7430760    -0.0482260
  O       -0.4607810     1.6104540    -0.2729240
  O       -2.1158920    -0.5489690    -0.2415960
  C        0.0351110     0.3306280     0.0450800
  C        1.3621440     0.3258420     0.8009740
  C        0.8265300    -0.4397330    -1.0269400
  C       -1.0535487    -0.5157168     0.7119575
  H        1.9101110     1.2646870     0.6518570
  H        1.3660090     0.0484500     1.8611560
  H        0.3876870    -1.3437740    -1.4598530
  H        1.1920660     0.2306130    -1.8145760
  H       -1.3510300    -0.0166450     1.6371240
  H       -0.6508050    -1.5058130     0.9301150
  H       -1.3576780     1.4570120    -0.6282440
  H       -2.8860090    -0.9542290     0.1902110
units angstrom
no_reorient  #important for SAPT in psi4, default
symmetry c1  #important for SAPT in psi4, default
}

set PROPERTIES_ORIGIN ["COM"]
properties('MP2/aug-cc-pvtz', properties = ['dipole'])
--------------------------------------------------------------------------

    Molecular point group: c1
  Charge       = 0
  Multiplicity = 1
  Basis Set: AUG-CC-PVTZ
    Blend: AUG-CC-PVTZ
  Basis Set: (AUG-CC-PVTZ AUX)
    Blend: AUG-CC-PVTZ-JKFIT

    Orbital Energies [Eh]
    ---------------------

    Doubly Occupied:

       1A    -20.585761     2A    -20.565052     3A    -20.554580
       4A    -11.294096     5A    -11.292945     6A    -11.280441
       7A    -11.276438     8A     -1.399816     9A     -1.376456
      10A     -1.354289    11A     -1.033707    12A     -0.936358
      13A     -0.918657    14A     -0.759139    15A     -0.731550
      16A     -0.704919    17A     -0.676230    18A     -0.660349
      19A     -0.620245    20A     -0.599124    21A     -0.571560
      22A     -0.550254    23A     -0.542779    24A     -0.513011
      25A     -0.477813    26A     -0.470671    27A     -0.434650
      28A     -0.414446

  @DF-RHF Final Energy:  -380.80630096191766

   => Energetics <=

    Nuclear Repulsion Energy =            335.3457649454054490
    One-Electron Energy =               -1187.1134570090414400
    Two-Electron Energy =                 470.9613911017183341
    Total Energy =                       -380.8063009619176569
  Basis Set: (AUG-CC-PVTZ AUX)
    Blend: AUG-CC-PVTZ-RI
    Molecular point group: c1

    Geometry (in Angstrom), charge = 0, multiplicity = 1:

       Center              X                  Y                   Z               Mass
    ------------   -----------------  -----------------  -----------------  -----------------
         O            1.850394045071    -0.749602394343    -0.036214898397    15.994914619570
         O           -0.472427954929     1.603927605657    -0.260912898397    15.994914619570
         O           -2.127538954929    -0.555495394343    -0.229584898397    15.994914619570
         C            0.023464045071     0.324101605657     0.057091101603    12.000000000000
         C            1.350497045071     0.319315605657     0.812985101603    12.000000000000
         C            0.814883045071    -0.446259394343    -1.014928898397    12.000000000000
         C           -1.065195654929    -0.522243194343     0.723968601603    12.000000000000
         H            1.898464045071     1.258160605657     0.663868101603     1.007825032230
         H            1.354362045071     0.041923605657     1.873167101603     1.007825032230
         H            0.376040045071    -1.350300394343    -1.447841898397     1.007825032230
         H            1.180419045071     0.224086605657    -1.802564898397     1.007825032230
         H           -1.362676954929    -0.023171394343     1.649135101603     1.007825032230
         H           -0.662451954929    -1.512339394343     0.942126101603     1.007825032230
         H           -1.369324954929     1.450485605657    -0.616232898397     1.007825032230
         H           -2.897655954929    -0.960755394343     0.202222101603     1.007825032230

  Basis Set: AUG-CC-PVTZ
    Blend: AUG-CC-PVTZ
  Basis Set: (AUG-CC-PVTZ AUX)
    Blend: AUG-CC-PVTZ-JKFIT
	 Reference Energy          =    -380.8063009619176569 [Eh]
	 Singles Energy            =      -0.0000000000000000 [Eh]
	 Same-Spin Energy          =      -0.3697612497192183 [Eh]
	 Opposite-Spin Energy      =      -1.1726313486123043 [Eh]
	 Correlation Energy        =      -1.5423925983315225 [Eh]
	 Total Energy              =    -382.3486935602491599 [Eh]

	 ================> DF-SCS-MP2 Energies <==================
	-----------------------------------------------------------
	 SCS Same-Spin Scale       =       0.3333333333333333 [-]
	 SCS Opposite-Spin Scale   =       1.2000000000000000 [-]
	 SCS Same-Spin Energy      =      -0.1232537499064061 [Eh]
	 SCS Opposite-Spin Energy  =      -1.4071576183347652 [Eh]
	 SCS Correlation Energy    =      -1.5304113682411713 [Eh]
	 SCS Total Energy          =    -382.3367123301588322 [Eh]
	-----------------------------------------------------------

  Dipole Moment: [D]
     X:    -2.5977      Y:    -0.8264      Z:     1.2231     Total:     2.9878

*** Psi4 exiting successfully. Buy a developer a beer!
