                               Psi4 1.3.2 release

  ==> Input File <==

--------------------------------------------------------------------------
#psi4
#
memory 32 gb

molecule  {
0 1
  O        1.8620410    -0.7430760    -0.0482260
  O       -0.4607810     1.6104540    -0.2729240
  O       -2.1158920    -0.5489690    -0.2415960
  C        0.0351110     0.3306280     0.0450800
  C        1.4490358     0.3255286     0.8504686
  C        0.8265300    -0.4397330    -1.0269400
  C       -1.0393340    -0.5046660     0.7032500
  H        1.9101110     1.2646870     0.6518570
  H        1.3660090     0.0484500     1.8611560
  H        0.3876870    -1.3437740    -1.4598530
  H        1.1920660     0.2306130    -1.8145760
  H       -1.3510300    -0.0166450     1.6371240
  H       -0.6508050    -1.5058130     0.9301150
  H       -1.3576780     1.4570120    -0.6282440
  H       -2.8860090    -0.9542290     0.1902110
units angstrom
no_reorient  #important for SAPT in psi4, default
symmetry c1  #important for SAPT in psi4, default
}

set PROPERTIES_ORIGIN ["COM"]
properties('MP2/aug-cc-pvtz', properties = ['dipole'])
--------------------------------------------------------------------------

    Molecular point group: c1
  Charge       = 0
  Multiplicity = 1
  Basis Set: AUG-CC-PVTZ
    Blend: AUG-CC-PVTZ
  Basis Set: (AUG-CC-PVTZ AUX)
    Blend: AUG-CC-PVTZ-JKFIT

    Orbital Energies [Eh]
    ---------------------

    Doubly Occupied:

       1A    -20.583718     2A    -20.563916     3A    -20.554687
       4A    -11.296371     5A    -11.292198     6A    -11.279604
       7A    -11.275721     8A     -1.395881     9A     -1.371496
      10A     -1.352159    11A     -1.026023    12A     -0.941525
      13A     -0.911920    14A     -0.762945    15A     -0.729645
      16A     -0.701075    17A     -0.675603    18A     -0.657740
      19A     -0.616755    20A     -0.605010    21A     -0.574052
      22A     -0.559030    23A     -0.543532    24A     -0.512574
      25A     -0.473893    26A     -0.458350    27A     -0.426611
      28A     -0.415459

  @DF-RHF Final Energy:  -380.79841335144590

   => Energetics <=

    Nuclear Repulsion Energy =            333.8628912536850066
    One-Electron Energy =               -1184.2076228979569805
    Two-Electron Energy =                 469.5463182928260721
    Total Energy =                       -380.7984133514459018
  Basis Set: (AUG-CC-PVTZ AUX)
    Blend: AUG-CC-PVTZ-RI
    Molecular point group: c1

    Geometry (in Angstrom), charge = 0, multiplicity = 1:

       Center              X                  Y                   Z               Mass
    ------------   -----------------  -----------------  -----------------  -----------------
         O            1.838733218836    -0.750840761368    -0.040918960804    15.994914619570
         O           -0.484088781164     1.602689238632    -0.265616960804    15.994914619570
         O           -2.139199781164    -0.556733761368    -0.234288960804    15.994914619570
         C            0.011803218836     0.322863238632     0.052387039196    12.000000000000
         C            1.425728018836     0.317763838632     0.857775639196    12.000000000000
         C            0.803222218836    -0.447497761368    -1.019632960804    12.000000000000
         C           -1.062641781164    -0.512430761368     0.710557039196    12.000000000000
         H            1.886803218836     1.256922238632     0.659164039196     1.007825032230
         H            1.342701218836     0.040685238632     1.868463039196     1.007825032230
         H            0.364379218836    -1.351538761368    -1.452545960804     1.007825032230
         H            1.168758218836     0.222848238632    -1.807268960804     1.007825032230
         H           -1.374337781164    -0.024409761368     1.644431039196     1.007825032230
         H           -0.674112781164    -1.513577761368     0.937422039196     1.007825032230
         H           -1.380985781164     1.449247238632    -0.620936960804     1.007825032230
         H           -2.909316781164    -0.961993761368     0.197518039196     1.007825032230

  Basis Set: AUG-CC-PVTZ
    Blend: AUG-CC-PVTZ
  Basis Set: (AUG-CC-PVTZ AUX)
    Blend: AUG-CC-PVTZ-JKFIT
	 Reference Energy          =    -380.7984133514459018 [Eh]
	 Singles Energy            =      -0.0000000000000000 [Eh]
	 Same-Spin Energy          =      -0.3695380947013003 [Eh]
	 Opposite-Spin Energy      =      -1.1730114805806080 [Eh]
	 Correlation Energy        =      -1.5425495752819083 [Eh]
	 Total Energy              =    -382.3409629267277978 [Eh]

	 ================> DF-SCS-MP2 Energies <==================
	-----------------------------------------------------------
	 SCS Same-Spin Scale       =       0.3333333333333333 [-]
	 SCS Opposite-Spin Scale   =       1.2000000000000000 [-]
	 SCS Same-Spin Energy      =      -0.1231793649004334 [Eh]
	 SCS Opposite-Spin Energy  =      -1.4076137766967296 [Eh]
	 SCS Correlation Energy    =      -1.5307931415971630 [Eh]
	 SCS Total Energy          =    -382.3292064930430456 [Eh]
	-----------------------------------------------------------

  Dipole Moment: [D]
     X:    -2.5169      Y:    -0.7928      Z:     1.2884     Total:     2.9366

*** Psi4 exiting successfully. Buy a developer a beer!
