                               Psi4 1.4a3.dev225

  ==> Input File <==

--------------------------------------------------------------------------
#psi4
#
memory 32 gb

molecule  {
0 1
  O        1.8620410    -0.7430760    -0.0482260
  O       -0.4607810     1.6104540    -0.2729240
  O       -2.1158920    -0.5489690    -0.2415960
  C        0.0351110     0.3306280     0.0450800
  C        1.3621440     0.3258420     0.8009740
  C        0.8265300    -0.4397330    -1.0269400
  C       -1.0017726    -0.5031203     0.7362159
  H        1.9101110     1.2646870     0.6518570
  H        1.3660090     0.0484500     1.8611560
  H        0.3876870    -1.3437740    -1.4598530
  H        1.1920660     0.2306130    -1.8145760
  H       -1.3510300    -0.0166450     1.6371240
  H       -0.6508050    -1.5058130     0.9301150
  H       -1.3576780     1.4570120    -0.6282440
  H       -2.8860090    -0.9542290     0.1902110
units angstrom
no_reorient  #important for SAPT in psi4, default
symmetry c1  #important for SAPT in psi4, default
}

set PROPERTIES_ORIGIN ["COM"]
properties('MP2/aug-cc-pvtz', properties = ['dipole'])
--------------------------------------------------------------------------

    Molecular point group: c1
  Charge       = 0
  Multiplicity = 1
  Basis Set: AUG-CC-PVTZ
    Blend: AUG-CC-PVTZ
  Basis Set: (AUG-CC-PVTZ AUX)
    Blend: AUG-CC-PVTZ-JKFIT

    Orbital Energies [Eh]
    ---------------------

    Doubly Occupied:

       1A    -20.578912     2A    -20.566100     3A    -20.555854
       4A    -11.294738     5A    -11.293631     6A    -11.281522
       7A    -11.278110     8A     -1.396396     9A     -1.366931
      10A     -1.348785    11A     -1.042022    12A     -0.937869
      13A     -0.920736    14A     -0.761810    15A     -0.726199
      16A     -0.702986    17A     -0.675682    18A     -0.658713
      19A     -0.618549    20A     -0.595018    21A     -0.568695
      22A     -0.547861    23A     -0.542284    24A     -0.517297
      25A     -0.479997    26A     -0.473070    27A     -0.436395
      28A     -0.418039

  @DF-RHF Final Energy:  -380.80377232664074

   => Energetics <=

    Nuclear Repulsion Energy =            335.4046740519201535
    One-Electron Energy =               -1187.2484936695764191
    Two-Electron Energy =                 471.0400472910154690
    Total Energy =                       -380.8037723266407397
  Basis Set: (AUG-CC-PVTZ AUX)
    Blend: AUG-CC-PVTZ-RI
    Molecular point group: c1

    Geometry (in Angstrom), charge = 0, multiplicity = 1:

       Center              X                  Y                   Z               Mass
    ------------   -----------------  -----------------  -----------------  -----------------
         O            1.844422598080    -0.751055175298    -0.039012670916    15.994914619570
         O           -0.478399401920     1.602474824702    -0.263710670916    15.994914619570
         O           -2.133510401920    -0.556948175298    -0.232382670916    15.994914619570
         C            0.017492598080     0.322648824702     0.054293329084    12.000000000000
         C            1.344525598080     0.317862824702     0.810187329084    12.000000000000
         C            0.808911598080    -0.447712175298    -1.017726670916    12.000000000000
         C           -1.019391001920    -0.511099475298     0.745429229084    12.000000000000
         H            1.892492598080     1.256707824702     0.661070329084     1.007825032230
         H            1.348390598080     0.040470824702     1.870369329084     1.007825032230
         H            0.370068598080    -1.351753175298    -1.450639670916     1.007825032230
         H            1.174447598080     0.222633824702    -1.805362670916     1.007825032230
         H           -1.368648401920    -0.024624175298     1.646337329084     1.007825032230
         H           -0.668423401920    -1.513792175298     0.939328329084     1.007825032230
         H           -1.375296401920     1.449032824702    -0.619030670916     1.007825032230
         H           -2.903627401920    -0.962208175298     0.199424329084     1.007825032230

  Basis Set: AUG-CC-PVTZ
    Blend: AUG-CC-PVTZ
  Basis Set: (AUG-CC-PVTZ AUX)
    Blend: AUG-CC-PVTZ-JKFIT
	 Reference Energy          =    -380.8037723266407397 [Eh]
	 Singles Energy            =      -0.0000000000000000 [Eh]
	 Same-Spin Energy          =      -0.3700335451316444 [Eh]
	 Opposite-Spin Energy      =      -1.1736399696762692 [Eh]
	 Correlation Energy        =      -1.5436735148079137 [Eh]
	 Total Energy              =    -382.3474458414486321 [Eh]

	 ================> DF-SCS-MP2 Energies <==================
	-----------------------------------------------------------
	 SCS Same-Spin Scale       =       0.3333333333333333 [-]
	 SCS Opposite-Spin Scale   =       1.2000000000000000 [-]
	 SCS Same-Spin Energy      =      -0.1233445150438815 [Eh]
	 SCS Opposite-Spin Energy  =      -1.4083679636115229 [Eh]
	 SCS Correlation Energy    =      -1.5317124786554044 [Eh]
	 SCS Total Energy          =    -382.3354848052961188 [Eh]
	-----------------------------------------------------------

  Dipole Moment: [D]
     X:    -2.4104      Y:    -0.8064      Z:     1.3204     Total:     2.8643

*** Psi4 exiting successfully. Buy a developer a beer!
