                               Psi4 1.3.2 release

  ==> Input File <==

--------------------------------------------------------------------------
#psi4
#
memory 32 gb

molecule  {
0 1
  O        1.8620410    -0.7430760    -0.0482260
  O       -0.4607810     1.6104540    -0.2729240
  O       -2.1158920    -0.5489690    -0.2415960
  C        0.0351110     0.3306280     0.0450800
  C        1.4180884     0.4223445     0.6864667
  C        0.8265300    -0.4397330    -1.0269400
  C       -1.0393340    -0.5046660     0.7032500
  H        1.9101110     1.2646870     0.6518570
  H        1.3660090     0.0484500     1.8611560
  H        0.3876870    -1.3437740    -1.4598530
  H        1.1920660     0.2306130    -1.8145760
  H       -1.3510300    -0.0166450     1.6371240
  H       -0.6508050    -1.5058130     0.9301150
  H       -1.3576780     1.4570120    -0.6282440
  H       -2.8860090    -0.9542290     0.1902110
units angstrom
no_reorient  #important for SAPT in psi4, default
symmetry c1  #important for SAPT in psi4, default
}

set PROPERTIES_ORIGIN ["COM"]
properties('MP2/aug-cc-pvtz', properties = ['dipole'])
--------------------------------------------------------------------------

    Molecular point group: c1
  Charge       = 0
  Multiplicity = 1
  Basis Set: AUG-CC-PVTZ
    Blend: AUG-CC-PVTZ
  Basis Set: (AUG-CC-PVTZ AUX)
    Blend: AUG-CC-PVTZ-JKFIT

    Orbital Energies [Eh]
    ---------------------

    Doubly Occupied:

       1A    -20.586502     2A    -20.564309     3A    -20.558900
       4A    -11.295859     5A    -11.294478     6A    -11.284287
       7A    -11.278829     8A     -1.402659     9A     -1.379667
      10A     -1.355666    11A     -1.036383    12A     -0.939275
      13A     -0.925365    14A     -0.769063    15A     -0.731625
      16A     -0.711740    17A     -0.671506    18A     -0.659365
      19A     -0.621603    20A     -0.605784    21A     -0.581198
      22A     -0.549035    23A     -0.530529    24A     -0.516248
      25A     -0.475965    26A     -0.467872    27A     -0.442016
      28A     -0.407449

  @DF-RHF Final Energy:  -380.77662811857408

   => Energetics <=

    Nuclear Repulsion Energy =            335.8390277319585948
    One-Electron Energy =               -1187.9449588498271169
    Two-Electron Energy =                 471.3293029992944412
    Total Energy =                       -380.7766281185740809
  Basis Set: (AUG-CC-PVTZ AUX)
    Blend: AUG-CC-PVTZ-RI
    Molecular point group: c1

    Geometry (in Angstrom), charge = 0, multiplicity = 1:

       Center              X                  Y                   Z               Mass
    ------------   -----------------  -----------------  -----------------  -----------------
         O            1.842302447855    -0.762006743641    -0.022004275218    15.994914619570
         O           -0.480519552145     1.591523256359    -0.246702275218    15.994914619570
         O           -2.135630552145    -0.567899743641    -0.215374275218    15.994914619570
         C            0.015372447855     0.311697256359     0.071301724782    12.000000000000
         C            1.398349847855     0.403413756359     0.712688424782    12.000000000000
         C            0.806791447855    -0.458663743641    -1.000718275218    12.000000000000
         C           -1.059072552145    -0.523596743641     0.729471724782    12.000000000000
         H            1.890372447855     1.245756256359     0.678078724782     1.007825032230
         H            1.346270447855     0.029519256359     1.887377724782     1.007825032230
         H            0.367948447855    -1.362704743641    -1.433631275218     1.007825032230
         H            1.172327447855     0.211682256359    -1.788354275218     1.007825032230
         H           -1.370768552145    -0.035575743641     1.663345724782     1.007825032230
         H           -0.670543552145    -1.524743743641     0.956336724782     1.007825032230
         H           -1.377416552145     1.438081256359    -0.602022275218     1.007825032230
         H           -2.905747552145    -0.973159743641     0.216432724782     1.007825032230

  Basis Set: AUG-CC-PVTZ
    Blend: AUG-CC-PVTZ
  Basis Set: (AUG-CC-PVTZ AUX)
    Blend: AUG-CC-PVTZ-JKFIT
	 Reference Energy          =    -380.7766281185740809 [Eh]
	 Singles Energy            =      -0.0000000000000000 [Eh]
	 Same-Spin Energy          =      -0.3703553364295384 [Eh]
	 Opposite-Spin Energy      =      -1.1739855445147038 [Eh]
	 Correlation Energy        =      -1.5443408809442423 [Eh]
	 Total Energy              =    -382.3209689995182998 [Eh]

	 ================> DF-SCS-MP2 Energies <==================
	-----------------------------------------------------------
	 SCS Same-Spin Scale       =       0.3333333333333333 [-]
	 SCS Opposite-Spin Scale   =       1.2000000000000000 [-]
	 SCS Same-Spin Energy      =      -0.1234517788098461 [Eh]
	 SCS Opposite-Spin Energy  =      -1.4087826534176446 [Eh]
	 SCS Correlation Energy    =      -1.5322344322274908 [Eh]
	 SCS Total Energy          =    -382.3088625508015639 [Eh]
	-----------------------------------------------------------

  Dipole Moment: [D]
     X:    -2.5249      Y:    -0.7325      Z:     0.9688     Total:     2.8019

*** Psi4 exiting successfully. Buy a developer a beer!
