                               Psi4 1.3.2 release

  ==> Input File <==

--------------------------------------------------------------------------
#psi4
#
memory 32 gb

molecule  {
0 1
  O        1.8620410    -0.7430760    -0.0482260
  O       -0.4607810     1.6104540    -0.2729240
  O       -2.1158920    -0.5489690    -0.2415960
  C        0.0351110     0.3306280     0.0450800
  C        1.3802117     0.3204906     0.8179667
  C        0.8265300    -0.4397330    -1.0269400
  C       -1.0393340    -0.5046660     0.7032500
  H        1.9101110     1.2646870     0.6518570
  H        1.3660090     0.0484500     1.8611560
  H        0.3876870    -1.3437740    -1.4598530
  H        1.1920660     0.2306130    -1.8145760
  H       -1.3510300    -0.0166450     1.6371240
  H       -0.6508050    -1.5058130     0.9301150
  H       -1.3576780     1.4570120    -0.6282440
  H       -2.8860090    -0.9542290     0.1902110
units angstrom
no_reorient  #important for SAPT in psi4, default
symmetry c1  #important for SAPT in psi4, default
}

set PROPERTIES_ORIGIN ["COM"]
properties('MP2/aug-cc-pvtz', properties = ['dipole'])
--------------------------------------------------------------------------

    Molecular point group: c1
  Charge       = 0
  Multiplicity = 1
  Basis Set: AUG-CC-PVTZ
    Blend: AUG-CC-PVTZ
  Basis Set: (AUG-CC-PVTZ AUX)
    Blend: AUG-CC-PVTZ-JKFIT

    Orbital Energies [Eh]
    ---------------------

    Doubly Occupied:

       1A    -20.584279     2A    -20.564930     3A    -20.554826
       4A    -11.294494     5A    -11.293081     6A    -11.280506
       7A    -11.276446     8A     -1.398550     9A     -1.374381
      10A     -1.353720    11A     -1.034100    12A     -0.938222
      13A     -0.916425    14A     -0.760818    15A     -0.730618
      16A     -0.703991    17A     -0.677163    18A     -0.658715
      19A     -0.619294    20A     -0.599505    21A     -0.571281
      22A     -0.552540    23A     -0.543327    24A     -0.514034
      25A     -0.475148    26A     -0.468599    27A     -0.433366
      28A     -0.416475

  @DF-RHF Final Energy:  -380.80628909959597

   => Energetics <=

    Nuclear Repulsion Energy =            335.2047311007802364
    One-Electron Energy =               -1186.8443718498444923
    Two-Electron Energy =                 470.8333516494682840
    Total Energy =                       -380.8062890995959719
  Basis Set: (AUG-CC-PVTZ AUX)
    Blend: AUG-CC-PVTZ-RI
    Molecular point group: c1

    Geometry (in Angstrom), charge = 0, multiplicity = 1:

       Center              X                  Y                   Z               Mass
    ------------   -----------------  -----------------  -----------------  -----------------
         O            1.846670847682    -0.750259718185    -0.037170448016    15.994914619570
         O           -0.476151152318     1.603270281815    -0.261868448016    15.994914619570
         O           -2.131262152318    -0.556152718185    -0.230540448016    15.994914619570
         C            0.019740847682     0.323444281815     0.056135551984    12.000000000000
         C            1.364841547682     0.313306881815     0.829022251984    12.000000000000
         C            0.811159847682    -0.446916718185    -1.015884448016    12.000000000000
         C           -1.054704152318    -0.511849718185     0.714305551984    12.000000000000
         H            1.894740847682     1.257503281815     0.662912551984     1.007825032230
         H            1.350638847682     0.041266281815     1.872211551984     1.007825032230
         H            0.372316847682    -1.350957718185    -1.448797448016     1.007825032230
         H            1.176695847682     0.223429281815    -1.803520448016     1.007825032230
         H           -1.366400152318    -0.023828718185     1.648179551984     1.007825032230
         H           -0.666175152318    -1.512996718185     0.941170551984     1.007825032230
         H           -1.373048152318     1.449828281815    -0.617188448016     1.007825032230
         H           -2.901379152318    -0.961412718185     0.201266551984     1.007825032230

  Basis Set: AUG-CC-PVTZ
    Blend: AUG-CC-PVTZ
  Basis Set: (AUG-CC-PVTZ AUX)
    Blend: AUG-CC-PVTZ-JKFIT
	 Reference Energy          =    -380.8062890995959719 [Eh]
	 Singles Energy            =      -0.0000000000000000 [Eh]
	 Same-Spin Energy          =      -0.3696770321489097 [Eh]
	 Opposite-Spin Energy      =      -1.1726206561429726 [Eh]
	 Correlation Energy        =      -1.5422976882918822 [Eh]
	 Total Energy              =    -382.3485867878878821 [Eh]

	 ================> DF-SCS-MP2 Energies <==================
	-----------------------------------------------------------
	 SCS Same-Spin Scale       =       0.3333333333333333 [-]
	 SCS Opposite-Spin Scale   =       1.2000000000000000 [-]
	 SCS Same-Spin Energy      =      -0.1232256773829699 [Eh]
	 SCS Opposite-Spin Energy  =      -1.4071447873715670 [Eh]
	 SCS Correlation Energy    =      -1.5303704647545369 [Eh]
	 SCS Total Energy          =    -382.3366595643504979 [Eh]
	-----------------------------------------------------------

  Dipole Moment: [D]
     X:    -2.5522      Y:    -0.8213      Z:     1.2534     Total:     2.9596

*** Psi4 exiting successfully. Buy a developer a beer!
