                               Psi4 1.3.2 release

  ==> Input File <==

--------------------------------------------------------------------------
#psi4
#
memory 32 gb

molecule  {
0 1
  O        1.8620410    -0.7430760    -0.0482260
  O       -0.4607810     1.6104540    -0.2729240
  O       -2.1158920    -0.5489690    -0.2415960
  C        0.0351110     0.3306280     0.0450800
  C        1.2933744     0.4728905     0.9177964
  C        0.8265300    -0.4397330    -1.0269400
  C       -1.0393340    -0.5046660     0.7032500
  H        1.9101110     1.2646870     0.6518570
  H        1.3660090     0.0484500     1.8611560
  H        0.3876870    -1.3437740    -1.4598530
  H        1.1920660     0.2306130    -1.8145760
  H       -1.3510300    -0.0166450     1.6371240
  H       -0.6508050    -1.5058130     0.9301150
  H       -1.3576780     1.4570120    -0.6282440
  H       -2.8860090    -0.9542290     0.1902110
units angstrom
no_reorient  #important for SAPT in psi4, default
symmetry c1  #important for SAPT in psi4, default
}

set PROPERTIES_ORIGIN ["COM"]
properties('MP2/aug-cc-pvtz', properties = ['dipole'])
--------------------------------------------------------------------------

    Molecular point group: c1
  Charge       = 0
  Multiplicity = 1
  Basis Set: AUG-CC-PVTZ
    Blend: AUG-CC-PVTZ
  Basis Set: (AUG-CC-PVTZ AUX)
    Blend: AUG-CC-PVTZ-JKFIT

    Orbital Energies [Eh]
    ---------------------

    Doubly Occupied:

       1A    -20.585513     2A    -20.564678     3A    -20.539486
       4A    -11.301300     5A    -11.294614     6A    -11.286848
       7A    -11.268598     8A     -1.395691     9A     -1.363735
      10A     -1.316691    11A     -1.036423    12A     -0.944631
      13A     -0.912275    14A     -0.771003    15A     -0.732157
      16A     -0.701955    17A     -0.673118    18A     -0.652463
      19A     -0.609745    20A     -0.603230    21A     -0.579221
      22A     -0.551066    23A     -0.526197    24A     -0.498593
      25A     -0.475628    26A     -0.471869    27A     -0.429338
      28A     -0.407872

  @DF-RHF Final Energy:  -380.77630692414562

   => Energetics <=

    Nuclear Repulsion Energy =            333.3675233095032127
    One-Electron Energy =               -1183.2997815850139887
    Two-Electron Energy =                 469.1559513513651609
    Total Energy =                       -380.7763069241456151
  Basis Set: (AUG-CC-PVTZ AUX)
    Blend: AUG-CC-PVTZ-RI
    Molecular point group: c1

    Geometry (in Angstrom), charge = 0, multiplicity = 1:

       Center              X                  Y                   Z               Mass
    ------------   -----------------  -----------------  -----------------  -----------------
         O            1.856685976937    -0.767836320601    -0.048684018210    15.994914619570
         O           -0.466136023063     1.585693679399    -0.273382018210    15.994914619570
         O           -2.121247023063    -0.573729320601    -0.242054018210    15.994914619570
         C            0.029755976937     0.305867679399     0.044621981790    12.000000000000
         C            1.288019376937     0.448130179399     0.917338381790    12.000000000000
         C            0.821174976937    -0.464493320601    -1.027398018210    12.000000000000
         C           -1.044689023063    -0.529426320601     0.702791981790    12.000000000000
         H            1.904755976937     1.239926679399     0.651398981790     1.007825032230
         H            1.360653976937     0.023689679399     1.860697981790     1.007825032230
         H            0.382331976937    -1.368534320601    -1.460311018210     1.007825032230
         H            1.186710976937     0.205852679399    -1.815034018210     1.007825032230
         H           -1.356385023063    -0.041405320601     1.636665981790     1.007825032230
         H           -0.656160023063    -1.530573320601     0.929656981790     1.007825032230
         H           -1.363033023063     1.432251679399    -0.628702018210     1.007825032230
         H           -2.891364023063    -0.978989320601     0.189752981790     1.007825032230

  Basis Set: AUG-CC-PVTZ
    Blend: AUG-CC-PVTZ
  Basis Set: (AUG-CC-PVTZ AUX)
    Blend: AUG-CC-PVTZ-JKFIT
	 Reference Energy          =    -380.7763069241456151 [Eh]
	 Singles Energy            =      -0.0000000000000000 [Eh]
	 Same-Spin Energy          =      -0.3712471471612066 [Eh]
	 Opposite-Spin Energy      =      -1.1786259553079161 [Eh]
	 Correlation Energy        =      -1.5498731024691228 [Eh]
	 Total Energy              =    -382.3261800266147361 [Eh]

	 ================> DF-SCS-MP2 Energies <==================
	-----------------------------------------------------------
	 SCS Same-Spin Scale       =       0.3333333333333333 [-]
	 SCS Opposite-Spin Scale   =       1.2000000000000000 [-]
	 SCS Same-Spin Energy      =      -0.1237490490537355 [Eh]
	 SCS Opposite-Spin Energy  =      -1.4143511463694993 [Eh]
	 SCS Correlation Energy    =      -1.5381001954232350 [Eh]
	 SCS Total Energy          =    -382.3144071195688412 [Eh]
	-----------------------------------------------------------

  Dipole Moment: [D]
     X:    -2.6189      Y:    -0.5787      Z:     1.5168     Total:     3.0812

*** Psi4 exiting successfully. Buy a developer a beer!
