                               Psi4 1.3.2 release

  ==> Input File <==

--------------------------------------------------------------------------
#psi4
#
memory 32 gb

molecule  {
0 1
  O        1.8620410    -0.7430760    -0.0482260
  O       -0.4607810     1.6104540    -0.2729240
  O       -2.1158920    -0.5489690    -0.2415960
  C        0.0351110     0.3306280     0.0450800
  C        1.3621440     0.3258420     0.8009740
  C        0.8265300    -0.4397330    -1.0269400
  C       -1.0393340    -0.5046660     0.7032500
  H        2.0099921     1.4358156     0.6246766
  H        1.3660090     0.0484500     1.8611560
  H        0.3876870    -1.3437740    -1.4598530
  H        1.1920660     0.2306130    -1.8145760
  H       -1.3510300    -0.0166450     1.6371240
  H       -0.6508050    -1.5058130     0.9301150
  H       -1.3576780     1.4570120    -0.6282440
  H       -2.8860090    -0.9542290     0.1902110
units angstrom
no_reorient  #important for SAPT in psi4, default
symmetry c1  #important for SAPT in psi4, default
}

set PROPERTIES_ORIGIN ["COM"]
properties('MP2/aug-cc-pvtz', properties = ['dipole'])
--------------------------------------------------------------------------

    Molecular point group: c1
  Charge       = 0
  Multiplicity = 1
  Basis Set: AUG-CC-PVTZ
    Blend: AUG-CC-PVTZ
  Basis Set: (AUG-CC-PVTZ AUX)
    Blend: AUG-CC-PVTZ-JKFIT

    Orbital Energies [Eh]
    ---------------------

    Doubly Occupied:

       1A    -20.585966     2A    -20.565428     3A    -20.559590
       4A    -11.302793     5A    -11.296342     6A    -11.295374
       7A    -11.278412     8A     -1.400946     9A     -1.377443
      10A     -1.355235    11A     -1.038505    12A     -0.931964
      13A     -0.914443    14A     -0.754378    15A     -0.731996
      16A     -0.699245    17A     -0.678699    18A     -0.660276
      19A     -0.621741    20A     -0.594788    21A     -0.561959
      22A     -0.545716    23A     -0.535651    24A     -0.515905
      25A     -0.478015    26A     -0.473926    27A     -0.433532
      28A     -0.411486

  @DF-RHF Final Energy:  -380.78588138218402

   => Energetics <=

    Nuclear Repulsion Energy =            334.7256472299421830
    One-Electron Energy =               -1185.8235469877317882
    Two-Electron Energy =                 470.3120183756055894
    Total Energy =                       -380.7858813821840158
  Basis Set: (AUG-CC-PVTZ AUX)
    Blend: AUG-CC-PVTZ-RI
    Molecular point group: c1

    Geometry (in Angstrom), charge = 0, multiplicity = 1:

       Center              X                  Y                   Z               Mass
    ------------   -----------------  -----------------  -----------------  -----------------
         O            1.847787163799    -0.752534495007    -0.034947368807    15.994914619570
         O           -0.475034836201     1.600995504993    -0.259645368807    15.994914619570
         O           -2.130145836201    -0.558427495007    -0.228317368807    15.994914619570
         C            0.020857163799     0.321169504993     0.058358631193    12.000000000000
         C            1.347890163799     0.316383504993     0.814252631193    12.000000000000
         C            0.812276163799    -0.449191495007    -1.013661368807    12.000000000000
         C           -1.053587836201    -0.514124495007     0.716528631193    12.000000000000
         H            1.995738263799     1.426357104993     0.637955231193     1.007825032230
         H            1.351755163799     0.038991504993     1.874434631193     1.007825032230
         H            0.373433163799    -1.353232495007    -1.446574368807     1.007825032230
         H            1.177812163799     0.221154504993    -1.801297368807     1.007825032230
         H           -1.365283836201    -0.026103495007     1.650402631193     1.007825032230
         H           -0.665058836201    -1.515271495007     0.943393631193     1.007825032230
         H           -1.371931836201     1.447553504993    -0.614965368807     1.007825032230
         H           -2.900262836201    -0.963687495007     0.203489631193     1.007825032230

  Basis Set: AUG-CC-PVTZ
    Blend: AUG-CC-PVTZ
  Basis Set: (AUG-CC-PVTZ AUX)
    Blend: AUG-CC-PVTZ-JKFIT
	 Reference Energy          =    -380.7858813821840158 [Eh]
	 Singles Energy            =      -0.0000000000000000 [Eh]
	 Same-Spin Energy          =      -0.3703049292820384 [Eh]
	 Opposite-Spin Energy      =      -1.1749110148251720 [Eh]
	 Correlation Energy        =      -1.5452159441072104 [Eh]
	 Total Energy              =    -382.3310973262912285 [Eh]

	 ================> DF-SCS-MP2 Energies <==================
	-----------------------------------------------------------
	 SCS Same-Spin Scale       =       0.3333333333333333 [-]
	 SCS Opposite-Spin Scale   =       1.2000000000000000 [-]
	 SCS Same-Spin Energy      =      -0.1234349764273461 [Eh]
	 SCS Opposite-Spin Energy  =      -1.4098932177902064 [Eh]
	 SCS Correlation Energy    =      -1.5333281942175525 [Eh]
	 SCS Total Energy          =    -382.3192095764015903 [Eh]
	-----------------------------------------------------------

  Dipole Moment: [D]
     X:    -2.6493      Y:    -0.9809      Z:     1.1843     Total:     3.0632

*** Psi4 exiting successfully. Buy a developer a beer!
