                               Psi4 1.3.2 release

  ==> Input File <==

--------------------------------------------------------------------------
#psi4
#
memory 32 gb

molecule  {
0 1
  O        1.8620410    -0.7430760    -0.0482260
  O       -0.4607810     1.6104540    -0.2729240
  O       -2.1158920    -0.5489690    -0.2415960
  C        0.0351110     0.3306280     0.0450800
  C        1.3442286     0.3308677     0.7837226
  C        0.8265300    -0.4397330    -1.0269400
  C       -1.0393340    -0.5046660     0.7032500
  H        1.9101110     1.2646870     0.6518570
  H        1.3660090     0.0484500     1.8611560
  H        0.3876870    -1.3437740    -1.4598530
  H        1.1920660     0.2306130    -1.8145760
  H       -1.3510300    -0.0166450     1.6371240
  H       -0.6508050    -1.5058130     0.9301150
  H       -1.3576780     1.4570120    -0.6282440
  H       -2.8860090    -0.9542290     0.1902110
units angstrom
no_reorient  #important for SAPT in psi4, default
symmetry c1  #important for SAPT in psi4, default
}

set PROPERTIES_ORIGIN ["COM"]
properties('MP2/aug-cc-pvtz', properties = ['dipole'])
--------------------------------------------------------------------------

    Molecular point group: c1
  Charge       = 0
  Multiplicity = 1
  Basis Set: AUG-CC-PVTZ
    Blend: AUG-CC-PVTZ
  Basis Set: (AUG-CC-PVTZ AUX)
    Blend: AUG-CC-PVTZ-JKFIT

    Orbital Energies [Eh]
    ---------------------

    Doubly Occupied:

       1A    -20.584865     2A    -20.565464     3A    -20.555121
       4A    -11.294139     5A    -11.292669     6A    -11.281799
       7A    -11.277290     8A     -1.400766     9A     -1.376324
      10A     -1.354705    11A     -1.040347    12A     -0.935742
      13A     -0.920757    14A     -0.758897    15A     -0.731168
      16A     -0.707291    17A     -0.677167    18A     -0.659233
      19A     -0.621333    20A     -0.597845    21A     -0.570663
      22A     -0.547463    23A     -0.541694    24A     -0.515247
      25A     -0.478739    26A     -0.474063    27A     -0.436263
      28A     -0.414975

  @DF-RHF Final Energy:  -380.80560227150477

   => Energetics <=

    Nuclear Repulsion Energy =            336.0817035815744589
    One-Electron Energy =               -1188.5505525331325316
    Two-Electron Energy =                 471.6632466800533621
    Total Energy =                       -380.8056022715047675
  Basis Set: (AUG-CC-PVTZ AUX)
    Blend: AUG-CC-PVTZ-RI
    Molecular point group: c1

    Geometry (in Angstrom), charge = 0, multiplicity = 1:

       Center              X                  Y                   Z               Mass
    ------------   -----------------  -----------------  -----------------  -----------------
         O            1.850820854620    -0.751456531050    -0.033221003621    15.994914619570
         O           -0.472001145380     1.602073468950    -0.257919003621    15.994914619570
         O           -2.127112145380    -0.557349531050    -0.226591003621    15.994914619570
         C            0.023890854620     0.322247468950     0.060084996379    12.000000000000
         C            1.333008454620     0.322487168950     0.798727596379    12.000000000000
         C            0.815309854620    -0.448113531050    -1.011935003621    12.000000000000
         C           -1.050554145380    -0.513046531050     0.718254996379    12.000000000000
         H            1.898890854620     1.256306468950     0.666861996379     1.007825032230
         H            1.354788854620     0.040069468950     1.876160996379     1.007825032230
         H            0.376466854620    -1.352154531050    -1.444848003621     1.007825032230
         H            1.180845854620     0.222232468950    -1.799571003621     1.007825032230
         H           -1.362250145380    -0.025025531050     1.652128996379     1.007825032230
         H           -0.662025145380    -1.514193531050     0.945119996379     1.007825032230
         H           -1.368898145380     1.448631468950    -0.613239003621     1.007825032230
         H           -2.897229145380    -0.962609531050     0.205215996379     1.007825032230

  Basis Set: AUG-CC-PVTZ
    Blend: AUG-CC-PVTZ
  Basis Set: (AUG-CC-PVTZ AUX)
    Blend: AUG-CC-PVTZ-JKFIT
	 Reference Energy          =    -380.8056022715047675 [Eh]
	 Singles Energy            =      -0.0000000000000000 [Eh]
	 Same-Spin Energy          =      -0.3700371870246921 [Eh]
	 Opposite-Spin Energy      =      -1.1728581785892789 [Eh]
	 Correlation Energy        =      -1.5428953656139710 [Eh]
	 Total Energy              =    -382.3484976371187258 [Eh]

	 ================> DF-SCS-MP2 Energies <==================
	-----------------------------------------------------------
	 SCS Same-Spin Scale       =       0.3333333333333333 [-]
	 SCS Opposite-Spin Scale   =       1.2000000000000000 [-]
	 SCS Same-Spin Energy      =      -0.1233457290082307 [Eh]
	 SCS Opposite-Spin Energy  =      -1.4074298143071347 [Eh]
	 SCS Correlation Energy    =      -1.5307755433153654 [Eh]
	 SCS Total Energy          =    -382.3363778148201391 [Eh]
	-----------------------------------------------------------

  Dipole Moment: [D]
     X:    -2.5711      Y:    -0.8229      Z:     1.1979     Total:     2.9534

*** Psi4 exiting successfully. Buy a developer a beer!
