                               Psi4 1.3.2 release

  ==> Input File <==

--------------------------------------------------------------------------
#psi4
#
memory 32 gb

molecule  {
0 1
  O        1.8620410    -0.7430760    -0.0482260
  O       -0.4607810     1.6104540    -0.2729240
  O       -2.1158920    -0.5489690    -0.2415960
  C        0.0351110     0.3306280     0.0450800
  C        1.2752522     0.3261554     0.7514794
  C        0.8265300    -0.4397330    -1.0269400
  C       -1.0393340    -0.5046660     0.7032500
  H        1.9101110     1.2646870     0.6518570
  H        1.3660090     0.0484500     1.8611560
  H        0.3876870    -1.3437740    -1.4598530
  H        1.1920660     0.2306130    -1.8145760
  H       -1.3510300    -0.0166450     1.6371240
  H       -0.6508050    -1.5058130     0.9301150
  H       -1.3576780     1.4570120    -0.6282440
  H       -2.8860090    -0.9542290     0.1902110
units angstrom
no_reorient  #important for SAPT in psi4, default
symmetry c1  #important for SAPT in psi4, default
}

set PROPERTIES_ORIGIN ["COM"]
properties('MP2/aug-cc-pvtz', properties = ['dipole'])
--------------------------------------------------------------------------

    Molecular point group: c1
  Charge       = 0
  Multiplicity = 1
  Basis Set: AUG-CC-PVTZ
    Blend: AUG-CC-PVTZ
  Basis Set: (AUG-CC-PVTZ AUX)
    Blend: AUG-CC-PVTZ-JKFIT

    Orbital Energies [Eh]
    ---------------------

    Doubly Occupied:

       1A    -20.585494     2A    -20.566777     3A    -20.555257
       4A    -11.295349     5A    -11.289930     6A    -11.284935
       7A    -11.279109     8A     -1.404377     9A     -1.378300
      10A     -1.356062    11A     -1.053453    12A     -0.933070
      13A     -0.926487    14A     -0.755739    15A     -0.732220
      16A     -0.711527    17A     -0.679393    18A     -0.660442
      19A     -0.625046    20A     -0.595620    21A     -0.566272
      22A     -0.545103    23A     -0.535963    24A     -0.517478
      25A     -0.490882    26A     -0.475814    27A     -0.437586
      28A     -0.410434

  @DF-RHF Final Energy:  -380.79375719517219

   => Energetics <=

    Nuclear Repulsion Energy =            337.4701700619465896
    One-Electron Energy =               -1191.2316198601074575
    Two-Electron Energy =                 472.9676926029886204
    Total Energy =                       -380.7937571951721907
  Basis Set: (AUG-CC-PVTZ AUX)
    Blend: AUG-CC-PVTZ-RI
    Molecular point group: c1

    Geometry (in Angstrom), charge = 0, multiplicity = 1:

       Center              X                  Y                   Z               Mass
    ------------   -----------------  -----------------  -----------------  -----------------
         O            1.858776048547    -0.750913051536    -0.029502327251    15.994914619570
         O           -0.464045951453     1.602616948464    -0.254200327251    15.994914619570
         O           -2.119156951453    -0.556806051536    -0.222872327251    15.994914619570
         C            0.031846048547     0.322790948464     0.063803672749    12.000000000000
         C            1.271987248547     0.318318348464     0.770203072749    12.000000000000
         C            0.823265048547    -0.447570051536    -1.008216327251    12.000000000000
         C           -1.042598951453    -0.512503051536     0.721973672749    12.000000000000
         H            1.906846048547     1.256849948464     0.670580672749     1.007825032230
         H            1.362744048547     0.040612948464     1.879879672749     1.007825032230
         H            0.384422048547    -1.351611051536    -1.441129327251     1.007825032230
         H            1.188801048547     0.222775948464    -1.795852327251     1.007825032230
         H           -1.354294951453    -0.024482051536     1.655847672749     1.007825032230
         H           -0.654069951453    -1.513650051536     0.948838672749     1.007825032230
         H           -1.360942951453     1.449174948464    -0.609520327251     1.007825032230
         H           -2.889273951453    -0.962066051536     0.208934672749     1.007825032230

  Basis Set: AUG-CC-PVTZ
    Blend: AUG-CC-PVTZ
  Basis Set: (AUG-CC-PVTZ AUX)
    Blend: AUG-CC-PVTZ-JKFIT
	 Reference Energy          =    -380.7937571951721907 [Eh]
	 Singles Energy            =      -0.0000000000000000 [Eh]
	 Same-Spin Energy          =      -0.3710781007449778 [Eh]
	 Opposite-Spin Energy      =      -1.1741093976302435 [Eh]
	 Correlation Energy        =      -1.5451874983752212 [Eh]
	 Total Energy              =    -382.3389446935474325 [Eh]

	 ================> DF-SCS-MP2 Energies <==================
	-----------------------------------------------------------
	 SCS Same-Spin Scale       =       0.3333333333333333 [-]
	 SCS Opposite-Spin Scale   =       1.2000000000000000 [-]
	 SCS Same-Spin Energy      =      -0.1236927002483259 [Eh]
	 SCS Opposite-Spin Energy  =      -1.4089312771562921 [Eh]
	 SCS Correlation Energy    =      -1.5326239774046180 [Eh]
	 SCS Total Energy          =    -382.3263811725768164 [Eh]
	-----------------------------------------------------------

  Dipole Moment: [D]
     X:    -2.6188      Y:    -0.8565      Z:     1.1307     Total:     2.9783

*** Psi4 exiting successfully. Buy a developer a beer!
