                               Psi4 1.4a3.dev225

  ==> Input File <==

--------------------------------------------------------------------------
#psi4
#
memory 32 gb

molecule  {
0 1
  O        1.8620410    -0.7430760    -0.0482260
  O       -0.4607810     1.6104540    -0.2729240
  O       -2.1158920    -0.5489690    -0.2415960
  C        0.0351110     0.3306280     0.0450800
  C        1.3621440     0.3258420     0.8009740
  C        0.8265300    -0.4397330    -1.0269400
  C       -1.0251193    -0.4936152     0.6945425
  H        1.9101110     1.2646870     0.6518570
  H        1.3660090     0.0484500     1.8611560
  H        0.3876870    -1.3437740    -1.4598530
  H        1.1920660     0.2306130    -1.8145760
  H       -1.3510300    -0.0166450     1.6371240
  H       -0.6508050    -1.5058130     0.9301150
  H       -1.3576780     1.4570120    -0.6282440
  H       -2.8860090    -0.9542290     0.1902110
units angstrom
no_reorient  #important for SAPT in psi4, default
symmetry c1  #important for SAPT in psi4, default
}

set PROPERTIES_ORIGIN ["COM"]
properties('MP2/aug-cc-pvtz', properties = ['dipole'])
--------------------------------------------------------------------------

    Molecular point group: c1
  Charge       = 0
  Multiplicity = 1
  Basis Set: AUG-CC-PVTZ
    Blend: AUG-CC-PVTZ
  Basis Set: (AUG-CC-PVTZ AUX)
    Blend: AUG-CC-PVTZ-JKFIT

    Orbital Energies [Eh]
    ---------------------

    Doubly Occupied:

       1A    -20.583361     2A    -20.565334     3A    -20.555342
       4A    -11.294366     5A    -11.293040     6A    -11.281732
       7A    -11.277214     8A     -1.399557     9A     -1.374180
      10A     -1.353992    11A     -1.040643    12A     -0.937548
      13A     -0.918455    14A     -0.760586    15A     -0.730187
      16A     -0.706305    17A     -0.678070    18A     -0.657609
      19A     -0.620280    20A     -0.598281    21A     -0.570591
      22A     -0.548986    23A     -0.542735    24A     -0.516105
      25A     -0.475665    26A     -0.472160    27A     -0.435201
      28A     -0.417310

  @DF-RHF Final Energy:  -380.80615196390886

   => Energetics <=

    Nuclear Repulsion Energy =            335.9353381277246626
    One-Electron Energy =               -1188.2733128463485173
    Two-Electron Energy =                 471.5318227547149945
    Total Energy =                       -380.8061519639088601
  Basis Set: (AUG-CC-PVTZ AUX)
    Blend: AUG-CC-PVTZ-RI
    Molecular point group: c1

    Geometry (in Angstrom), charge = 0, multiplicity = 1:

       Center              X                  Y                   Z               Mass
    ------------   -----------------  -----------------  -----------------  -----------------
         O            1.847115222311    -0.752151418561    -0.034206389658    15.994914619570
         O           -0.475706777689     1.601378581439    -0.258904389658    15.994914619570
         O           -2.130817777689    -0.558044418561    -0.227576389658    15.994914619570
         C            0.020185222311     0.321552581439     0.059099610342    12.000000000000
         C            1.347218222311     0.316766581439     0.814993610342    12.000000000000
         C            0.811604222311    -0.448808418561    -1.012920389658    12.000000000000
         C           -1.040045077689    -0.502690618561     0.708562110342    12.000000000000
         H            1.895185222311     1.255611581439     0.665876610342     1.007825032230
         H            1.351083222311     0.039374581439     1.875175610342     1.007825032230
         H            0.372761222311    -1.352849418561    -1.445833389658     1.007825032230
         H            1.177140222311     0.221537581439    -1.800556389658     1.007825032230
         H           -1.365955777689    -0.025720418561     1.651143610342     1.007825032230
         H           -0.665730777689    -1.514888418561     0.944134610342     1.007825032230
         H           -1.372603777689     1.447936581439    -0.614224389658     1.007825032230
         H           -2.900934777689    -0.963304418561     0.204230610342     1.007825032230

  Basis Set: AUG-CC-PVTZ
    Blend: AUG-CC-PVTZ
  Basis Set: (AUG-CC-PVTZ AUX)
    Blend: AUG-CC-PVTZ-JKFIT
	 Reference Energy          =    -380.8061519639088601 [Eh]
	 Singles Energy            =      -0.0000000000000000 [Eh]
	 Same-Spin Energy          =      -0.3699368278656845 [Eh]
	 Opposite-Spin Energy      =      -1.1728199333658140 [Eh]
	 Correlation Energy        =      -1.5427567612314985 [Eh]
	 Total Energy              =    -382.3489087251403475 [Eh]

	 ================> DF-SCS-MP2 Energies <==================
	-----------------------------------------------------------
	 SCS Same-Spin Scale       =       0.3333333333333333 [-]
	 SCS Opposite-Spin Scale   =       1.2000000000000000 [-]
	 SCS Same-Spin Energy      =      -0.1233122759552282 [Eh]
	 SCS Opposite-Spin Energy  =      -1.4073839200389768 [Eh]
	 SCS Correlation Energy    =      -1.5306961959942049 [Eh]
	 SCS Total Energy          =    -382.3368481599030702 [Eh]
	-----------------------------------------------------------

  Dipole Moment: [D]
     X:    -2.5228      Y:    -0.8160      Z:     1.2314     Total:     2.9235

*** Psi4 exiting successfully. Buy a developer a beer!
