                               Psi4 1.4a3.dev225

  ==> Input File <==

--------------------------------------------------------------------------
#psi4
#
memory 32 gb

molecule  {
0 1
  O        1.8620410    -0.7430760    -0.0482260
  O       -0.4607810     1.6104540    -0.2729240
  O       -2.1158920    -0.5489690    -0.2415960
  C        0.0527096     0.2852086     0.0563656
  C        1.3621440     0.3258420     0.8009740
  C        0.8265300    -0.4397330    -1.0269400
  C       -1.0393340    -0.5046660     0.7032500
  H        1.9101110     1.2646870     0.6518570
  H        1.3660090     0.0484500     1.8611560
  H        0.3876870    -1.3437740    -1.4598530
  H        1.1920660     0.2306130    -1.8145760
  H       -1.3510300    -0.0166450     1.6371240
  H       -0.6508050    -1.5058130     0.9301150
  H       -1.3576780     1.4570120    -0.6282440
  H       -2.8860090    -0.9542290     0.1902110
units angstrom
no_reorient  #important for SAPT in psi4, default
symmetry c1  #important for SAPT in psi4, default
}

set PROPERTIES_ORIGIN ["COM"]
properties('MP2/aug-cc-pvtz', properties = ['dipole'])
--------------------------------------------------------------------------

    Molecular point group: c1
  Charge       = 0
  Multiplicity = 1
  Basis Set: AUG-CC-PVTZ
    Blend: AUG-CC-PVTZ
  Basis Set: (AUG-CC-PVTZ AUX)
    Blend: AUG-CC-PVTZ-JKFIT

    Orbital Energies [Eh]
    ---------------------

    Doubly Occupied:

       1A    -20.585412     2A    -20.558601     3A    -20.555984
       4A    -11.295021     5A    -11.293380     6A    -11.281767
       7A    -11.277887     8A     -1.396701     9A     -1.377954
      10A     -1.339315    11A     -1.044086    12A     -0.941267
      13A     -0.922406    14A     -0.756558    15A     -0.729018
      16A     -0.704372    17A     -0.678031    18A     -0.656352
      19A     -0.617623    20A     -0.599817    21A     -0.571610
      22A     -0.550662    23A     -0.537539    24A     -0.506667
      25A     -0.478845    26A     -0.473485    27A     -0.441151
      28A     -0.420983

  @DF-RHF Final Energy:  -380.80329703511649

   => Energetics <=

    Nuclear Repulsion Energy =            335.7563571880216955
    One-Electron Energy =               -1187.9343229893979696
    Two-Electron Energy =                 471.3746687662598447
    Total Energy =                       -380.8032970351164863
  Basis Set: (AUG-CC-PVTZ AUX)
    Blend: AUG-CC-PVTZ-RI
    Molecular point group: c1

    Geometry (in Angstrom), charge = 0, multiplicity = 1:

       Center              X                  Y                   Z               Mass
    ------------   -----------------  -----------------  -----------------  -----------------
         O            1.846724949976    -0.745638591100    -0.036512236117    15.994914619570
         O           -0.476097050024     1.607891408900    -0.261210236117    15.994914619570
         O           -2.131208050024    -0.551531591100    -0.229882236117    15.994914619570
         C            0.037393549976     0.282646008900     0.068079363883    12.000000000000
         C            1.346827949976     0.323279408900     0.812687763883    12.000000000000
         C            0.811213949976    -0.442295591100    -1.015226236117    12.000000000000
         C           -1.054650050024    -0.507228591100     0.714963763883    12.000000000000
         H            1.894794949976     1.262124408900     0.663570763883     1.007825032230
         H            1.350692949976     0.045887408900     1.872869763883     1.007825032230
         H            0.372370949976    -1.346336591100    -1.448139236117     1.007825032230
         H            1.176749949976     0.228050408900    -1.802862236117     1.007825032230
         H           -1.366346050024    -0.019207591100     1.648837763883     1.007825032230
         H           -0.666121050024    -1.508375591100     0.941828763883     1.007825032230
         H           -1.372994050024     1.454449408900    -0.616530236117     1.007825032230
         H           -2.901325050024    -0.956791591100     0.201924763883     1.007825032230

  Basis Set: AUG-CC-PVTZ
    Blend: AUG-CC-PVTZ
  Basis Set: (AUG-CC-PVTZ AUX)
    Blend: AUG-CC-PVTZ-JKFIT
	 Reference Energy          =    -380.8032970351164863 [Eh]
	 Singles Energy            =      -0.0000000000000000 [Eh]
	 Same-Spin Energy          =      -0.3700548561846313 [Eh]
	 Opposite-Spin Energy      =      -1.1735422333679648 [Eh]
	 Correlation Energy        =      -1.5435970895525961 [Eh]
	 Total Energy              =    -382.3468941246690633 [Eh]

	 ================> DF-SCS-MP2 Energies <==================
	-----------------------------------------------------------
	 SCS Same-Spin Scale       =       0.3333333333333333 [-]
	 SCS Opposite-Spin Scale   =       1.2000000000000000 [-]
	 SCS Same-Spin Energy      =      -0.1233516187282104 [Eh]
	 SCS Opposite-Spin Energy  =      -1.4082506800415577 [Eh]
	 SCS Correlation Energy    =      -1.5316022987697682 [Eh]
	 SCS Total Energy          =    -382.3348993338862556 [Eh]
	-----------------------------------------------------------

  Dipole Moment: [D]
     X:    -2.4510      Y:    -0.9888      Z:     1.2599     Total:     2.9279

*** Psi4 exiting successfully. Buy a developer a beer!
