                               Psi4 1.3.2 release

  ==> Input File <==

--------------------------------------------------------------------------
#psi4
#
memory 32 gb

molecule  {
0 1
  O        1.8620410    -0.7430760    -0.0482260
  O       -0.4607810     1.6104540    -0.2729240
  O       -2.0886648    -0.5207147    -0.2726195
  C        0.0351110     0.3306280     0.0450800
  C        1.3621440     0.3258420     0.8009740
  C        0.8265300    -0.4397330    -1.0269400
  C       -1.0393340    -0.5046660     0.7032500
  H        1.9101110     1.2646870     0.6518570
  H        1.3660090     0.0484500     1.8611560
  H        0.3876870    -1.3437740    -1.4598530
  H        1.1920660     0.2306130    -1.8145760
  H       -1.3510300    -0.0166450     1.6371240
  H       -0.6508050    -1.5058130     0.9301150
  H       -1.3576780     1.4570120    -0.6282440
  H       -2.8860090    -0.9542290     0.1902110
units angstrom
no_reorient  #important for SAPT in psi4, default
symmetry c1  #important for SAPT in psi4, default
}

set PROPERTIES_ORIGIN ["COM"]
properties('MP2/aug-cc-pvtz', properties = ['dipole'])
--------------------------------------------------------------------------

    Molecular point group: c1
  Charge       = 0
  Multiplicity = 1
  Basis Set: AUG-CC-PVTZ
    Blend: AUG-CC-PVTZ
  Basis Set: (AUG-CC-PVTZ AUX)
    Blend: AUG-CC-PVTZ-JKFIT

    Orbital Energies [Eh]
    ---------------------

    Doubly Occupied:

       1A    -20.590750     2A    -20.563901     3A    -20.554242
       4A    -11.293328     5A    -11.292058     6A    -11.279883
       7A    -11.276140     8A     -1.398108     9A     -1.371595
      10A     -1.351090    11A     -1.034832    12A     -0.936097
      13A     -0.915379    14A     -0.759153    15A     -0.728252
      16A     -0.701637    17A     -0.673685    18A     -0.658891
      19A     -0.616838    20A     -0.597432    21A     -0.570504
      22A     -0.549334    23A     -0.543077    24A     -0.513759
      25A     -0.476563    26A     -0.470741    27A     -0.434199
      28A     -0.414960

  @DF-RHF Final Energy:  -380.80052966710423

   => Energetics <=

    Nuclear Repulsion Energy =            336.0092578766024189
    One-Electron Energy =               -1188.4867119821037704
    Two-Electron Energy =                 471.6769244383971227
    Total Energy =                       -380.8005296671042288
  Basis Set: (AUG-CC-PVTZ AUX)
    Blend: AUG-CC-PVTZ-RI
    Molecular point group: c1

    Geometry (in Angstrom), charge = 0, multiplicity = 1:

       Center              X                  Y                   Z               Mass
    ------------   -----------------  -----------------  -----------------  -----------------
         O            1.844569070446    -0.755220362981    -0.030441485930    15.994914619570
         O           -0.478252929554     1.598309637019    -0.255139485930    15.994914619570
         O           -2.106136729554    -0.532859062981    -0.254834985930    15.994914619570
         C            0.017639070446     0.318483637019     0.062864514070    12.000000000000
         C            1.344672070446     0.313697637019     0.818758514070    12.000000000000
         C            0.809058070446    -0.451877362981    -1.009155485930    12.000000000000
         C           -1.056805929554    -0.516810362981     0.721034514070    12.000000000000
         H            1.892639070446     1.252542637019     0.669641514070     1.007825032230
         H            1.348537070446     0.036305637019     1.878940514070     1.007825032230
         H            0.370215070446    -1.355918362981    -1.442068485930     1.007825032230
         H            1.174594070446     0.218468637019    -1.796791485930     1.007825032230
         H           -1.368501929554    -0.028789362981     1.654908514070     1.007825032230
         H           -0.668276929554    -1.517957362981     0.947899514070     1.007825032230
         H           -1.375149929554     1.444867637019    -0.610459485930     1.007825032230
         H           -2.903480929554    -0.966373362981     0.207995514070     1.007825032230

  Basis Set: AUG-CC-PVTZ
    Blend: AUG-CC-PVTZ
  Basis Set: (AUG-CC-PVTZ AUX)
    Blend: AUG-CC-PVTZ-JKFIT
	 Reference Energy          =    -380.8005296671042288 [Eh]
	 Singles Energy            =      -0.0000000000000000 [Eh]
	 Same-Spin Energy          =      -0.3706812622805370 [Eh]
	 Opposite-Spin Energy      =      -1.1746838670326984 [Eh]
	 Correlation Energy        =      -1.5453651293132356 [Eh]
	 Total Energy              =    -382.3458947964174399 [Eh]

	 ================> DF-SCS-MP2 Energies <==================
	-----------------------------------------------------------
	 SCS Same-Spin Scale       =       0.3333333333333333 [-]
	 SCS Opposite-Spin Scale   =       1.2000000000000000 [-]
	 SCS Same-Spin Energy      =      -0.1235604207601790 [Eh]
	 SCS Opposite-Spin Energy  =      -1.4096206404392382 [Eh]
	 SCS Correlation Energy    =      -1.5331810611994172 [Eh]
	 SCS Total Energy          =    -382.3337107283036289 [Eh]
	-----------------------------------------------------------

  Dipole Moment: [D]
     X:    -2.6422      Y:    -0.8821      Z:     1.2601     Total:     3.0573

*** Psi4 exiting successfully. Buy a developer a beer!
