                               Psi4 1.3.2 release

  ==> Input File <==

--------------------------------------------------------------------------
#psi4
#
memory 32 gb

molecule  {
0 1
  O        1.8620410    -0.7430760    -0.0482260
  O       -0.4607810     1.6104540    -0.2729240
  O       -2.1158920    -0.5489690    -0.2415960
  C        0.1055054     0.1489502     0.0902223
  C        1.3621440     0.3258420     0.8009740
  C        0.8265300    -0.4397330    -1.0269400
  C       -1.0393340    -0.5046660     0.7032500
  H        1.9101110     1.2646870     0.6518570
  H        1.3660090     0.0484500     1.8611560
  H        0.3876870    -1.3437740    -1.4598530
  H        1.1920660     0.2306130    -1.8145760
  H       -1.3510300    -0.0166450     1.6371240
  H       -0.6508050    -1.5058130     0.9301150
  H       -1.3576780     1.4570120    -0.6282440
  H       -2.8860090    -0.9542290     0.1902110
units angstrom
no_reorient  #important for SAPT in psi4, default
symmetry c1  #important for SAPT in psi4, default
}

set PROPERTIES_ORIGIN ["COM"]
properties('MP2/aug-cc-pvtz', properties = ['dipole'])
--------------------------------------------------------------------------

    Molecular point group: c1
  Charge       = 0
  Multiplicity = 1
  Basis Set: AUG-CC-PVTZ
    Blend: AUG-CC-PVTZ
  Basis Set: (AUG-CC-PVTZ AUX)
    Blend: AUG-CC-PVTZ-JKFIT

    Orbital Energies [Eh]
    ---------------------

    Doubly Occupied:

       1A    -20.588091     2A    -20.561302     3A    -20.535512
       4A    -11.299984     5A    -11.298142     6A    -11.284659
       7A    -11.281296     8A     -1.406143     9A     -1.383571
      10A     -1.292533    11A     -1.063084    12A     -0.955860
      13A     -0.934758    14A     -0.759362    15A     -0.729840
      16A     -0.701914    17A     -0.678980    18A     -0.647679
      19A     -0.617118    20A     -0.601019    21A     -0.581731
      22A     -0.551414    23A     -0.527001    24A     -0.498625
      25A     -0.484250    26A     -0.453787    27A     -0.443664
      28A     -0.432207

  @DF-RHF Final Energy:  -380.76710575964523

   => Energetics <=

    Nuclear Repulsion Energy =            336.1798954890280697
    One-Electron Energy =               -1188.7069520358106729
    Two-Electron Energy =                 471.7599507871374271
    Total Energy =                       -380.7671057596452329
  Basis Set: (AUG-CC-PVTZ AUX)
    Blend: AUG-CC-PVTZ-RI
    Molecular point group: c1

    Geometry (in Angstrom), charge = 0, multiplicity = 1:

       Center              X                  Y                   Z               Mass
    ------------   -----------------  -----------------  -----------------  -----------------
         O            1.840635898829    -0.729923621978    -0.040417000851    15.994914619570
         O           -0.482186101171     1.623606378022    -0.265115000851    15.994914619570
         O           -2.137297101171    -0.535816621978    -0.233787000851    15.994914619570
         C            0.084100298829     0.162102578022     0.098031299149    12.000000000000
         C            1.340738898829     0.338994378022     0.808782999149    12.000000000000
         C            0.805124898829    -0.426580621978    -1.019131000851    12.000000000000
         C           -1.060739101171    -0.491513621978     0.711058999149    12.000000000000
         H            1.888705898829     1.277839378022     0.659665999149     1.007825032230
         H            1.344603898829     0.061602378022     1.868964999149     1.007825032230
         H            0.366281898829    -1.330621621978    -1.452044000851     1.007825032230
         H            1.170660898829     0.243765378022    -1.806767000851     1.007825032230
         H           -1.372435101171    -0.003492621978     1.644932999149     1.007825032230
         H           -0.672210101171    -1.492660621978     0.937923999149     1.007825032230
         H           -1.379083101171     1.470164378022    -0.620435000851     1.007825032230
         H           -2.907414101171    -0.941076621978     0.198019999149     1.007825032230

  Basis Set: AUG-CC-PVTZ
    Blend: AUG-CC-PVTZ
  Basis Set: (AUG-CC-PVTZ AUX)
    Blend: AUG-CC-PVTZ-JKFIT
	 Reference Energy          =    -380.7671057596452329 [Eh]
	 Singles Energy            =      -0.0000000000000000 [Eh]
	 Same-Spin Energy          =      -0.3720537477288892 [Eh]
	 Opposite-Spin Energy      =      -1.1781172383242968 [Eh]
	 Correlation Energy        =      -1.5501709860531860 [Eh]
	 Total Energy              =    -382.3172767456983934 [Eh]

	 ================> DF-SCS-MP2 Energies <==================
	-----------------------------------------------------------
	 SCS Same-Spin Scale       =       0.3333333333333333 [-]
	 SCS Opposite-Spin Scale   =       1.2000000000000000 [-]
	 SCS Same-Spin Energy      =      -0.1240179159096297 [Eh]
	 SCS Opposite-Spin Energy  =      -1.4137406859891561 [Eh]
	 SCS Correlation Energy    =      -1.5377586018987859 [Eh]
	 SCS Total Energy          =    -382.3048643615439914 [Eh]
	-----------------------------------------------------------

  Dipole Moment: [D]
     X:    -2.1005      Y:    -1.4816      Z:     1.3534     Total:     2.9050

*** Psi4 exiting successfully. Buy a developer a beer!
