                               Psi4 1.3.2 release

  ==> Input File <==

--------------------------------------------------------------------------
#psi4
#
memory 32 gb

molecule  {
0 1
  O        1.8620410    -0.7430760    -0.0482260
  O       -0.4607810     1.6104540    -0.2729240
  O       -2.1158920    -0.5489690    -0.2415960
  C        0.0560776     0.3409040     0.0527905
  C        1.3621440     0.3258420     0.8009740
  C        0.8265300    -0.4397330    -1.0269400
  C       -1.0393340    -0.5046660     0.7032500
  H        1.9101110     1.2646870     0.6518570
  H        1.3660090     0.0484500     1.8611560
  H        0.3876870    -1.3437740    -1.4598530
  H        1.1920660     0.2306130    -1.8145760
  H       -1.3510300    -0.0166450     1.6371240
  H       -0.6508050    -1.5058130     0.9301150
  H       -1.3576780     1.4570120    -0.6282440
  H       -2.8860090    -0.9542290     0.1902110
units angstrom
no_reorient  #important for SAPT in psi4, default
symmetry c1  #important for SAPT in psi4, default
}

set PROPERTIES_ORIGIN ["COM"]
properties('MP2/aug-cc-pvtz', properties = ['dipole'])
--------------------------------------------------------------------------

    Molecular point group: c1
  Charge       = 0
  Multiplicity = 1
  Basis Set: AUG-CC-PVTZ
    Blend: AUG-CC-PVTZ
  Basis Set: (AUG-CC-PVTZ AUX)
    Blend: AUG-CC-PVTZ-JKFIT

    Orbital Energies [Eh]
    ---------------------

    Doubly Occupied:

       1A    -20.584502     2A    -20.564580     3A    -20.555258
       4A    -11.294182     5A    -11.293543     6A    -11.280792
       7A    -11.276467     8A     -1.399430     9A     -1.375804
      10A     -1.353943    11A     -1.036407    12A     -0.938504
      13A     -0.918710    14A     -0.759924    15A     -0.729457
      16A     -0.706729    17A     -0.678113    18A     -0.658860
      19A     -0.621250    20A     -0.597917    21A     -0.570763
      22A     -0.549713    23A     -0.542292    24A     -0.512054
      25A     -0.478378    26A     -0.473040    27A     -0.436782
      28A     -0.413714

  @DF-RHF Final Energy:  -380.80630349405067

   => Energetics <=

    Nuclear Repulsion Energy =            335.6305890318939191
    One-Electron Energy =               -1187.6715688991605475
    Two-Electron Energy =                 471.2346763732159616
    Total Energy =                       -380.8063034940506668
  Basis Set: (AUG-CC-PVTZ AUX)
    Blend: AUG-CC-PVTZ-RI
    Molecular point group: c1

    Geometry (in Angstrom), charge = 0, multiplicity = 1:

       Center              X                  Y                   Z               Mass
    ------------   -----------------  -----------------  -----------------  -----------------
         O            1.846336511421    -0.752062059240    -0.036099912281    15.994914619570
         O           -0.476485488579     1.601467940760    -0.260797912281    15.994914619570
         O           -2.131596488579    -0.557955059240    -0.229469912281    15.994914619570
         C            0.040373111421     0.331917940760     0.064916587719    12.000000000000
         C            1.346439511421     0.316855940760     0.813100087719    12.000000000000
         C            0.810825511421    -0.448719059240    -1.014813912281    12.000000000000
         C           -1.055038488579    -0.513652059240     0.715376087719    12.000000000000
         H            1.894406511421     1.255700940760     0.663983087719     1.007825032230
         H            1.350304511421     0.039463940760     1.873282087719     1.007825032230
         H            0.371982511421    -1.352760059240    -1.447726912281     1.007825032230
         H            1.176361511421     0.221626940760    -1.802449912281     1.007825032230
         H           -1.366734488579    -0.025631059240     1.649250087719     1.007825032230
         H           -0.666509488579    -1.514799059240     0.942241087719     1.007825032230
         H           -1.373382488579     1.448025940760    -0.616117912281     1.007825032230
         H           -2.901713488579    -0.963215059240     0.202337087719     1.007825032230

  Basis Set: AUG-CC-PVTZ
    Blend: AUG-CC-PVTZ
  Basis Set: (AUG-CC-PVTZ AUX)
    Blend: AUG-CC-PVTZ-JKFIT
	 Reference Energy          =    -380.8063034940506668 [Eh]
	 Singles Energy            =      -0.0000000000000000 [Eh]
	 Same-Spin Energy          =      -0.3697690009107378 [Eh]
	 Opposite-Spin Energy      =      -1.1725107887049531 [Eh]
	 Correlation Energy        =      -1.5422797896156908 [Eh]
	 Total Energy              =    -382.3485832836663576 [Eh]

	 ================> DF-SCS-MP2 Energies <==================
	-----------------------------------------------------------
	 SCS Same-Spin Scale       =       0.3333333333333333 [-]
	 SCS Opposite-Spin Scale   =       1.2000000000000000 [-]
	 SCS Same-Spin Energy      =      -0.1232563336369126 [Eh]
	 SCS Opposite-Spin Energy  =      -1.4070129464459435 [Eh]
	 SCS Correlation Energy    =      -1.5302692800828561 [Eh]
	 SCS Total Energy          =    -382.3365727741335149 [Eh]
	-----------------------------------------------------------

  Dipole Moment: [D]
     X:    -2.5341      Y:    -0.8197      Z:     1.2245     Total:     2.9313

*** Psi4 exiting successfully. Buy a developer a beer!
