                               Psi4 1.4a3.dev225

  ==> Input File <==

--------------------------------------------------------------------------
#psi4
#
memory 32 gb

molecule  {
0 1
  O        1.8620410    -0.7430760    -0.0482260
  O       -0.4607810     1.6104540    -0.2729240
  O       -2.1158920    -0.5489690    -0.2415960
  C        0.0351110     0.3306280     0.0450800
  C        1.3621440     0.3258420     0.8009740
  C        0.8265300    -0.4397330    -1.0269400
  C       -1.0393340    -0.5046660     0.7032500
  H        1.8851407     1.2219048     0.6586521
  H        1.3660090     0.0484500     1.8611560
  H        0.3876870    -1.3437740    -1.4598530
  H        1.1920660     0.2306130    -1.8145760
  H       -1.3510300    -0.0166450     1.6371240
  H       -0.6508050    -1.5058130     0.9301150
  H       -1.3576780     1.4570120    -0.6282440
  H       -2.8860090    -0.9542290     0.1902110
units angstrom
no_reorient  #important for SAPT in psi4, default
symmetry c1  #important for SAPT in psi4, default
}

set PROPERTIES_ORIGIN ["COM"]
properties('MP2/aug-cc-pvtz', properties = ['dipole'])
--------------------------------------------------------------------------

    Molecular point group: c1
  Charge       = 0
  Multiplicity = 1
  Basis Set: AUG-CC-PVTZ
    Blend: AUG-CC-PVTZ
  Basis Set: (AUG-CC-PVTZ AUX)
    Blend: AUG-CC-PVTZ-JKFIT

    Orbital Energies [Eh]
    ---------------------

    Doubly Occupied:

       1A    -20.584318     2A    -20.565185     3A    -20.554117
       4A    -11.293537     5A    -11.292854     6A    -11.276547
       7A    -11.275187     8A     -1.399427     9A     -1.375026
      10A     -1.354039    11A     -1.037006    12A     -0.940361
      13A     -0.919411    14A     -0.762417    15A     -0.730740
      16A     -0.707598    17A     -0.676839    18A     -0.658739
      19A     -0.620031    20A     -0.601051    21A     -0.574117
      22A     -0.550395    23A     -0.542914    24A     -0.514323
      25A     -0.475889    26A     -0.471751    27A     -0.435356
      28A     -0.416548

  @DF-RHF Final Energy:  -380.80597214876582

   => Energetics <=

    Nuclear Repulsion Energy =            335.8986634833992184
    One-Electron Energy =               -1188.1978258521251064
    Two-Electron Energy =                 471.4931902199600700
    Total Energy =                       -380.8059721487658180
  Basis Set: (AUG-CC-PVTZ AUX)
    Blend: AUG-CC-PVTZ-RI
    Molecular point group: c1

    Geometry (in Angstrom), charge = 0, multiplicity = 1:

       Center              X                  Y                   Z               Mass
    ------------   -----------------  -----------------  -----------------  -----------------
         O            1.848996501407    -0.750462508829    -0.035276462833    15.994914619570
         O           -0.473825498593     1.603067491171    -0.259974462833    15.994914619570
         O           -2.128936498593    -0.556355508829    -0.228646462833    15.994914619570
         C            0.022066501407     0.323241491171     0.058029537167    12.000000000000
         C            1.349099501407     0.318455491171     0.813923537167    12.000000000000
         C            0.813485501407    -0.447119508829    -1.013990462833    12.000000000000
         C           -1.052378498593    -0.512052508829     0.716199537167    12.000000000000
         H            1.872096201407     1.214518291171     0.671601637167     1.007825032230
         H            1.352964501407     0.041063491171     1.874105537167     1.007825032230
         H            0.374642501407    -1.351160508829    -1.446903462833     1.007825032230
         H            1.179021501407     0.223226491171    -1.801626462833     1.007825032230
         H           -1.364074498593    -0.024031508829     1.650073537167     1.007825032230
         H           -0.663849498593    -1.513199508829     0.943064537167     1.007825032230
         H           -1.370722498593     1.449625491171    -0.615294462833     1.007825032230
         H           -2.899053498593    -0.961615508829     0.203160537167     1.007825032230

  Basis Set: AUG-CC-PVTZ
    Blend: AUG-CC-PVTZ
  Basis Set: (AUG-CC-PVTZ AUX)
    Blend: AUG-CC-PVTZ-JKFIT
	 Reference Energy          =    -380.8059721487658180 [Eh]
	 Singles Energy            =      -0.0000000000000000 [Eh]
	 Same-Spin Energy          =      -0.3697407770434271 [Eh]
	 Opposite-Spin Energy      =      -1.1723002979407973 [Eh]
	 Correlation Energy        =      -1.5420410749842244 [Eh]
	 Total Energy              =    -382.3480132237500584 [Eh]

	 ================> DF-SCS-MP2 Energies <==================
	-----------------------------------------------------------
	 SCS Same-Spin Scale       =       0.3333333333333333 [-]
	 SCS Opposite-Spin Scale   =       1.2000000000000000 [-]
	 SCS Same-Spin Energy      =      -0.1232469256811424 [Eh]
	 SCS Opposite-Spin Energy  =      -1.4067603575289567 [Eh]
	 SCS Correlation Energy    =      -1.5300072832100990 [Eh]
	 SCS Total Energy          =    -382.3359794319759430 [Eh]
	-----------------------------------------------------------

  Dipole Moment: [D]
     X:    -2.5474      Y:    -0.7942      Z:     1.2361     Total:     2.9407

*** Psi4 exiting successfully. Buy a developer a beer!
