                               Psi4 1.3.2 release

  ==> Input File <==

--------------------------------------------------------------------------
#psi4
#
memory 32 gb

molecule  {
0 1
  O        1.8620410    -0.7430760    -0.0482260
  O       -0.4607810     1.6104540    -0.2729240
  O       -2.1158920    -0.5489690    -0.2415960
  C        0.0351110     0.3306280     0.0450800
  C        1.3621440     0.3258420     0.8009740
  C        0.8265300    -0.4397330    -1.0269400
  C       -1.0393340    -0.5046660     0.7032500
  H        1.9600515     1.3502513     0.6382668
  H        1.3660090     0.0484500     1.8611560
  H        0.3876870    -1.3437740    -1.4598530
  H        1.1920660     0.2306130    -1.8145760
  H       -1.3510300    -0.0166450     1.6371240
  H       -0.6508050    -1.5058130     0.9301150
  H       -1.3576780     1.4570120    -0.6282440
  H       -2.8860090    -0.9542290     0.1902110
units angstrom
no_reorient  #important for SAPT in psi4, default
symmetry c1  #important for SAPT in psi4, default
}

set PROPERTIES_ORIGIN ["COM"]
properties('MP2/aug-cc-pvtz', properties = ['dipole'])
--------------------------------------------------------------------------

    Molecular point group: c1
  Charge       = 0
  Multiplicity = 1
  Basis Set: AUG-CC-PVTZ
    Blend: AUG-CC-PVTZ
  Basis Set: (AUG-CC-PVTZ AUX)
    Blend: AUG-CC-PVTZ-JKFIT

    Orbital Energies [Eh]
    ---------------------

    Doubly Occupied:

       1A    -20.585190     2A    -20.565249     3A    -20.557014
       4A    -11.294998     5A    -11.294249     6A    -11.292292
       7A    -11.277499     8A     -1.400139     9A     -1.376228
      10A     -1.354633    11A     -1.037583    12A     -0.933125
      13A     -0.916409    14A     -0.756280    15A     -0.731339
      16A     -0.701989    17A     -0.677795    18A     -0.659515
      19A     -0.620884    20A     -0.595804    21A     -0.565051
      22A     -0.546597    23A     -0.542082    24A     -0.515229
      25A     -0.476973    26A     -0.472864    27A     -0.434156
      28A     -0.414237

  @DF-RHF Final Energy:  -380.79969083402699

   => Energetics <=

    Nuclear Repulsion Energy =            335.1602442877196495
    One-Electron Energy =               -1186.7290617206001571
    Two-Electron Energy =                 470.7691265988534610
    Total Energy =                       -380.7996908340269897
  Basis Set: (AUG-CC-PVTZ AUX)
    Blend: AUG-CC-PVTZ-RI
    Molecular point group: c1

    Geometry (in Angstrom), charge = 0, multiplicity = 1:

       Center              X                  Y                   Z               Mass
    ------------   -----------------  -----------------  -----------------  -----------------
         O            1.848270899229    -0.751705700729    -0.035079006417    15.994914619570
         O           -0.474551100771     1.601824299271    -0.259777006417    15.994914619570
         O           -2.129662100771    -0.557598700729    -0.228449006417    15.994914619570
         C            0.021340899229     0.321998299271     0.058226993583    12.000000000000
         C            1.348373899229     0.317212299271     0.814120993583    12.000000000000
         C            0.812759899229    -0.448362700729    -1.013793006417    12.000000000000
         C           -1.053104100771    -0.513295700729     0.716396993583    12.000000000000
         H            1.946281399229     1.341621599271     0.651413793583     1.007825032230
         H            1.352238899229     0.039820299271     1.874302993583     1.007825032230
         H            0.373916899229    -1.352403700729    -1.446706006417     1.007825032230
         H            1.178295899229     0.221983299271    -1.801429006417     1.007825032230
         H           -1.364800100771    -0.025274700729     1.650270993583     1.007825032230
         H           -0.664575100771    -1.514442700729     0.943261993583     1.007825032230
         H           -1.371448100771     1.448382299271    -0.615097006417     1.007825032230
         H           -2.899779100771    -0.962858700729     0.203357993583     1.007825032230

  Basis Set: AUG-CC-PVTZ
    Blend: AUG-CC-PVTZ
  Basis Set: (AUG-CC-PVTZ AUX)
    Blend: AUG-CC-PVTZ-JKFIT
	 Reference Energy          =    -380.7996908340269897 [Eh]
	 Singles Energy            =      -0.0000000000000000 [Eh]
	 Same-Spin Energy          =      -0.3700476944816272 [Eh]
	 Opposite-Spin Energy      =      -1.1736870438028972 [Eh]
	 Correlation Energy        =      -1.5437347382845243 [Eh]
	 Total Energy              =    -382.3434255723115029 [Eh]

	 ================> DF-SCS-MP2 Energies <==================
	-----------------------------------------------------------
	 SCS Same-Spin Scale       =       0.3333333333333333 [-]
	 SCS Opposite-Spin Scale   =       1.2000000000000000 [-]
	 SCS Same-Spin Energy      =      -0.1233492314938757 [Eh]
	 SCS Opposite-Spin Energy  =      -1.4084244525634766 [Eh]
	 SCS Correlation Energy    =      -1.5317736840573524 [Eh]
	 SCS Total Energy          =    -382.3314645180843172 [Eh]
	-----------------------------------------------------------

  Dipole Moment: [D]
     X:    -2.5988      Y:    -0.8915      Z:     1.2079     Total:     3.0012

*** Psi4 exiting successfully. Buy a developer a beer!
