                               Psi4 1.3.2 release

  ==> Input File <==

--------------------------------------------------------------------------
#psi4
#
memory 32 gb

molecule  {
0 1
  O        1.8620410    -0.7430760    -0.0482260
  O       -0.4607810     1.6104540    -0.2729240
  O       -2.1158920    -0.5489690    -0.2415960
  C        0.0351110     0.3306280     0.0450800
  C        1.3386067     0.3526486     0.8405857
  C        0.8265300    -0.4397330    -1.0269400
  C       -1.0393340    -0.5046660     0.7032500
  H        1.9101110     1.2646870     0.6518570
  H        1.3660090     0.0484500     1.8611560
  H        0.3876870    -1.3437740    -1.4598530
  H        1.1920660     0.2306130    -1.8145760
  H       -1.3510300    -0.0166450     1.6371240
  H       -0.6508050    -1.5058130     0.9301150
  H       -1.3576780     1.4570120    -0.6282440
  H       -2.8860090    -0.9542290     0.1902110
units angstrom
no_reorient  #important for SAPT in psi4, default
symmetry c1  #important for SAPT in psi4, default
}

set PROPERTIES_ORIGIN ["COM"]
properties('MP2/aug-cc-pvtz', properties = ['dipole'])
--------------------------------------------------------------------------

    Molecular point group: c1
  Charge       = 0
  Multiplicity = 1
  Basis Set: AUG-CC-PVTZ
    Blend: AUG-CC-PVTZ
  Basis Set: (AUG-CC-PVTZ AUX)
    Blend: AUG-CC-PVTZ-JKFIT

    Orbital Energies [Eh]
    ---------------------

    Doubly Occupied:

       1A    -20.584612     2A    -20.565108     3A    -20.551190
       4A    -11.295407     5A    -11.293603     6A    -11.281182
       7A    -11.274355     8A     -1.396836     9A     -1.367923
      10A     -1.347787    11A     -1.036918    12A     -0.937997
      13A     -0.917153    14A     -0.763174    15A     -0.731206
      16A     -0.703156    17A     -0.676123    18A     -0.657570
      19A     -0.616437    20A     -0.595814    21A     -0.571908
      22A     -0.551050    23A     -0.539018    24A     -0.509754
      25A     -0.476974    26A     -0.473128    27A     -0.435761
      28A     -0.415282

  @DF-RHF Final Energy:  -380.80321407701194

   => Energetics <=

    Nuclear Repulsion Energy =            335.0506758407967141
    One-Electron Energy =               -1186.5749284603962224
    Two-Electron Energy =                 470.7210385425876211
    Total Energy =                       -380.8032140770119440
  Basis Set: (AUG-CC-PVTZ AUX)
    Blend: AUG-CC-PVTZ-RI
    Molecular point group: c1

    Geometry (in Angstrom), charge = 0, multiplicity = 1:

       Center              X                  Y                   Z               Mass
    ------------   -----------------  -----------------  -----------------  -----------------
         O            1.851469240224    -0.753968568259    -0.039779145069    15.994914619570
         O           -0.471352759776     1.599561431741    -0.264477145069    15.994914619570
         O           -2.126463759776    -0.559861568259    -0.233149145069    15.994914619570
         C            0.024539240224     0.319735431741     0.053526854931    12.000000000000
         C            1.328034940224     0.341756031741     0.849032554931    12.000000000000
         C            0.815958240224    -0.450625568259    -1.018493145069    12.000000000000
         C           -1.049905759776    -0.515558568259     0.711696854931    12.000000000000
         H            1.899539240224     1.253794431741     0.660303854931     1.007825032230
         H            1.355437240224     0.037557431741     1.869602854931     1.007825032230
         H            0.377115240224    -1.354666568259    -1.451406145069     1.007825032230
         H            1.181494240224     0.219720431741    -1.806129145069     1.007825032230
         H           -1.361601759776    -0.027537568259     1.645570854931     1.007825032230
         H           -0.661376759776    -1.516705568259     0.938561854931     1.007825032230
         H           -1.368249759776     1.446119431741    -0.619797145069     1.007825032230
         H           -2.896580759776    -0.965121568259     0.198657854931     1.007825032230

  Basis Set: AUG-CC-PVTZ
    Blend: AUG-CC-PVTZ
  Basis Set: (AUG-CC-PVTZ AUX)
    Blend: AUG-CC-PVTZ-JKFIT
	 Reference Energy          =    -380.8032140770119440 [Eh]
	 Singles Energy            =      -0.0000000000000000 [Eh]
	 Same-Spin Energy          =      -0.3700201050841414 [Eh]
	 Opposite-Spin Energy      =      -1.1738783409029676 [Eh]
	 Correlation Energy        =      -1.5438984459871090 [Eh]
	 Total Energy              =    -382.3471125229990548 [Eh]

	 ================> DF-SCS-MP2 Energies <==================
	-----------------------------------------------------------
	 SCS Same-Spin Scale       =       0.3333333333333333 [-]
	 SCS Opposite-Spin Scale   =       1.2000000000000000 [-]
	 SCS Same-Spin Energy      =      -0.1233400350280471 [Eh]
	 SCS Opposite-Spin Energy  =      -1.4086540090835611 [Eh]
	 SCS Correlation Energy    =      -1.5319940441116082 [Eh]
	 SCS Total Energy          =    -382.3352081211235713 [Eh]
	-----------------------------------------------------------

  Dipole Moment: [D]
     X:    -2.5816      Y:    -0.7528      Z:     1.3403     Total:     3.0047

*** Psi4 exiting successfully. Buy a developer a beer!
