                               Psi4 1.3.2 release

  ==> Input File <==

--------------------------------------------------------------------------
#psi4
#
memory 32 gb

molecule  {
0 1
  O        1.8620410    -0.7430760    -0.0482260
  O       -0.4607810     1.6104540    -0.2729240
  O       -2.1158920    -0.5489690    -0.2415960
  C        0.0351110     0.3306280     0.0450800
  C        1.3621440     0.3258420     0.8009740
  C        0.8265300    -0.4397330    -1.0269400
  C       -1.0393340    -0.5046660     0.7032500
  H        1.8943784     1.2588768     0.5771297
  H        1.3660090     0.0484500     1.8611560
  H        0.3876870    -1.3437740    -1.4598530
  H        1.1920660     0.2306130    -1.8145760
  H       -1.3510300    -0.0166450     1.6371240
  H       -0.6508050    -1.5058130     0.9301150
  H       -1.3576780     1.4570120    -0.6282440
  H       -2.8860090    -0.9542290     0.1902110
units angstrom
no_reorient  #important for SAPT in psi4, default
symmetry c1  #important for SAPT in psi4, default
}

set PROPERTIES_ORIGIN ["COM"]
properties('MP2/aug-cc-pvtz', properties = ['dipole'])
--------------------------------------------------------------------------

    Molecular point group: c1
  Charge       = 0
  Multiplicity = 1
  Basis Set: AUG-CC-PVTZ
    Blend: AUG-CC-PVTZ
  Basis Set: (AUG-CC-PVTZ AUX)
    Blend: AUG-CC-PVTZ-JKFIT

    Orbital Energies [Eh]
    ---------------------

    Doubly Occupied:

       1A    -20.584441     2A    -20.565286     3A    -20.553976
       4A    -11.293602     5A    -11.292810     6A    -11.281142
       7A    -11.276632     8A     -1.399592     9A     -1.375209
      10A     -1.354176    11A     -1.037028    12A     -0.936439
      13A     -0.918910    14A     -0.758383    15A     -0.730766
      16A     -0.705676    17A     -0.677774    18A     -0.659087
      19A     -0.620233    20A     -0.599165    21A     -0.570647
      22A     -0.551294    23A     -0.542466    24A     -0.514283
      25A     -0.476096    26A     -0.472141    27A     -0.433227
      28A     -0.416264

  @DF-RHF Final Energy:  -380.80598386193390

   => Energetics <=

    Nuclear Repulsion Energy =            335.7574351381856559
    One-Electron Energy =               -1187.9333524134917752
    Two-Electron Energy =                 471.3699334133722232
    Total Energy =                       -380.8059838619338962
  Basis Set: (AUG-CC-PVTZ AUX)
    Blend: AUG-CC-PVTZ-RI
    Molecular point group: c1

    Geometry (in Angstrom), charge = 0, multiplicity = 1:

       Center              X                  Y                   Z               Mass
    ------------   -----------------  -----------------  -----------------  -----------------
         O            1.848907023051    -0.750820627601    -0.034486819271    15.994914619570
         O           -0.473914976949     1.602709372399    -0.259184819271    15.994914619570
         O           -2.129025976949    -0.556713627601    -0.227856819271    15.994914619570
         C            0.021977023051     0.322883372399     0.058819180729    12.000000000000
         C            1.349010023051     0.318097372399     0.814713180729    12.000000000000
         C            0.813396023051    -0.447477627601    -1.013200819271    12.000000000000
         C           -1.052467976949    -0.512410627601     0.716989180729    12.000000000000
         H            1.881244423051     1.251132172399     0.590868880729     1.007825032230
         H            1.352875023051     0.040705372399     1.874895180729     1.007825032230
         H            0.374553023051    -1.351518627601    -1.446113819271     1.007825032230
         H            1.178932023051     0.222868372399    -1.800836819271     1.007825032230
         H           -1.364163976949    -0.024389627601     1.650863180729     1.007825032230
         H           -0.663938976949    -1.513557627601     0.943854180729     1.007825032230
         H           -1.370811976949     1.449267372399    -0.614504819271     1.007825032230
         H           -2.899142976949    -0.961973627601     0.203950180729     1.007825032230

  Basis Set: AUG-CC-PVTZ
    Blend: AUG-CC-PVTZ
  Basis Set: (AUG-CC-PVTZ AUX)
    Blend: AUG-CC-PVTZ-JKFIT
	 Reference Energy          =    -380.8059838619338962 [Eh]
	 Singles Energy            =      -0.0000000000000000 [Eh]
	 Same-Spin Energy          =      -0.3699411213507728 [Eh]
	 Opposite-Spin Energy      =      -1.1728409130302093 [Eh]
	 Correlation Energy        =      -1.5427820343809822 [Eh]
	 Total Energy              =    -382.3487658963148874 [Eh]

	 ================> DF-SCS-MP2 Energies <==================
	-----------------------------------------------------------
	 SCS Same-Spin Scale       =       0.3333333333333333 [-]
	 SCS Opposite-Spin Scale   =       1.2000000000000000 [-]
	 SCS Same-Spin Energy      =      -0.1233137071169243 [Eh]
	 SCS Opposite-Spin Energy  =      -1.4074090956362511 [Eh]
	 SCS Correlation Energy    =      -1.5307228027531754 [Eh]
	 SCS Total Energy          =    -382.3367066646870853 [Eh]
	-----------------------------------------------------------

  Dipole Moment: [D]
     X:    -2.5714      Y:    -0.8287      Z:     1.2213     Total:     2.9649

*** Psi4 exiting successfully. Buy a developer a beer!
