                               Psi4 1.3.2 release

  ==> Input File <==

--------------------------------------------------------------------------
#psi4
#
memory 32 gb

molecule  {
0 1
  O        1.8620410    -0.7430760    -0.0482260
  O       -0.4607810     1.6104540    -0.2729240
  O       -2.1158920    -0.5489690    -0.2415960
  C        0.0351110     0.3306280     0.0450800
  C        1.2916604     0.2293920     0.9071996
  C        0.8265300    -0.4397330    -1.0269400
  C       -1.0393340    -0.5046660     0.7032500
  H        1.9101110     1.2646870     0.6518570
  H        1.3660090     0.0484500     1.8611560
  H        0.3876870    -1.3437740    -1.4598530
  H        1.1920660     0.2306130    -1.8145760
  H       -1.3510300    -0.0166450     1.6371240
  H       -0.6508050    -1.5058130     0.9301150
  H       -1.3576780     1.4570120    -0.6282440
  H       -2.8860090    -0.9542290     0.1902110
units angstrom
no_reorient  #important for SAPT in psi4, default
symmetry c1  #important for SAPT in psi4, default
}

set PROPERTIES_ORIGIN ["COM"]
properties('MP2/aug-cc-pvtz', properties = ['dipole'])
--------------------------------------------------------------------------

    Molecular point group: c1
  Charge       = 0
  Multiplicity = 1
  Basis Set: AUG-CC-PVTZ
    Blend: AUG-CC-PVTZ
  Basis Set: (AUG-CC-PVTZ AUX)
    Blend: AUG-CC-PVTZ-JKFIT

    Orbital Energies [Eh]
    ---------------------

    Doubly Occupied:

       1A    -20.583465     2A    -20.567430     3A    -20.554693
       4A    -11.297918     5A    -11.292976     6A    -11.284496
       7A    -11.276892     8A     -1.397982     9A     -1.370674
      10A     -1.352788    11A     -1.041303    12A     -0.943867
      13A     -0.913193    14A     -0.772977    15A     -0.732198
      16A     -0.702514    17A     -0.682013    18A     -0.660343
      19A     -0.619869    20A     -0.593850    21A     -0.563939
      22A     -0.557825    23A     -0.534457    24A     -0.512529
      25A     -0.478393    26A     -0.473528    27A     -0.435521
      28A     -0.405746

  @DF-RHF Final Energy:  -380.77693747098556

   => Energetics <=

    Nuclear Repulsion Energy =            335.4330188421672574
    One-Electron Energy =               -1187.2131596011520287
    Two-Electron Energy =                 471.0032032879992130
    Total Energy =                       -380.7769374709855583
  Basis Set: (AUG-CC-PVTZ AUX)
    Blend: AUG-CC-PVTZ-RI
    Molecular point group: c1

    Geometry (in Angstrom), charge = 0, multiplicity = 1:

       Center              X                  Y                   Z               Mass
    ------------   -----------------  -----------------  -----------------  -----------------
         O            1.856883656178    -0.739753124198    -0.047461866880    15.994914619570
         O           -0.465938343822     1.613776875802    -0.272159866880    15.994914619570
         O           -2.121049343822    -0.545646124198    -0.240831866880    15.994914619570
         C            0.029953656178     0.333950875802     0.045844133120    12.000000000000
         C            1.286503056178     0.232714875802     0.907963733120    12.000000000000
         C            0.821372656178    -0.436410124198    -1.026175866880    12.000000000000
         C           -1.044491343822    -0.501343124198     0.704014133120    12.000000000000
         H            1.904953656178     1.268009875802     0.652621133120     1.007825032230
         H            1.360851656178     0.051772875802     1.861920133120     1.007825032230
         H            0.382529656178    -1.340451124198    -1.459088866880     1.007825032230
         H            1.186908656178     0.233935875802    -1.813811866880     1.007825032230
         H           -1.356187343822    -0.013322124198     1.637888133120     1.007825032230
         H           -0.655962343822    -1.502490124198     0.930879133120     1.007825032230
         H           -1.362835343822     1.460334875802    -0.627479866880     1.007825032230
         H           -2.891166343822    -0.950906124198     0.190975133120     1.007825032230

  Basis Set: AUG-CC-PVTZ
    Blend: AUG-CC-PVTZ
  Basis Set: (AUG-CC-PVTZ AUX)
    Blend: AUG-CC-PVTZ-JKFIT
	 Reference Energy          =    -380.7769374709855583 [Eh]
	 Singles Energy            =      -0.0000000000000000 [Eh]
	 Same-Spin Energy          =      -0.3704349922020728 [Eh]
	 Opposite-Spin Energy      =      -1.1747074194712841 [Eh]
	 Correlation Energy        =      -1.5451424116733570 [Eh]
	 Total Energy              =    -382.3220798826588975 [Eh]

	 ================> DF-SCS-MP2 Energies <==================
	-----------------------------------------------------------
	 SCS Same-Spin Scale       =       0.3333333333333333 [-]
	 SCS Opposite-Spin Scale   =       1.2000000000000000 [-]
	 SCS Same-Spin Energy      =      -0.1234783307340243 [Eh]
	 SCS Opposite-Spin Energy  =      -1.4096489033655408 [Eh]
	 SCS Correlation Energy    =      -1.5331272340995652 [Eh]
	 SCS Total Energy          =    -382.3100647050850966 [Eh]
	-----------------------------------------------------------

  Dipole Moment: [D]
     X:    -2.6593      Y:    -0.9745      Z:     1.3583     Total:     3.1411

*** Psi4 exiting successfully. Buy a developer a beer!
