                               Psi4 1.4a3.dev225

  ==> Input File <==

--------------------------------------------------------------------------
#psi4
#
memory 32 gb

molecule  {
0 1
  O        1.8620410    -0.7430760    -0.0482260
  O       -0.4607810     1.6104540    -0.2729240
  O       -2.1158920    -0.5489690    -0.2415960
  C        0.0351110     0.3306280     0.0450800
  C        1.3552670     0.3405468     0.8126562
  C        0.8265300    -0.4397330    -1.0269400
  C       -1.0393340    -0.5046660     0.7032500
  H        1.9101110     1.2646870     0.6518570
  H        1.3660090     0.0484500     1.8611560
  H        0.3876870    -1.3437740    -1.4598530
  H        1.1920660     0.2306130    -1.8145760
  H       -1.3510300    -0.0166450     1.6371240
  H       -0.6508050    -1.5058130     0.9301150
  H       -1.3576780     1.4570120    -0.6282440
  H       -2.8860090    -0.9542290     0.1902110
units angstrom
no_reorient  #important for SAPT in psi4, default
symmetry c1  #important for SAPT in psi4, default
}

set PROPERTIES_ORIGIN ["COM"]
properties('MP2/aug-cc-pvtz', properties = ['dipole'])
--------------------------------------------------------------------------

    Molecular point group: c1
  Charge       = 0
  Multiplicity = 1
  Basis Set: AUG-CC-PVTZ
    Blend: AUG-CC-PVTZ
  Basis Set: (AUG-CC-PVTZ AUX)
    Blend: AUG-CC-PVTZ-JKFIT

    Orbital Energies [Eh]
    ---------------------

    Doubly Occupied:

       1A    -20.584644     2A    -20.565071     3A    -20.553514
       4A    -11.294365     5A    -11.293514     6A    -11.280955
       7A    -11.275801     8A     -1.398181     9A     -1.371988
      10A     -1.352276    11A     -1.036844    12A     -0.937111
      13A     -0.918320    14A     -0.761028    15A     -0.730968
      16A     -0.704853    17A     -0.676277    18A     -0.658313
      19A     -0.618582    20A     -0.597574    21A     -0.571721
      22A     -0.549940    23A     -0.541240    24A     -0.512789
      25A     -0.476425    26A     -0.472518    27A     -0.435673
      28A     -0.415858

  @DF-RHF Final Energy:  -380.80588868779682

   => Energetics <=

    Nuclear Repulsion Energy =            335.4054830627150636
    One-Electron Energy =               -1187.2500581695121582
    Two-Electron Energy =                 471.0386864190002143
    Total Energy =                       -380.8058886877968234
  Basis Set: (AUG-CC-PVTZ AUX)
    Blend: AUG-CC-PVTZ-RI
    Molecular point group: c1

    Geometry (in Angstrom), charge = 0, multiplicity = 1:

       Center              X                  Y                   Z               Mass
    ------------   -----------------  -----------------  -----------------  -----------------
         O            1.849547772629    -0.752572842100    -0.036557976832    15.994914619570
         O           -0.473274227371     1.600957157900    -0.261255976832    15.994914619570
         O           -2.128385227371    -0.558465842100    -0.229927976832    15.994914619570
         C            0.022617772629     0.321131157900     0.056748023168    12.000000000000
         C            1.342773772629     0.331049957900     0.824324223168    12.000000000000
         C            0.814036772629    -0.449229842100    -1.015271976832    12.000000000000
         C           -1.051827227371    -0.514162842100     0.714918023168    12.000000000000
         H            1.897617772629     1.255190157900     0.663525023168     1.007825032230
         H            1.353515772629     0.038953157900     1.872824023168     1.007825032230
         H            0.375193772629    -1.353270842100    -1.448184976832     1.007825032230
         H            1.179572772629     0.221116157900    -1.802907976832     1.007825032230
         H           -1.363523227371    -0.026141842100     1.648792023168     1.007825032230
         H           -0.663298227371    -1.515309842100     0.941783023168     1.007825032230
         H           -1.370171227371     1.447515157900    -0.616575976832     1.007825032230
         H           -2.898502227371    -0.963725842100     0.201879023168     1.007825032230

  Basis Set: AUG-CC-PVTZ
    Blend: AUG-CC-PVTZ
  Basis Set: (AUG-CC-PVTZ AUX)
    Blend: AUG-CC-PVTZ-JKFIT
	 Reference Energy          =    -380.8058886877968234 [Eh]
	 Singles Energy            =      -0.0000000000000000 [Eh]
	 Same-Spin Energy          =      -0.3698832475328512 [Eh]
	 Opposite-Spin Energy      =      -1.1731154855219978 [Eh]
	 Correlation Energy        =      -1.5429987330548491 [Eh]
	 Total Energy              =    -382.3488874208516677 [Eh]

	 ================> DF-SCS-MP2 Energies <==================
	-----------------------------------------------------------
	 SCS Same-Spin Scale       =       0.3333333333333333 [-]
	 SCS Opposite-Spin Scale   =       1.2000000000000000 [-]
	 SCS Same-Spin Energy      =      -0.1232944158442837 [Eh]
	 SCS Opposite-Spin Energy  =      -1.4077385826263973 [Eh]
	 SCS Correlation Energy    =      -1.5310329984706810 [Eh]
	 SCS Total Energy          =    -382.3369216862674875 [Eh]
	-----------------------------------------------------------

  Dipole Moment: [D]
     X:    -2.5667      Y:    -0.7877      Z:     1.2686     Total:     2.9695

*** Psi4 exiting successfully. Buy a developer a beer!
