                               Psi4 1.3.2 release

  ==> Input File <==

--------------------------------------------------------------------------
#psi4
#
memory 32 gb

molecule  {
0 1
  O        1.8620410    -0.7430760    -0.0482260
  O       -0.4607810     1.6104540    -0.2729240
  O       -2.0601591    -0.4924408    -0.3024540
  C        0.0351110     0.3306280     0.0450800
  C        1.3621440     0.3258420     0.8009740
  C        0.8265300    -0.4397330    -1.0269400
  C       -1.0393340    -0.5046660     0.7032500
  H        1.9101110     1.2646870     0.6518570
  H        1.3660090     0.0484500     1.8611560
  H        0.3876870    -1.3437740    -1.4598530
  H        1.1920660     0.2306130    -1.8145760
  H       -1.3510300    -0.0166450     1.6371240
  H       -0.6508050    -1.5058130     0.9301150
  H       -1.3576780     1.4570120    -0.6282440
  H       -2.8860090    -0.9542290     0.1902110
units angstrom
no_reorient  #important for SAPT in psi4, default
symmetry c1  #important for SAPT in psi4, default
}

set PROPERTIES_ORIGIN ["COM"]
properties('MP2/aug-cc-pvtz', properties = ['dipole'])
--------------------------------------------------------------------------

    Molecular point group: c1
  Charge       = 0
  Multiplicity = 1
  Basis Set: AUG-CC-PVTZ
    Blend: AUG-CC-PVTZ
  Basis Set: (AUG-CC-PVTZ AUX)
    Blend: AUG-CC-PVTZ-JKFIT

    Orbital Energies [Eh]
    ---------------------

    Doubly Occupied:

       1A    -20.596473     2A    -20.562616     3A    -20.553561
       4A    -11.293165     5A    -11.290764     6A    -11.278719
       7A    -11.275507     8A     -1.397205     9A     -1.368932
      10A     -1.347594    11A     -1.032833    12A     -0.935315
      13A     -0.912815    14A     -0.758713    15A     -0.726303
      16A     -0.698210    17A     -0.670017    18A     -0.658947
      19A     -0.613247    20A     -0.596462    21A     -0.569307
      22A     -0.549426    23A     -0.542638    24A     -0.512656
      25A     -0.477559    26A     -0.468810    27A     -0.433483
      28A     -0.413941

  @DF-RHF Final Energy:  -380.79043984012304

   => Energetics <=

    Nuclear Repulsion Energy =            336.4220569171026796
    One-Electron Energy =               -1189.3545571219497106
    Two-Electron Energy =                 472.1420603647239318
    Total Energy =                       -380.7904398401230424
  Basis Set: (AUG-CC-PVTZ AUX)
    Blend: AUG-CC-PVTZ-RI
    Molecular point group: c1

    Geometry (in Angstrom), charge = 0, multiplicity = 1:

       Center              X                  Y                   Z               Mass
    ------------   -----------------  -----------------  -----------------  -----------------
         O            1.840186966880    -0.759566832564    -0.025855109562    15.994914619570
         O           -0.482635033120     1.593963167436    -0.250553109562    15.994914619570
         O           -2.082013133120    -0.508931632564    -0.280083109562    15.994914619570
         C            0.013256966880     0.314137167436     0.067450890438    12.000000000000
         C            1.340289966880     0.309351167436     0.823344890438    12.000000000000
         C            0.804675966880    -0.456223832564    -1.004569109562    12.000000000000
         C           -1.061188033120    -0.521156832564     0.725620890438    12.000000000000
         H            1.888256966880     1.248196167436     0.674227890438     1.007825032230
         H            1.344154966880     0.031959167436     1.883526890438     1.007825032230
         H            0.365832966880    -1.360264832564    -1.437482109562     1.007825032230
         H            1.170211966880     0.214122167436    -1.792205109562     1.007825032230
         H           -1.372884033120    -0.033135832564     1.659494890438     1.007825032230
         H           -0.672659033120    -1.522303832564     0.952485890438     1.007825032230
         H           -1.379532033120     1.440521167436    -0.605873109562     1.007825032230
         H           -2.907863033120    -0.970719832564     0.212581890438     1.007825032230

  Basis Set: AUG-CC-PVTZ
    Blend: AUG-CC-PVTZ
  Basis Set: (AUG-CC-PVTZ AUX)
    Blend: AUG-CC-PVTZ-JKFIT
	 Reference Energy          =    -380.7904398401230424 [Eh]
	 Singles Energy            =      -0.0000000000000000 [Eh]
	 Same-Spin Energy          =      -0.3715898428540350 [Eh]
	 Opposite-Spin Energy      =      -1.1768695357498276 [Eh]
	 Correlation Energy        =      -1.5484593786038625 [Eh]
	 Total Energy              =    -382.3388992187269082 [Eh]

	 ================> DF-SCS-MP2 Energies <==================
	-----------------------------------------------------------
	 SCS Same-Spin Scale       =       0.3333333333333333 [-]
	 SCS Opposite-Spin Scale   =       1.2000000000000000 [-]
	 SCS Same-Spin Energy      =      -0.1238632809513450 [Eh]
	 SCS Opposite-Spin Energy  =      -1.4122434428997930 [Eh]
	 SCS Correlation Energy    =      -1.5361067238511379 [Eh]
	 SCS Total Energy          =    -382.3265465639742047 [Eh]
	-----------------------------------------------------------

  Dipole Moment: [D]
     X:    -2.7180      Y:    -0.9391      Z:     1.2903     Total:     3.1519

*** Psi4 exiting successfully. Buy a developer a beer!
