                               Psi4 1.3.2 release

  ==> Input File <==

--------------------------------------------------------------------------
#psi4
#
memory 32 gb

molecule  {
0 1
  O        1.8620410    -0.7430760    -0.0482260
  O       -0.4607810     1.6104540    -0.2729240
  O       -2.1158920    -0.5489690    -0.2415960
  C        0.0351110     0.3306280     0.0450800
  C        1.3621440     0.3258420     0.8009740
  C        0.8265300    -0.4397330    -1.0269400
  C       -1.0393340    -0.5046660     0.7032500
  H        1.8601705     1.1791227     0.6654472
  H        1.3660090     0.0484500     1.8611560
  H        0.3876870    -1.3437740    -1.4598530
  H        1.1920660     0.2306130    -1.8145760
  H       -1.3510300    -0.0166450     1.6371240
  H       -0.6508050    -1.5058130     0.9301150
  H       -1.3576780     1.4570120    -0.6282440
  H       -2.8860090    -0.9542290     0.1902110
units angstrom
no_reorient  #important for SAPT in psi4, default
symmetry c1  #important for SAPT in psi4, default
}

set PROPERTIES_ORIGIN ["COM"]
properties('MP2/aug-cc-pvtz', properties = ['dipole'])
--------------------------------------------------------------------------

    Molecular point group: c1
  Charge       = 0
  Multiplicity = 1
  Basis Set: AUG-CC-PVTZ
    Blend: AUG-CC-PVTZ
  Basis Set: (AUG-CC-PVTZ AUX)
    Blend: AUG-CC-PVTZ-JKFIT

    Orbital Energies [Eh]
    ---------------------

    Doubly Occupied:

       1A    -20.584106     2A    -20.565208     3A    -20.553413
       4A    -11.293209     5A    -11.292504     6A    -11.276333
       7A    -11.269195     8A     -1.399319     9A     -1.374797
      10A     -1.353924    11A     -1.037096    12A     -0.945002
      13A     -0.920081    14A     -0.765561    15A     -0.730642
      16A     -0.709617    17A     -0.676633    18A     -0.658575
      19A     -0.619855    20A     -0.604112    21A     -0.576720
      22A     -0.550966    23A     -0.542835    24A     -0.514092
      25A     -0.475643    26A     -0.471522    27A     -0.435775
      28A     -0.417051

  @DF-RHF Final Energy:  -380.80128838031112

   => Energetics <=

    Nuclear Repulsion Energy =            336.1736279314311560
    One-Electron Energy =               -1188.7222593445490020
    Two-Electron Energy =                 471.7473430328067252
    Total Energy =                       -380.8012883803111208
  Basis Set: (AUG-CC-PVTZ AUX)
    Blend: AUG-CC-PVTZ-RI
    Molecular point group: c1

    Geometry (in Angstrom), charge = 0, multiplicity = 1:

       Center              X                  Y                   Z               Mass
    ------------   -----------------  -----------------  -----------------  -----------------
         O            1.849238368153    -0.750048112174    -0.035342281638    15.994914619570
         O           -0.473583631847     1.603481887826    -0.260040281638    15.994914619570
         O           -2.128694631847    -0.555941112174    -0.228712281638    15.994914619570
         C            0.022308368153     0.323655887826     0.057963718362    12.000000000000
         C            1.349341368153     0.318869887826     0.813857718362    12.000000000000
         C            0.813727368153    -0.446705112174    -1.014056281638    12.000000000000
         C           -1.052136631847    -0.511638112174     0.716133718362    12.000000000000
         H            1.847367868153     1.172150587826     0.678330918362     1.007825032230
         H            1.353206368153     0.041477887826     1.874039718362     1.007825032230
         H            0.374884368153    -1.350746112174    -1.446969281638     1.007825032230
         H            1.179263368153     0.223640887826    -1.801692281638     1.007825032230
         H           -1.363832631847    -0.023617112174     1.650007718362     1.007825032230
         H           -0.663607631847    -1.512785112174     0.942998718362     1.007825032230
         H           -1.370480631847     1.450039887826    -0.615360281638     1.007825032230
         H           -2.898811631847    -0.961201112174     0.203094718362     1.007825032230

  Basis Set: AUG-CC-PVTZ
    Blend: AUG-CC-PVTZ
  Basis Set: (AUG-CC-PVTZ AUX)
    Blend: AUG-CC-PVTZ-JKFIT
	 Reference Energy          =    -380.8012883803111208 [Eh]
	 Singles Energy            =      -0.0000000000000000 [Eh]
	 Same-Spin Energy          =      -0.3696733612524122 [Eh]
	 Opposite-Spin Energy      =      -1.1720019855557666 [Eh]
	 Correlation Energy        =      -1.5416753468081787 [Eh]
	 Total Energy              =    -382.3429637271192973 [Eh]

	 ================> DF-SCS-MP2 Energies <==================
	-----------------------------------------------------------
	 SCS Same-Spin Scale       =       0.3333333333333333 [-]
	 SCS Opposite-Spin Scale   =       1.2000000000000000 [-]
	 SCS Same-Spin Energy      =      -0.1232244537508041 [Eh]
	 SCS Opposite-Spin Energy  =      -1.4064023826669199 [Eh]
	 SCS Correlation Energy    =      -1.5296268364177239 [Eh]
	 SCS Total Energy          =    -382.3309152167288403 [Eh]
	-----------------------------------------------------------

  Dipole Moment: [D]
     X:    -2.5368      Y:    -0.7716      Z:     1.2436     Total:     2.9287

*** Psi4 exiting successfully. Buy a developer a beer!
