                               Psi4 1.3.2 release

  ==> Input File <==

--------------------------------------------------------------------------
#psi4
#
memory 32 gb

molecule  {
0 1
  O        1.8620410    -0.7430760    -0.0482260
  O       -0.4607810     1.6104540    -0.2729240
  O       -2.1158920    -0.5489690    -0.2415960
  C        0.0351110     0.3306280     0.0450800
  C        1.3824412     0.3580560     0.7636649
  C        0.8265300    -0.4397330    -1.0269400
  C       -1.0393340    -0.5046660     0.7032500
  H        1.9101110     1.2646870     0.6518570
  H        1.3660090     0.0484500     1.8611560
  H        0.3876870    -1.3437740    -1.4598530
  H        1.1920660     0.2306130    -1.8145760
  H       -1.3510300    -0.0166450     1.6371240
  H       -0.6508050    -1.5058130     0.9301150
  H       -1.3576780     1.4570120    -0.6282440
  H       -2.8860090    -0.9542290     0.1902110
units angstrom
no_reorient  #important for SAPT in psi4, default
symmetry c1  #important for SAPT in psi4, default
}

set PROPERTIES_ORIGIN ["COM"]
properties('MP2/aug-cc-pvtz', properties = ['dipole'])
--------------------------------------------------------------------------

    Molecular point group: c1
  Charge       = 0
  Multiplicity = 1
  Basis Set: AUG-CC-PVTZ
    Blend: AUG-CC-PVTZ
  Basis Set: (AUG-CC-PVTZ AUX)
    Blend: AUG-CC-PVTZ-JKFIT

    Orbital Energies [Eh]
    ---------------------

    Doubly Occupied:

       1A    -20.585122     2A    -20.564731     3A    -20.555843
       4A    -11.294279     5A    -11.293207     6A    -11.281377
       7A    -11.277241     8A     -1.400494     9A     -1.376865
      10A     -1.354624    11A     -1.036466    12A     -0.936341
      13A     -0.920994    14A     -0.760428    15A     -0.730755
      16A     -0.708093    17A     -0.674419    18A     -0.658645
      19A     -0.620616    20A     -0.601428    21A     -0.575219
      22A     -0.547748    23A     -0.540422    24A     -0.515105
      25A     -0.475830    26A     -0.471111    27A     -0.436536
      28A     -0.415188

  @DF-RHF Final Energy:  -380.80324232411425

   => Energetics <=

    Nuclear Repulsion Energy =            335.7079093871939790
    One-Electron Energy =               -1187.8040466426741659
    Two-Electron Energy =                 471.2928949313659928
    Total Energy =                       -380.8032423241142510
  Basis Set: (AUG-CC-PVTZ AUX)
    Blend: AUG-CC-PVTZ-RI
    Molecular point group: c1

    Geometry (in Angstrom), charge = 0, multiplicity = 1:

       Center              X                  Y                   Z               Mass
    ------------   -----------------  -----------------  -----------------  -----------------
         O            1.846413714737    -0.754592215125    -0.030907706708    15.994914619570
         O           -0.476408285263     1.598937784875    -0.255605706708    15.994914619570
         O           -2.131519285263    -0.560485215125    -0.224277706708    15.994914619570
         C            0.019483714737     0.319111784875     0.062398293292    12.000000000000
         C            1.366813914737     0.346539784875     0.780983193292    12.000000000000
         C            0.810902714737    -0.451249215125    -1.009621706708    12.000000000000
         C           -1.054961285263    -0.516182215125     0.720568293292    12.000000000000
         H            1.894483714737     1.253170784875     0.669175293292     1.007825032230
         H            1.350381714737     0.036933784875     1.878474293292     1.007825032230
         H            0.372059714737    -1.355290215125    -1.442534706708     1.007825032230
         H            1.176438714737     0.219096784875    -1.797257706708     1.007825032230
         H           -1.366657285263    -0.028161215125     1.654442293292     1.007825032230
         H           -0.666432285263    -1.517329215125     0.947433293292     1.007825032230
         H           -1.373305285263     1.445495784875    -0.610925706708     1.007825032230
         H           -2.901636285263    -0.965745215125     0.207529293292     1.007825032230

  Basis Set: AUG-CC-PVTZ
    Blend: AUG-CC-PVTZ
  Basis Set: (AUG-CC-PVTZ AUX)
    Blend: AUG-CC-PVTZ-JKFIT
	 Reference Energy          =    -380.8032423241142510 [Eh]
	 Singles Energy            =      -0.0000000000000000 [Eh]
	 Same-Spin Energy          =      -0.3698791517199129 [Eh]
	 Opposite-Spin Energy      =      -1.1727547037890169 [Eh]
	 Correlation Energy        =      -1.5426338555089298 [Eh]
	 Total Energy              =    -382.3458761796231897 [Eh]

	 ================> DF-SCS-MP2 Energies <==================
	-----------------------------------------------------------
	 SCS Same-Spin Scale       =       0.3333333333333333 [-]
	 SCS Opposite-Spin Scale   =       1.2000000000000000 [-]
	 SCS Same-Spin Energy      =      -0.1232930505733043 [Eh]
	 SCS Opposite-Spin Energy  =      -1.4073056445468202 [Eh]
	 SCS Correlation Energy    =      -1.5305986951201245 [Eh]
	 SCS Total Energy          =    -382.3338410192343986 [Eh]
	-----------------------------------------------------------

  Dipole Moment: [D]
     X:    -2.5420      Y:    -0.7840      Z:     1.1549     Total:     2.9000

*** Psi4 exiting successfully. Buy a developer a beer!
