                               Psi4 1.3.2 release

  ==> Input File <==

--------------------------------------------------------------------------
#psi4
#
memory 32 gb

molecule  {
0 1
  O        1.8620410    -0.7430760    -0.0482260
  O       -0.4607810     1.6104540    -0.2729240
  O       -2.1158920    -0.5489690    -0.2415960
  C        0.1180076     0.3740391     0.0753174
  C        1.3621440     0.3258420     0.8009740
  C        0.8265300    -0.4397330    -1.0269400
  C       -1.0393340    -0.5046660     0.7032500
  H        1.9101110     1.2646870     0.6518570
  H        1.3660090     0.0484500     1.8611560
  H        0.3876870    -1.3437740    -1.4598530
  H        1.1920660     0.2306130    -1.8145760
  H       -1.3510300    -0.0166450     1.6371240
  H       -0.6508050    -1.5058130     0.9301150
  H       -1.3576780     1.4570120    -0.6282440
  H       -2.8860090    -0.9542290     0.1902110
units angstrom
no_reorient  #important for SAPT in psi4, default
symmetry c1  #important for SAPT in psi4, default
}

set PROPERTIES_ORIGIN ["COM"]
properties('MP2/aug-cc-pvtz', properties = ['dipole'])
--------------------------------------------------------------------------

    Molecular point group: c1
  Charge       = 0
  Multiplicity = 1
  Basis Set: AUG-CC-PVTZ
    Blend: AUG-CC-PVTZ
  Basis Set: (AUG-CC-PVTZ AUX)
    Blend: AUG-CC-PVTZ-JKFIT

    Orbital Energies [Eh]
    ---------------------

    Doubly Occupied:

       1A    -20.584182     2A    -20.563087     3A    -20.556335
       4A    -11.295643     5A    -11.294137     6A    -11.279775
       7A    -11.275989     8A     -1.399870     9A     -1.376766
      10A     -1.353255    11A     -1.037302    12A     -0.943394
      13A     -0.917354    14A     -0.760636    15A     -0.725553
      16A     -0.710251    17A     -0.682063    18A     -0.657371
      19A     -0.624992    20A     -0.595926    21A     -0.569946
      22A     -0.550527    23A     -0.540840    24A     -0.508802
      25A     -0.485240    26A     -0.471574    27A     -0.439830
      28A     -0.404932

  @DF-RHF Final Energy:  -380.79681383008875

   => Energetics <=

    Nuclear Repulsion Energy =            335.5950037179640049
    One-Electron Energy =               -1187.5724889619000351
    Two-Electron Energy =                 471.1806714138472785
    Total Energy =                       -380.7968138300887517
  Basis Set: (AUG-CC-PVTZ AUX)
    Blend: AUG-CC-PVTZ-RI
    Molecular point group: c1

    Geometry (in Angstrom), charge = 0, multiplicity = 1:

       Center              X                  Y                   Z               Mass
    ------------   -----------------  -----------------  -----------------  -----------------
         O            1.839193993692    -0.755883600322    -0.038697987247    15.994914619570
         O           -0.483628006308     1.597646399678    -0.263395987247    15.994914619570
         O           -2.138739006308    -0.561776600322    -0.232067987247    15.994914619570
         C            0.095160593692     0.361231499678     0.084845412753    12.000000000000
         C            1.339296993692     0.313034399678     0.810502012753    12.000000000000
         C            0.803682993692    -0.452540600322    -1.017411987247    12.000000000000
         C           -1.062181006308    -0.517473600322     0.712778012753    12.000000000000
         H            1.887263993692     1.251879399678     0.661385012753     1.007825032230
         H            1.343161993692     0.035642399678     1.870684012753     1.007825032230
         H            0.364839993692    -1.356581600322    -1.450324987247     1.007825032230
         H            1.169218993692     0.217805399678    -1.805047987247     1.007825032230
         H           -1.373877006308    -0.029452600322     1.646652012753     1.007825032230
         H           -0.673652006308    -1.518620600322     0.939643012753     1.007825032230
         H           -1.380525006308     1.444204399678    -0.618715987247     1.007825032230
         H           -2.908856006308    -0.967036600322     0.199739012753     1.007825032230

  Basis Set: AUG-CC-PVTZ
    Blend: AUG-CC-PVTZ
  Basis Set: (AUG-CC-PVTZ AUX)
    Blend: AUG-CC-PVTZ-JKFIT
	 Reference Energy          =    -380.7968138300887517 [Eh]
	 Singles Energy            =      -0.0000000000000000 [Eh]
	 Same-Spin Energy          =      -0.3699758200259700 [Eh]
	 Opposite-Spin Energy      =      -1.1726655002479665 [Eh]
	 Correlation Energy        =      -1.5426413202739364 [Eh]
	 Total Energy              =    -382.3394551503627099 [Eh]

	 ================> DF-SCS-MP2 Energies <==================
	-----------------------------------------------------------
	 SCS Same-Spin Scale       =       0.3333333333333333 [-]
	 SCS Opposite-Spin Scale   =       1.2000000000000000 [-]
	 SCS Same-Spin Energy      =      -0.1233252733419900 [Eh]
	 SCS Opposite-Spin Energy  =      -1.4071986002975596 [Eh]
	 SCS Correlation Energy    =      -1.5305238736395497 [Eh]
	 SCS Total Energy          =    -382.3273377037282899 [Eh]
	-----------------------------------------------------------

  Dipole Moment: [D]
     X:    -2.4500      Y:    -0.8068      Z:     1.2117     Total:     2.8498

*** Psi4 exiting successfully. Buy a developer a beer!
