                               Psi4 1.4a3.dev225

  ==> Input File <==

--------------------------------------------------------------------------
#psi4
#
memory 32 gb

molecule  {
0 1
  O        1.8620410    -0.7430760    -0.0482260
  O       -0.4607810     1.6104540    -0.2729240
  O       -2.1158920    -0.5489690    -0.2415960
  C        0.0351110     0.3306280     0.0450800
  C        1.3447656     0.3259047     0.7910751
  C        0.8265300    -0.4397330    -1.0269400
  C       -1.0393340    -0.5046660     0.7032500
  H        1.9101110     1.2646870     0.6518570
  H        1.3660090     0.0484500     1.8611560
  H        0.3876870    -1.3437740    -1.4598530
  H        1.1920660     0.2306130    -1.8145760
  H       -1.3510300    -0.0166450     1.6371240
  H       -0.6508050    -1.5058130     0.9301150
  H       -1.3576780     1.4570120    -0.6282440
  H       -2.8860090    -0.9542290     0.1902110
units angstrom
no_reorient  #important for SAPT in psi4, default
symmetry c1  #important for SAPT in psi4, default
}

set PROPERTIES_ORIGIN ["COM"]
properties('MP2/aug-cc-pvtz', properties = ['dipole'])
--------------------------------------------------------------------------

    Molecular point group: c1
  Charge       = 0
  Multiplicity = 1
  Basis Set: AUG-CC-PVTZ
    Blend: AUG-CC-PVTZ
  Basis Set: (AUG-CC-PVTZ AUX)
    Blend: AUG-CC-PVTZ-JKFIT

    Orbital Energies [Eh]
    ---------------------

    Doubly Occupied:

       1A    -20.584750     2A    -20.565477     3A    -20.555020
       4A    -11.294023     5A    -11.292848     6A    -11.281667
       7A    -11.277166     8A     -1.400471     9A     -1.376006
      10A     -1.354581    11A     -1.039872    12A     -0.936054
      13A     -0.920087    14A     -0.759105    15A     -0.731150
      16A     -0.706702    17A     -0.677487    18A     -0.659230
      19A     -0.621127    20A     -0.597736    21A     -0.570161
      22A     -0.547899    23A     -0.542251    24A     -0.515087
      25A     -0.478330    26A     -0.473869    27A     -0.435871
      28A     -0.415164

  @DF-RHF Final Energy:  -380.80595855782286

   => Energetics <=

    Nuclear Repulsion Energy =            335.9999803525062134
    One-Electron Energy =               -1188.3934949368435809
    Two-Electron Energy =                 471.5875560265145054
    Total Energy =                       -380.8059585578228621
  Basis Set: (AUG-CC-PVTZ AUX)
    Blend: AUG-CC-PVTZ-RI
    Molecular point group: c1

    Geometry (in Angstrom), charge = 0, multiplicity = 1:

       Center              X                  Y                   Z               Mass
    ------------   -----------------  -----------------  -----------------  -----------------
         O            1.850758921276    -0.750884137775    -0.034068982979    15.994914619570
         O           -0.472063078724     1.602645862225    -0.258766982979    15.994914619570
         O           -2.127174078724    -0.556777137775    -0.227438982979    15.994914619570
         C            0.023828921276     0.322819862225     0.059237017021    12.000000000000
         C            1.333483521276     0.318096562225     0.805232117021    12.000000000000
         C            0.815247921276    -0.447541137775    -1.012782982979    12.000000000000
         C           -1.050616078724    -0.512474137775     0.717407017021    12.000000000000
         H            1.898828921276     1.256878862225     0.666014017021     1.007825032230
         H            1.354726921276     0.040641862225     1.875313017021     1.007825032230
         H            0.376404921276    -1.351582137775    -1.445695982979     1.007825032230
         H            1.180783921276     0.222804862225    -1.800418982979     1.007825032230
         H           -1.362312078724    -0.024453137775     1.651281017021     1.007825032230
         H           -0.662087078724    -1.513621137775     0.944272017021     1.007825032230
         H           -1.368960078724     1.449203862225    -0.614086982979     1.007825032230
         H           -2.897291078724    -0.962037137775     0.204368017021     1.007825032230

  Basis Set: AUG-CC-PVTZ
    Blend: AUG-CC-PVTZ
  Basis Set: (AUG-CC-PVTZ AUX)
    Blend: AUG-CC-PVTZ-JKFIT
	 Reference Energy          =    -380.8059585578228621 [Eh]
	 Singles Energy            =      -0.0000000000000000 [Eh]
	 Same-Spin Energy          =      -0.3699974351837974 [Eh]
	 Opposite-Spin Energy      =      -1.1728296497979049 [Eh]
	 Correlation Energy        =      -1.5428270849817023 [Eh]
	 Total Energy              =    -382.3487856428045575 [Eh]

	 ================> DF-SCS-MP2 Energies <==================
	-----------------------------------------------------------
	 SCS Same-Spin Scale       =       0.3333333333333333 [-]
	 SCS Opposite-Spin Scale   =       1.2000000000000000 [-]
	 SCS Same-Spin Energy      =      -0.1233324783945991 [Eh]
	 SCS Opposite-Spin Energy  =      -1.4073955797574860 [Eh]
	 SCS Correlation Energy    =      -1.5307280581520850 [Eh]
	 SCS Total Energy          =    -382.3366866159749407 [Eh]
	-----------------------------------------------------------

  Dipole Moment: [D]
     X:    -2.5720      Y:    -0.8282      Z:     1.2112     Total:     2.9611

*** Psi4 exiting successfully. Buy a developer a beer!
