                               Psi4 1.4a3.dev225

  ==> Input File <==

--------------------------------------------------------------------------
#psi4
#
memory 32 gb

molecule  {
0 1
  O        1.8620410    -0.7430760    -0.0482260
  O       -0.4607810     1.6104540    -0.2729240
  O       -2.1158920    -0.5489690    -0.2415960
  C        0.0351110     0.3306280     0.0450800
  C        1.3621440     0.3258420     0.8009740
  C        0.8265300    -0.4397330    -1.0269400
  C       -1.0243094    -0.5040477     0.7164364
  H        1.9101110     1.2646870     0.6518570
  H        1.3660090     0.0484500     1.8611560
  H        0.3876870    -1.3437740    -1.4598530
  H        1.1920660     0.2306130    -1.8145760
  H       -1.3510300    -0.0166450     1.6371240
  H       -0.6508050    -1.5058130     0.9301150
  H       -1.3576780     1.4570120    -0.6282440
  H       -2.8860090    -0.9542290     0.1902110
units angstrom
no_reorient  #important for SAPT in psi4, default
symmetry c1  #important for SAPT in psi4, default
}

set PROPERTIES_ORIGIN ["COM"]
properties('MP2/aug-cc-pvtz', properties = ['dipole'])
--------------------------------------------------------------------------

    Molecular point group: c1
  Charge       = 0
  Multiplicity = 1
  Basis Set: AUG-CC-PVTZ
    Blend: AUG-CC-PVTZ
  Basis Set: (AUG-CC-PVTZ AUX)
    Blend: AUG-CC-PVTZ-JKFIT

    Orbital Energies [Eh]
    ---------------------

    Doubly Occupied:

       1A    -20.582335     2A    -20.565540     3A    -20.555303
       4A    -11.294168     5A    -11.293355     6A    -11.281231
       7A    -11.277323     8A     -1.397749     9A     -1.371530
      10A     -1.352772    11A     -1.039039    12A     -0.937290
      13A     -0.919408    14A     -0.760599    15A     -0.728637
      16A     -0.704583    17A     -0.676511    18A     -0.658711
      19A     -0.619552    20A     -0.596935    21A     -0.570045
      22A     -0.548631    23A     -0.543180    24A     -0.515749
      25A     -0.477818    26A     -0.472737    27A     -0.435521
      28A     -0.416836

  @DF-RHF Final Energy:  -380.80599647104464

   => Energetics <=

    Nuclear Repulsion Energy =            335.5432925309907546
    One-Electron Energy =               -1187.5124021097376499
    Two-Electron Energy =                 471.1631131077022019
    Total Energy =                       -380.8059964710446366
  Basis Set: (AUG-CC-PVTZ AUX)
    Blend: AUG-CC-PVTZ-RI
    Molecular point group: c1

    Geometry (in Angstrom), charge = 0, multiplicity = 1:

       Center              X                  Y                   Z               Mass
    ------------   -----------------  -----------------  -----------------  -----------------
         O            1.847021814833    -0.750948216297    -0.036731459396    15.994914619570
         O           -0.475800185167     1.602581783703    -0.261429459396    15.994914619570
         O           -2.130911185167    -0.556841216297    -0.230101459396    15.994914619570
         C            0.020091814833     0.322755783703     0.056574540604    12.000000000000
         C            1.347124814833     0.317969783703     0.812468540604    12.000000000000
         C            0.811510814833    -0.447605216297    -1.015445459396    12.000000000000
         C           -1.039328585167    -0.511919916297     0.727930940604    12.000000000000
         H            1.895091814833     1.256814783703     0.663351540604     1.007825032230
         H            1.350989814833     0.040577783703     1.872650540604     1.007825032230
         H            0.372667814833    -1.351646216297    -1.448358459396     1.007825032230
         H            1.177046814833     0.222740783703    -1.803081459396     1.007825032230
         H           -1.366049185167    -0.024517216297     1.648618540604     1.007825032230
         H           -0.665824185167    -1.513685216297     0.941609540604     1.007825032230
         H           -1.372697185167     1.449139783703    -0.616749459396     1.007825032230
         H           -2.901028185167    -0.962101216297     0.201705540604     1.007825032230

  Basis Set: AUG-CC-PVTZ
    Blend: AUG-CC-PVTZ
  Basis Set: (AUG-CC-PVTZ AUX)
    Blend: AUG-CC-PVTZ-JKFIT
	 Reference Energy          =    -380.8059964710446366 [Eh]
	 Singles Energy            =      -0.0000000000000000 [Eh]
	 Same-Spin Energy          =      -0.3698934559971561 [Eh]
	 Opposite-Spin Energy      =      -1.1730410431032823 [Eh]
	 Correlation Energy        =      -1.5429344991004383 [Eh]
	 Total Energy              =    -382.3489309701450907 [Eh]

	 ================> DF-SCS-MP2 Energies <==================
	-----------------------------------------------------------
	 SCS Same-Spin Scale       =       0.3333333333333333 [-]
	 SCS Opposite-Spin Scale   =       1.2000000000000000 [-]
	 SCS Same-Spin Energy      =      -0.1232978186657187 [Eh]
	 SCS Opposite-Spin Energy  =      -1.4076492517239387 [Eh]
	 SCS Correlation Energy    =      -1.5309470703896575 [Eh]
	 SCS Total Energy          =    -382.3369435414342661 [Eh]
	-----------------------------------------------------------

  Dipole Moment: [D]
     X:    -2.5005      Y:    -0.8160      Z:     1.2661     Total:     2.9192

*** Psi4 exiting successfully. Buy a developer a beer!
