                               Psi4 1.3.2 release

  ==> Input File <==

--------------------------------------------------------------------------
#psi4
#
memory 32 gb

molecule  {
0 1
  O        1.8620410    -0.7430760    -0.0482260
  O       -0.4607810     1.6104540    -0.2729240
  O       -2.1158920    -0.5489690    -0.2415960
  C        0.0351110     0.3306280     0.0450800
  C        1.3621440     0.3258420     0.8009740
  C        0.8265300    -0.4397330    -1.0269400
  C       -0.9642112    -0.5015745     0.7691819
  H        1.9101110     1.2646870     0.6518570
  H        1.3660090     0.0484500     1.8611560
  H        0.3876870    -1.3437740    -1.4598530
  H        1.1920660     0.2306130    -1.8145760
  H       -1.3510300    -0.0166450     1.6371240
  H       -0.6508050    -1.5058130     0.9301150
  H       -1.3576780     1.4570120    -0.6282440
  H       -2.8860090    -0.9542290     0.1902110
units angstrom
no_reorient  #important for SAPT in psi4, default
symmetry c1  #important for SAPT in psi4, default
}

set PROPERTIES_ORIGIN ["COM"]
properties('MP2/aug-cc-pvtz', properties = ['dipole'])
--------------------------------------------------------------------------

    Molecular point group: c1
  Charge       = 0
  Multiplicity = 1
  Basis Set: AUG-CC-PVTZ
    Blend: AUG-CC-PVTZ
  Basis Set: (AUG-CC-PVTZ AUX)
    Blend: AUG-CC-PVTZ-JKFIT

    Orbital Energies [Eh]
    ---------------------

    Doubly Occupied:

       1A    -20.572946     2A    -20.567092     3A    -20.556852
       4A    -11.295993     5A    -11.294773     6A    -11.282162
       7A    -11.279477     8A     -1.395899     9A     -1.363725
      10A     -1.337546    11A     -1.047060    12A     -0.938983
      13A     -0.922973    14A     -0.764006    15A     -0.724300
      16A     -0.700488    17A     -0.674280    18A     -0.659565
      19A     -0.616917    20A     -0.593413    21A     -0.567490
      22A     -0.548791    23A     -0.536370    24A     -0.519512
      25A     -0.481826    26A     -0.472844    27A     -0.437842
      28A     -0.419724

  @DF-RHF Final Energy:  -380.79716888704763

   => Energetics <=

    Nuclear Repulsion Energy =            335.1843530014548378
    One-Electron Energy =               -1186.8173461239871358
    Two-Electron Energy =                 470.8358242354846652
    Total Energy =                       -380.7971688870476328
  Basis Set: (AUG-CC-PVTZ AUX)
    Blend: AUG-CC-PVTZ-RI
    Molecular point group: c1

    Geometry (in Angstrom), charge = 0, multiplicity = 1:

       Center              X                  Y                   Z               Mass
    ------------   -----------------  -----------------  -----------------  -----------------
         O            1.840090562468    -0.751233455678    -0.042814709338    15.994914619570
         O           -0.482731437532     1.602296544322    -0.267512709338    15.994914619570
         O           -2.137842437532    -0.557126455678    -0.236184709338    15.994914619570
         C            0.013160562468     0.322470544322     0.050491290662    12.000000000000
         C            1.340193562468     0.317684544322     0.806385290662    12.000000000000
         C            0.804579562468    -0.447890455678    -1.021528709338    12.000000000000
         C           -0.986161637532    -0.509731955678     0.774593190662    12.000000000000
         H            1.888160562468     1.256529544322     0.657268290662     1.007825032230
         H            1.344058562468     0.040292544322     1.866567290662     1.007825032230
         H            0.365736562468    -1.351931455678    -1.454441709338     1.007825032230
         H            1.170115562468     0.222455544322    -1.809164709338     1.007825032230
         H           -1.372980437532    -0.024802455678     1.642535290662     1.007825032230
         H           -0.672755437532    -1.513970455678     0.935526290662     1.007825032230
         H           -1.379628437532     1.448854544322    -0.622832709338     1.007825032230
         H           -2.907959437532    -0.962386455678     0.195622290662     1.007825032230

  Basis Set: AUG-CC-PVTZ
    Blend: AUG-CC-PVTZ
  Basis Set: (AUG-CC-PVTZ AUX)
    Blend: AUG-CC-PVTZ-JKFIT
	 Reference Energy          =    -380.7971688870476328 [Eh]
	 Singles Energy            =      -0.0000000000000000 [Eh]
	 Same-Spin Energy          =      -0.3703740922344533 [Eh]
	 Opposite-Spin Energy      =      -1.1748134611961909 [Eh]
	 Correlation Energy        =      -1.5451875534306443 [Eh]
	 Total Energy              =    -382.3423564404782837 [Eh]

	 ================> DF-SCS-MP2 Energies <==================
	-----------------------------------------------------------
	 SCS Same-Spin Scale       =       0.3333333333333333 [-]
	 SCS Opposite-Spin Scale   =       1.2000000000000000 [-]
	 SCS Same-Spin Energy      =      -0.1234580307448178 [Eh]
	 SCS Opposite-Spin Energy  =      -1.4097761534354289 [Eh]
	 SCS Correlation Energy    =      -1.5332341841802468 [Eh]
	 SCS Total Energy          =    -382.3304030712278632 [Eh]
	-----------------------------------------------------------

  Dipole Moment: [D]
     X:    -2.2618      Y:    -0.7873      Z:     1.4033     Total:     2.7758

*** Psi4 exiting successfully. Buy a developer a beer!
