                               Psi4 1.3.2 release

  ==> Input File <==

--------------------------------------------------------------------------
#psi4
#
memory 32 gb

molecule  {
0 1
  O        1.8620410    -0.7430760    -0.0482260
  O       -0.4607810     1.6104540    -0.2729240
  O       -2.1158920    -0.5489690    -0.2415960
  C        0.0351110     0.3306280     0.0450800
  C        1.4043416     0.2722790     0.7190371
  C        0.8265300    -0.4397330    -1.0269400
  C       -1.0393340    -0.5046660     0.7032500
  H        1.9101110     1.2646870     0.6518570
  H        1.3660090     0.0484500     1.8611560
  H        0.3876870    -1.3437740    -1.4598530
  H        1.1920660     0.2306130    -1.8145760
  H       -1.3510300    -0.0166450     1.6371240
  H       -0.6508050    -1.5058130     0.9301150
  H       -1.3576780     1.4570120    -0.6282440
  H       -2.8860090    -0.9542290     0.1902110
units angstrom
no_reorient  #important for SAPT in psi4, default
symmetry c1  #important for SAPT in psi4, default
}

set PROPERTIES_ORIGIN ["COM"]
properties('MP2/aug-cc-pvtz', properties = ['dipole'])
--------------------------------------------------------------------------

    Molecular point group: c1
  Charge       = 0
  Multiplicity = 1
  Basis Set: AUG-CC-PVTZ
    Blend: AUG-CC-PVTZ
  Basis Set: (AUG-CC-PVTZ AUX)
    Blend: AUG-CC-PVTZ-JKFIT

    Orbital Energies [Eh]
    ---------------------

    Doubly Occupied:

       1A    -20.584609     2A    -20.565732     3A    -20.562697
       4A    -11.293690     5A    -11.290820     6A    -11.284498
       7A    -11.283233     8A     -1.424835     9A     -1.388084
      10A     -1.357922    11A     -1.039595    12A     -0.939313
      13A     -0.918659    14A     -0.754298    15A     -0.730823
      16A     -0.712461    17A     -0.682196    18A     -0.661601
      19A     -0.633004    20A     -0.609144    21A     -0.573915
      22A     -0.552554    23A     -0.542375    24A     -0.521663
      25A     -0.475475    26A     -0.467804    27A     -0.427697
      28A     -0.412538

  @DF-RHF Final Energy:  -380.79756230857379

   => Energetics <=

    Nuclear Repulsion Energy =            336.9686950500151852
    One-Electron Energy =               -1190.1500458354555576
    Two-Electron Energy =                 472.3837884768665845
    Total Energy =                       -380.7975623085737880
  Basis Set: (AUG-CC-PVTZ AUX)
    Blend: AUG-CC-PVTZ-RI
    Molecular point group: c1

    Geometry (in Angstrom), charge = 0, multiplicity = 1:

       Center              X                  Y                   Z               Mass
    ------------   -----------------  -----------------  -----------------  -----------------
         O            1.843887895340    -0.744699372508    -0.025760688256    15.994914619570
         O           -0.478934104660     1.608830627492    -0.250458688256    15.994914619570
         O           -2.134045104660    -0.550592372508    -0.219130688256    15.994914619570
         C            0.016957895340     0.329004627492     0.067545311744    12.000000000000
         C            1.386188495340     0.270655627492     0.741502411744    12.000000000000
         C            0.808376895340    -0.441356372508    -1.004474688256    12.000000000000
         C           -1.057487104660    -0.506289372508     0.725715311744    12.000000000000
         H            1.891957895340     1.263063627492     0.674322311744     1.007825032230
         H            1.347855895340     0.046826627492     1.883621311744     1.007825032230
         H            0.369533895340    -1.345397372508    -1.437387688256     1.007825032230
         H            1.173912895340     0.228989627492    -1.792110688256     1.007825032230
         H           -1.369183104660    -0.018268372508     1.659589311744     1.007825032230
         H           -0.668958104660    -1.507436372508     0.952580311744     1.007825032230
         H           -1.375831104660     1.455388627492    -0.605778688256     1.007825032230
         H           -2.904162104660    -0.955852372508     0.212676311744     1.007825032230

  Basis Set: AUG-CC-PVTZ
    Blend: AUG-CC-PVTZ
  Basis Set: (AUG-CC-PVTZ AUX)
    Blend: AUG-CC-PVTZ-JKFIT
	 Reference Energy          =    -380.7975623085737880 [Eh]
	 Singles Energy            =      -0.0000000000000000 [Eh]
	 Same-Spin Energy          =      -0.3699768607000161 [Eh]
	 Opposite-Spin Energy      =      -1.1712918878838887 [Eh]
	 Correlation Energy        =      -1.5412687485839047 [Eh]
	 Total Energy              =    -382.3388310571576767 [Eh]

	 ================> DF-SCS-MP2 Energies <==================
	-----------------------------------------------------------
	 SCS Same-Spin Scale       =       0.3333333333333333 [-]
	 SCS Opposite-Spin Scale   =       1.2000000000000000 [-]
	 SCS Same-Spin Energy      =      -0.1233256202333387 [Eh]
	 SCS Opposite-Spin Energy  =      -1.4055502654606664 [Eh]
	 SCS Correlation Energy    =      -1.5288758856940050 [Eh]
	 SCS Total Energy          =    -382.3264381942677801 [Eh]
	-----------------------------------------------------------

  Dipole Moment: [D]
     X:    -2.5246      Y:    -0.9963      Z:     0.9258     Total:     2.8676

*** Psi4 exiting successfully. Buy a developer a beer!
