                               Psi4 1.3.2 release

  ==> Input File <==

--------------------------------------------------------------------------
#psi4
#
memory 32 gb

molecule  {
0 1
  O        1.8620410    -0.7430760    -0.0482260
  O       -0.4607810     1.6104540    -0.2729240
  O       -2.1158920    -0.5489690    -0.2415960
  C        0.0351110     0.3306280     0.0450800
  C        1.3621440     0.3258420     0.8009740
  C        0.8265300    -0.4397330    -1.0269400
  C       -1.0393340    -0.5046660     0.7032500
  H        1.9064254     1.2636625     0.6330928
  H        1.3660090     0.0484500     1.8611560
  H        0.3876870    -1.3437740    -1.4598530
  H        1.1920660     0.2306130    -1.8145760
  H       -1.3510300    -0.0166450     1.6371240
  H       -0.6508050    -1.5058130     0.9301150
  H       -1.3576780     1.4570120    -0.6282440
  H       -2.8860090    -0.9542290     0.1902110
units angstrom
no_reorient  #important for SAPT in psi4, default
symmetry c1  #important for SAPT in psi4, default
}

set PROPERTIES_ORIGIN ["COM"]
properties('MP2/aug-cc-pvtz', properties = ['dipole'])
--------------------------------------------------------------------------

    Molecular point group: c1
  Charge       = 0
  Multiplicity = 1
  Basis Set: AUG-CC-PVTZ
    Blend: AUG-CC-PVTZ
  Basis Set: (AUG-CC-PVTZ AUX)
    Blend: AUG-CC-PVTZ-JKFIT

    Orbital Energies [Eh]
    ---------------------

    Doubly Occupied:

       1A    -20.584538     2A    -20.565206     3A    -20.554709
       4A    -11.293841     5A    -11.293159     6A    -11.281087
       7A    -11.276763     8A     -1.399594     9A     -1.375306
      10A     -1.354189    11A     -1.037058    12A     -0.936805
      13A     -0.918628    14A     -0.759467    15A     -0.730854
      16A     -0.705608    17A     -0.677254    18A     -0.658978
      19A     -0.620251    20A     -0.598793    21A     -0.570936
      22A     -0.549988    23A     -0.542846    24A     -0.514517
      25A     -0.476166    26A     -0.472070    27A     -0.434516
      28A     -0.416056

  @DF-RHF Final Energy:  -380.80660317760669

   => Energetics <=

    Nuclear Repulsion Energy =            335.6677886126120711
    One-Electron Energy =               -1187.7504169857415945
    Two-Electron Energy =                 471.2760251955228341
    Total Energy =                       -380.8066031776066893
  Basis Set: (AUG-CC-PVTZ AUX)
    Blend: AUG-CC-PVTZ-RI
    Molecular point group: c1

    Geometry (in Angstrom), charge = 0, multiplicity = 1:

       Center              X                  Y                   Z               Mass
    ------------   -----------------  -----------------  -----------------  -----------------
         O            1.848790333208    -0.750866982924    -0.035028889936    15.994914619570
         O           -0.474031666792     1.602663017076    -0.259726889936    15.994914619570
         O           -2.129142666792    -0.556759982924    -0.228398889936    15.994914619570
         C            0.021860333208     0.322837017076     0.058277110064    12.000000000000
         C            1.348893333208     0.318051017076     0.814171110064    12.000000000000
         C            0.813279333208    -0.447523982924    -1.013742889936    12.000000000000
         C           -1.052584666792    -0.512456982924     0.716447110064    12.000000000000
         H            1.893174733208     1.255871517076     0.646289910064     1.007825032230
         H            1.352758333208     0.040659017076     1.874353110064     1.007825032230
         H            0.374436333208    -1.351564982924    -1.446655889936     1.007825032230
         H            1.178815333208     0.222822017076    -1.801378889936     1.007825032230
         H           -1.364280666792    -0.024435982924     1.650321110064     1.007825032230
         H           -0.664055666792    -1.513603982924     0.943312110064     1.007825032230
         H           -1.370928666792     1.449221017076    -0.615046889936     1.007825032230
         H           -2.899259666792    -0.962019982924     0.203408110064     1.007825032230

  Basis Set: AUG-CC-PVTZ
    Blend: AUG-CC-PVTZ
  Basis Set: (AUG-CC-PVTZ AUX)
    Blend: AUG-CC-PVTZ-JKFIT
	 Reference Energy          =    -380.8066031776066893 [Eh]
	 Singles Energy            =      -0.0000000000000000 [Eh]
	 Same-Spin Energy          =      -0.3698510772642796 [Eh]
	 Opposite-Spin Energy      =      -1.1727195550657497 [Eh]
	 Correlation Energy        =      -1.5425706323300292 [Eh]
	 Total Energy              =    -382.3491738099367012 [Eh]

	 ================> DF-SCS-MP2 Energies <==================
	-----------------------------------------------------------
	 SCS Same-Spin Scale       =       0.3333333333333333 [-]
	 SCS Opposite-Spin Scale   =       1.2000000000000000 [-]
	 SCS Same-Spin Energy      =      -0.1232836924214265 [Eh]
	 SCS Opposite-Spin Energy  =      -1.4072634660788996 [Eh]
	 SCS Correlation Energy    =      -1.5305471585003261 [Eh]
	 SCS Total Energy          =    -382.3371503361070154 [Eh]
	-----------------------------------------------------------

  Dipole Moment: [D]
     X:    -2.5637      Y:    -0.8231      Z:     1.2259     Total:     2.9585

*** Psi4 exiting successfully. Buy a developer a beer!
