                               Psi4 1.3.2 release

  ==> Input File <==

--------------------------------------------------------------------------
#psi4
#
memory 32 gb

molecule  {
0 1
  O        1.8620410    -0.7430760    -0.0482260
  O       -0.4607810     1.6104540    -0.2729240
  O       -2.1158920    -0.5489690    -0.2415960
  C        0.0351110     0.3306280     0.0450800
  C        1.3621440     0.3258420     0.8009740
  C        0.8265300    -0.4397330    -1.0269400
  C       -1.0393340    -0.5046660     0.7032500
  H        1.9286839     1.2648234     0.7651953
  H        1.3660090     0.0484500     1.8611560
  H        0.3876870    -1.3437740    -1.4598530
  H        1.1920660     0.2306130    -1.8145760
  H       -1.3510300    -0.0166450     1.6371240
  H       -0.6508050    -1.5058130     0.9301150
  H       -1.3576780     1.4570120    -0.6282440
  H       -2.8860090    -0.9542290     0.1902110
units angstrom
no_reorient  #important for SAPT in psi4, default
symmetry c1  #important for SAPT in psi4, default
}

set PROPERTIES_ORIGIN ["COM"]
properties('MP2/aug-cc-pvtz', properties = ['dipole'])
--------------------------------------------------------------------------

    Molecular point group: c1
  Charge       = 0
  Multiplicity = 1
  Basis Set: AUG-CC-PVTZ
    Blend: AUG-CC-PVTZ
  Basis Set: (AUG-CC-PVTZ AUX)
    Blend: AUG-CC-PVTZ-JKFIT

    Orbital Energies [Eh]
    ---------------------

    Doubly Occupied:

       1A    -20.584738     2A    -20.565050     3A    -20.556385
       4A    -11.294758     5A    -11.293714     6A    -11.280961
       7A    -11.277132     8A     -1.399661     9A     -1.375579
      10A     -1.354259    11A     -1.037197    12A     -0.937873
      13A     -0.918131    14A     -0.762365    15A     -0.731117
      16A     -0.705676    17A     -0.676413    18A     -0.658862
      19A     -0.620330    20A     -0.597678    21A     -0.571461
      22A     -0.546158    23A     -0.543550    24A     -0.515027
      25A     -0.476357    26A     -0.472012    27A     -0.437353
      28A     -0.414813

  @DF-RHF Final Energy:  -380.80526020327181

   => Energetics <=

    Nuclear Repulsion Energy =            335.4817076605688158
    One-Electron Energy =               -1187.3647155910887250
    Two-Electron Energy =                 471.0777477272480382
    Total Energy =                       -380.8052602032718141
  Basis Set: (AUG-CC-PVTZ AUX)
    Blend: AUG-CC-PVTZ-RI
    Molecular point group: c1

    Geometry (in Angstrom), charge = 0, multiplicity = 1:

       Center              X                  Y                   Z               Mass
    ------------   -----------------  -----------------  -----------------  -----------------
         O            1.848574732573    -0.750878227652    -0.036308463264    15.994914619570
         O           -0.474247267427     1.602651772348    -0.261006463264    15.994914619570
         O           -2.129358267427    -0.556771227652    -0.229678463264    15.994914619570
         C            0.021644732573     0.322825772348     0.056997536736    12.000000000000
         C            1.348677732573     0.318039772348     0.812891536736    12.000000000000
         C            0.813063732573    -0.447535227652    -1.015022463264    12.000000000000
         C           -1.052800267427    -0.512468227652     0.715167536736    12.000000000000
         H            1.915217632573     1.257021172348     0.777112836736     1.007825032230
         H            1.352542732573     0.040647772348     1.873073536736     1.007825032230
         H            0.374220732573    -1.351576227652    -1.447935463264     1.007825032230
         H            1.178599732573     0.222810772348    -1.802658463264     1.007825032230
         H           -1.364496267427    -0.024447227652     1.649041536736     1.007825032230
         H           -0.664271267427    -1.513615227652     0.942032536736     1.007825032230
         H           -1.371144267427     1.449209772348    -0.616326463264     1.007825032230
         H           -2.899475267427    -0.962031227652     0.202128536736     1.007825032230

  Basis Set: AUG-CC-PVTZ
    Blend: AUG-CC-PVTZ
  Basis Set: (AUG-CC-PVTZ AUX)
    Blend: AUG-CC-PVTZ-JKFIT
	 Reference Energy          =    -380.8052602032718141 [Eh]
	 Singles Energy            =      -0.0000000000000000 [Eh]
	 Same-Spin Energy          =      -0.3697689318060485 [Eh]
	 Opposite-Spin Energy      =      -1.1726231901690793 [Eh]
	 Correlation Energy        =      -1.5423921219751278 [Eh]
	 Total Energy              =    -382.3476523252469406 [Eh]

	 ================> DF-SCS-MP2 Energies <==================
	-----------------------------------------------------------
	 SCS Same-Spin Scale       =       0.3333333333333333 [-]
	 SCS Opposite-Spin Scale   =       1.2000000000000000 [-]
	 SCS Same-Spin Energy      =      -0.1232563106020162 [Eh]
	 SCS Opposite-Spin Energy  =      -1.4071478282028951 [Eh]
	 SCS Correlation Energy    =      -1.5304041388049112 [Eh]
	 SCS Total Energy          =    -382.3356643420767114 [Eh]
	-----------------------------------------------------------

  Dipole Moment: [D]
     X:    -2.5482      Y:    -0.8167      Z:     1.2409     Total:     2.9496

*** Psi4 exiting successfully. Buy a developer a beer!
