                               Psi4 1.4a3.dev225

  ==> Input File <==

--------------------------------------------------------------------------
#psi4
#
memory 32 gb

molecule  {
0 1
  O        1.8620410    -0.7430760    -0.0482260
  O       -0.4607810     1.6104540    -0.2729240
  O       -2.1158920    -0.5489690    -0.2415960
  C        0.0351110     0.3306280     0.0450800
  C        1.3621440     0.3258420     0.8009740
  C        0.8265300    -0.4397330    -1.0269400
  C       -1.0037971    -0.4770390     0.6814813
  H        1.9101110     1.2646870     0.6518570
  H        1.3660090     0.0484500     1.8611560
  H        0.3876870    -1.3437740    -1.4598530
  H        1.1920660     0.2306130    -1.8145760
  H       -1.3510300    -0.0166450     1.6371240
  H       -0.6508050    -1.5058130     0.9301150
  H       -1.3576780     1.4570120    -0.6282440
  H       -2.8860090    -0.9542290     0.1902110
units angstrom
no_reorient  #important for SAPT in psi4, default
symmetry c1  #important for SAPT in psi4, default
}

set PROPERTIES_ORIGIN ["COM"]
properties('MP2/aug-cc-pvtz', properties = ['dipole'])
--------------------------------------------------------------------------

    Molecular point group: c1
  Charge       = 0
  Multiplicity = 1
  Basis Set: AUG-CC-PVTZ
    Blend: AUG-CC-PVTZ
  Basis Set: (AUG-CC-PVTZ AUX)
    Blend: AUG-CC-PVTZ-JKFIT

    Orbital Energies [Eh]
    ---------------------

    Doubly Occupied:

       1A    -20.581514     2A    -20.565600     3A    -20.555964
       4A    -11.295456     5A    -11.292316     6A    -11.282794
       7A    -11.277876     8A     -1.399792     9A     -1.372472
      10A     -1.353393    11A     -1.046405    12A     -0.938515
      13A     -0.918380    14A     -0.761730    15A     -0.729085
      16A     -0.707392    17A     -0.679673    18A     -0.655774
      19A     -0.620313    20A     -0.597888    21A     -0.570164
      22A     -0.548965    23A     -0.541290    24A     -0.518158
      25A     -0.477158    26A     -0.469725    27A     -0.435504
      28A     -0.419161

  @DF-RHF Final Energy:  -380.80369899073395

   => Energetics <=

    Nuclear Repulsion Energy =            336.3852304818996686
    One-Electron Energy =               -1189.1529485017535990
    Two-Electron Energy =                 471.9640190291199247
    Total Energy =                       -380.8036989907339489
  Basis Set: (AUG-CC-PVTZ AUX)
    Blend: AUG-CC-PVTZ-RI
    Molecular point group: c1

    Geometry (in Angstrom), charge = 0, multiplicity = 1:

       Center              X                  Y                   Z               Mass
    ------------   -----------------  -----------------  -----------------  -----------------
         O            1.844656087942    -0.754063186725    -0.032700013869    15.994914619570
         O           -0.478165912058     1.599466813275    -0.257398013869    15.994914619570
         O           -2.133276912058    -0.559956186725    -0.226070013869    15.994914619570
         C            0.017726087942     0.319640813275     0.060605986131    12.000000000000
         C            1.344759087942     0.314854813275     0.816499986131    12.000000000000
         C            0.809145087942    -0.450720186725    -1.011414013869    12.000000000000
         C           -1.021182012058    -0.488026186725     0.697007286131    12.000000000000
         H            1.892726087942     1.253699813275     0.667382986131     1.007825032230
         H            1.348624087942     0.037462813275     1.876681986131     1.007825032230
         H            0.370302087942    -1.354761186725    -1.444327013869     1.007825032230
         H            1.174681087942     0.219625813275    -1.799050013869     1.007825032230
         H           -1.368414912058    -0.027632186725     1.652649986131     1.007825032230
         H           -0.668189912058    -1.516800186725     0.945640986131     1.007825032230
         H           -1.375062912058     1.446024813275    -0.612718013869     1.007825032230
         H           -2.903393912058    -0.965216186725     0.205736986131     1.007825032230

  Basis Set: AUG-CC-PVTZ
    Blend: AUG-CC-PVTZ
  Basis Set: (AUG-CC-PVTZ AUX)
    Blend: AUG-CC-PVTZ-JKFIT
	 Reference Energy          =    -380.8036989907339489 [Eh]
	 Singles Energy            =      -0.0000000000000000 [Eh]
	 Same-Spin Energy          =      -0.3701793953258746 [Eh]
	 Opposite-Spin Energy      =      -1.1731522697573880 [Eh]
	 Correlation Energy        =      -1.5433316650832625 [Eh]
	 Total Energy              =    -382.3470306558172069 [Eh]

	 ================> DF-SCS-MP2 Energies <==================
	-----------------------------------------------------------
	 SCS Same-Spin Scale       =       0.3333333333333333 [-]
	 SCS Opposite-Spin Scale   =       1.2000000000000000 [-]
	 SCS Same-Spin Energy      =      -0.1233931317752915 [Eh]
	 SCS Opposite-Spin Energy  =      -1.4077827237088656 [Eh]
	 SCS Correlation Energy    =      -1.5311758554841570 [Eh]
	 SCS Total Energy          =    -382.3348748462180993 [Eh]
	-----------------------------------------------------------

  Dipole Moment: [D]
     X:    -2.4613      Y:    -0.8062      Z:     1.2355     Total:     2.8696

*** Psi4 exiting successfully. Buy a developer a beer!
