                               Psi4 1.3.2 release

  ==> Input File <==

--------------------------------------------------------------------------
#psi4
#
memory 32 gb

molecule  {
0 1
  O        1.8620410    -0.7430760    -0.0482260
  O       -0.4607810     1.6104540    -0.2729240
  O       -2.1158920    -0.5489690    -0.2415960
  C        0.1584232     0.3980180     0.0898088
  C        1.3621440     0.3258420     0.8009740
  C        0.8265300    -0.4397330    -1.0269400
  C       -1.0393340    -0.5046660     0.7032500
  H        1.9101110     1.2646870     0.6518570
  H        1.3660090     0.0484500     1.8611560
  H        0.3876870    -1.3437740    -1.4598530
  H        1.1920660     0.2306130    -1.8145760
  H       -1.3510300    -0.0166450     1.6371240
  H       -0.6508050    -1.5058130     0.9301150
  H       -1.3576780     1.4570120    -0.6282440
  H       -2.8860090    -0.9542290     0.1902110
units angstrom
no_reorient  #important for SAPT in psi4, default
symmetry c1  #important for SAPT in psi4, default
}

set PROPERTIES_ORIGIN ["COM"]
properties('MP2/aug-cc-pvtz', properties = ['dipole'])
--------------------------------------------------------------------------

    Molecular point group: c1
  Charge       = 0
  Multiplicity = 1
  Basis Set: AUG-CC-PVTZ
    Blend: AUG-CC-PVTZ
  Basis Set: (AUG-CC-PVTZ AUX)
    Blend: AUG-CC-PVTZ-JKFIT

    Orbital Energies [Eh]
    ---------------------

    Doubly Occupied:

       1A    -20.583855     2A    -20.562367     3A    -20.557180
       4A    -11.297358     5A    -11.294135     6A    -11.279028
       7A    -11.276132     8A     -1.400916     9A     -1.376970
      10A     -1.352870    11A     -1.040720    12A     -0.945852
      13A     -0.915509    14A     -0.761417    15A     -0.723927
      16A     -0.712158    17A     -0.685072    18A     -0.655784
      19A     -0.628233    20A     -0.594721    21A     -0.569378
      22A     -0.551177    23A     -0.540270    24A     -0.513186
      25A     -0.483081    26A     -0.469774    27A     -0.440867
      28A     -0.397415

  @DF-RHF Final Energy:  -380.78320603831992

   => Energetics <=

    Nuclear Repulsion Energy =            335.5618936210447032
    One-Electron Energy =               -1187.4714932012425379
    Two-Electron Energy =                 471.1263935418779738
    Total Energy =                       -380.7832060383199178
  Basis Set: (AUG-CC-PVTZ AUX)
    Blend: AUG-CC-PVTZ-RI
    Molecular point group: c1

    Geometry (in Angstrom), charge = 0, multiplicity = 1:

       Center              X                  Y                   Z               Mass
    ------------   -----------------  -----------------  -----------------  -----------------
         O            1.834532777165    -0.758649137515    -0.040369311022    15.994914619570
         O           -0.488289222835     1.594880862485    -0.265067311022    15.994914619570
         O           -2.143400222835    -0.564542137515    -0.233739311022    15.994914619570
         C            0.130914977165     0.382444862485     0.097665488978    12.000000000000
         C            1.334635777165     0.310268862485     0.808830688978    12.000000000000
         C            0.799021777165    -0.455306137515    -1.019083311022    12.000000000000
         C           -1.066842222835    -0.520239137515     0.711106688978    12.000000000000
         H            1.882602777165     1.249113862485     0.659713688978     1.007825032230
         H            1.338500777165     0.032876862485     1.869012688978     1.007825032230
         H            0.360178777165    -1.359347137515    -1.451996311022     1.007825032230
         H            1.164557777165     0.215039862485    -1.806719311022     1.007825032230
         H           -1.378538222835    -0.032218137515     1.644980688978     1.007825032230
         H           -0.678313222835    -1.521386137515     0.937971688978     1.007825032230
         H           -1.385186222835     1.441438862485    -0.620387311022     1.007825032230
         H           -2.913517222835    -0.969802137515     0.198067688978     1.007825032230

  Basis Set: AUG-CC-PVTZ
    Blend: AUG-CC-PVTZ
  Basis Set: (AUG-CC-PVTZ AUX)
    Blend: AUG-CC-PVTZ-JKFIT
	 Reference Energy          =    -380.7832060383199178 [Eh]
	 Singles Energy            =      -0.0000000000000000 [Eh]
	 Same-Spin Energy          =      -0.3704370975322480 [Eh]
	 Opposite-Spin Energy      =      -1.1733519247873159 [Eh]
	 Correlation Energy        =      -1.5437890223195638 [Eh]
	 Total Energy              =    -382.3269950606394900 [Eh]

	 ================> DF-SCS-MP2 Energies <==================
	-----------------------------------------------------------
	 SCS Same-Spin Scale       =       0.3333333333333333 [-]
	 SCS Opposite-Spin Scale   =       1.2000000000000000 [-]
	 SCS Same-Spin Energy      =      -0.1234790325107493 [Eh]
	 SCS Opposite-Spin Energy  =      -1.4080223097447790 [Eh]
	 SCS Correlation Energy    =      -1.5315013422555284 [Eh]
	 SCS Total Energy          =    -382.3147073805754417 [Eh]
	-----------------------------------------------------------

  Dipole Moment: [D]
     X:    -2.3923      Y:    -0.7913      Z:     1.2006     Total:     2.7912

*** Psi4 exiting successfully. Buy a developer a beer!
