                               Psi4 1.3.2 release

  ==> Input File <==

--------------------------------------------------------------------------
#psi4
#
memory 32 gb

molecule  {
0 1
  O        1.8620410    -0.7430760    -0.0482260
  O       -0.4607810     1.6104540    -0.2729240
  O       -2.1418076    -0.5771693    -0.2094214
  C        0.0351110     0.3306280     0.0450800
  C        1.3621440     0.3258420     0.8009740
  C        0.8265300    -0.4397330    -1.0269400
  C       -1.0393340    -0.5046660     0.7032500
  H        1.9101110     1.2646870     0.6518570
  H        1.3660090     0.0484500     1.8611560
  H        0.3876870    -1.3437740    -1.4598530
  H        1.1920660     0.2306130    -1.8145760
  H       -1.3510300    -0.0166450     1.6371240
  H       -0.6508050    -1.5058130     0.9301150
  H       -1.3576780     1.4570120    -0.6282440
  H       -2.8860090    -0.9542290     0.1902110
units angstrom
no_reorient  #important for SAPT in psi4, default
symmetry c1  #important for SAPT in psi4, default
}

set PROPERTIES_ORIGIN ["COM"]
properties('MP2/aug-cc-pvtz', properties = ['dipole'])
--------------------------------------------------------------------------

    Molecular point group: c1
  Charge       = 0
  Multiplicity = 1
  Basis Set: AUG-CC-PVTZ
    Blend: AUG-CC-PVTZ
  Basis Set: (AUG-CC-PVTZ AUX)
    Blend: AUG-CC-PVTZ-JKFIT

    Orbital Energies [Eh]
    ---------------------

    Doubly Occupied:

       1A    -20.577930     2A    -20.566458     3A    -20.555690
       4A    -11.295257     5A    -11.294141     6A    -11.282278
       7A    -11.277520     8A     -1.402040     9A     -1.380010
      10A     -1.356751    11A     -1.039577    12A     -0.937855
      13A     -0.922346    14A     -0.761000    15A     -0.734409
      16A     -0.709537    17A     -0.680046    18A     -0.659131
      19A     -0.623341    20A     -0.599986    21A     -0.571181
      22A     -0.550050    23A     -0.542323    24A     -0.515068
      25A     -0.476883    26A     -0.472316    27A     -0.435707
      28A     -0.416890

  @DF-RHF Final Energy:  -380.80777483292258

   => Energetics <=

    Nuclear Repulsion Energy =            335.3121600952374592
    One-Electron Energy =               -1186.9684285574542173
    Two-Electron Energy =                 470.8484936292941825
    Total Energy =                       -380.8077748329225756
  Basis Set: (AUG-CC-PVTZ AUX)
    Blend: AUG-CC-PVTZ-RI
    Molecular point group: c1

    Geometry (in Angstrom), charge = 0, multiplicity = 1:

       Center              X                  Y                   Z               Mass
    ------------   -----------------  -----------------  -----------------  -----------------
         O            1.852738568244    -0.746541751196    -0.040156757590    15.994914619570
         O           -0.470083431756     1.606988248804    -0.264854757590    15.994914619570
         O           -2.151110031756    -0.580635051196    -0.201352157590    15.994914619570
         C            0.025808568244     0.327162248804     0.053149242410    12.000000000000
         C            1.352841568244     0.322376248804     0.809043242410    12.000000000000
         C            0.817227568244    -0.443198751196    -1.018870757590    12.000000000000
         C           -1.048636431756    -0.508131751196     0.711319242410    12.000000000000
         H            1.900808568244     1.261221248804     0.659926242410     1.007825032230
         H            1.356706568244     0.044984248804     1.869225242410     1.007825032230
         H            0.378384568244    -1.347239751196    -1.451783757590     1.007825032230
         H            1.182763568244     0.227147248804    -1.806506757590     1.007825032230
         H           -1.360332431756    -0.020110751196     1.645193242410     1.007825032230
         H           -0.660107431756    -1.509278751196     0.938184242410     1.007825032230
         H           -1.366980431756     1.453546248804    -0.620174757590     1.007825032230
         H           -2.895311431756    -0.957694751196     0.198280242410     1.007825032230

  Basis Set: AUG-CC-PVTZ
    Blend: AUG-CC-PVTZ
  Basis Set: (AUG-CC-PVTZ AUX)
    Blend: AUG-CC-PVTZ-JKFIT
	 Reference Energy          =    -380.8077748329225756 [Eh]
	 Singles Energy            =      -0.0000000000000000 [Eh]
	 Same-Spin Energy          =      -0.3690386775607173 [Eh]
	 Opposite-Spin Energy      =      -1.1708991807720319 [Eh]
	 Correlation Energy        =      -1.5399378583327492 [Eh]
	 Total Energy              =    -382.3477126912553103 [Eh]

	 ================> DF-SCS-MP2 Energies <==================
	-----------------------------------------------------------
	 SCS Same-Spin Scale       =       0.3333333333333333 [-]
	 SCS Opposite-Spin Scale   =       1.2000000000000000 [-]
	 SCS Same-Spin Energy      =      -0.1230128925202391 [Eh]
	 SCS Opposite-Spin Energy  =      -1.4050790169264382 [Eh]
	 SCS Correlation Energy    =      -1.5280919094466774 [Eh]
	 SCS Total Energy          =    -382.3358667423692623 [Eh]
	-----------------------------------------------------------

  Dipole Moment: [D]
     X:    -2.4752      Y:    -0.7575      Z:     1.1930     Total:     2.8502

*** Psi4 exiting successfully. Buy a developer a beer!
