                               Psi4 1.3.2 release

  ==> Input File <==

--------------------------------------------------------------------------
#psi4
#
memory 32 gb

molecule  {
0 1
  O        1.8620410    -0.7430760    -0.0482260
  O       -0.4607810     1.6104540    -0.2729240
  O       -2.1158920    -0.5489690    -0.2415960
  C        0.0351110     0.3306280     0.0450800
  C        1.4352731     0.3024998     0.8673415
  C        0.8265300    -0.4397330    -1.0269400
  C       -1.0393340    -0.5046660     0.7032500
  H        1.9101110     1.2646870     0.6518570
  H        1.3660090     0.0484500     1.8611560
  H        0.3876870    -1.3437740    -1.4598530
  H        1.1920660     0.2306130    -1.8145760
  H       -1.3510300    -0.0166450     1.6371240
  H       -0.6508050    -1.5058130     0.9301150
  H       -1.3576780     1.4570120    -0.6282440
  H       -2.8860090    -0.9542290     0.1902110
units angstrom
no_reorient  #important for SAPT in psi4, default
symmetry c1  #important for SAPT in psi4, default
}

set PROPERTIES_ORIGIN ["COM"]
properties('MP2/aug-cc-pvtz', properties = ['dipole'])
--------------------------------------------------------------------------

    Molecular point group: c1
  Charge       = 0
  Multiplicity = 1
  Basis Set: AUG-CC-PVTZ
    Blend: AUG-CC-PVTZ
  Basis Set: (AUG-CC-PVTZ AUX)
    Blend: AUG-CC-PVTZ-JKFIT

    Orbital Energies [Eh]
    ---------------------

    Doubly Occupied:

       1A    -20.583449     2A    -20.564352     3A    -20.554719
       4A    -11.296600     5A    -11.291980     6A    -11.279848
       7A    -11.275972     8A     -1.396000     9A     -1.371704
      10A     -1.352489    11A     -1.026783    12A     -0.942440
      13A     -0.910850    14A     -0.763865    15A     -0.729878
      16A     -0.699694    17A     -0.678044    18A     -0.658255
      19A     -0.617121    20A     -0.601913    21A     -0.571663
      22A     -0.562721    23A     -0.542859    24A     -0.512771
      25A     -0.473900    26A     -0.458594    27A     -0.428432
      28A     -0.413532

  @DF-RHF Final Energy:  -380.79738634940406

   => Energetics <=

    Nuclear Repulsion Energy =            333.9457599470030118
    One-Electron Energy =               -1184.3654383861669430
    Two-Electron Energy =                 469.6222920897598669
    Total Energy =                       -380.7973863494040643
  Basis Set: (AUG-CC-PVTZ AUX)
    Blend: AUG-CC-PVTZ-RI
    Molecular point group: c1

    Geometry (in Angstrom), charge = 0, multiplicity = 1:

       Center              X                  Y                   Z               Mass
    ------------   -----------------  -----------------  -----------------  -----------------
         O            1.840320500101    -0.748184801215    -0.042864948006    15.994914619570
         O           -0.482501499899     1.605345198785    -0.267562948006    15.994914619570
         O           -2.137612499899    -0.554077801215    -0.236234948006    15.994914619570
         C            0.013390500101     0.325519198785     0.050441051994    12.000000000000
         C            1.413552600101     0.297390998785     0.872702551994    12.000000000000
         C            0.804809500101    -0.444841801215    -1.021578948006    12.000000000000
         C           -1.061054499899    -0.509774801215     0.708611051994    12.000000000000
         H            1.888390500101     1.259578198785     0.657218051994     1.007825032230
         H            1.344288500101     0.043341198785     1.866517051994     1.007825032230
         H            0.365966500101    -1.348882801215    -1.454491948006     1.007825032230
         H            1.170345500101     0.225504198785    -1.809214948006     1.007825032230
         H           -1.372750499899    -0.021753801215     1.642485051994     1.007825032230
         H           -0.672525499899    -1.510921801215     0.935476051994     1.007825032230
         H           -1.379398499899     1.451903198785    -0.622882948006     1.007825032230
         H           -2.907729499899    -0.959337801215     0.195572051994     1.007825032230

  Basis Set: AUG-CC-PVTZ
    Blend: AUG-CC-PVTZ
  Basis Set: (AUG-CC-PVTZ AUX)
    Blend: AUG-CC-PVTZ-JKFIT
	 Reference Energy          =    -380.7973863494040643 [Eh]
	 Singles Energy            =      -0.0000000000000000 [Eh]
	 Same-Spin Energy          =      -0.3695509040323563 [Eh]
	 Opposite-Spin Energy      =      -1.1729975493627380 [Eh]
	 Correlation Energy        =      -1.5425484533950944 [Eh]
	 Total Energy              =    -382.3399348027991778 [Eh]

	 ================> DF-SCS-MP2 Energies <==================
	-----------------------------------------------------------
	 SCS Same-Spin Scale       =       0.3333333333333333 [-]
	 SCS Opposite-Spin Scale   =       1.2000000000000000 [-]
	 SCS Same-Spin Energy      =      -0.1231836346774521 [Eh]
	 SCS Opposite-Spin Energy  =      -1.4075970592352856 [Eh]
	 SCS Correlation Energy    =      -1.5307806939127377 [Eh]
	 SCS Total Energy          =    -382.3281670433167960 [Eh]
	-----------------------------------------------------------

  Dipole Moment: [D]
     X:    -2.5313      Y:    -0.8263      Z:     1.3064     Total:     2.9660

*** Psi4 exiting successfully. Buy a developer a beer!
