                               Psi4 1.3.2 release

  ==> Input File <==

--------------------------------------------------------------------------
#psi4
#
memory 32 gb

molecule  {
0 1
  O        1.7731141    -0.7410474    -0.0970650
  O       -0.4607810     1.6104540    -0.2729240
  O       -2.1158920    -0.5489690    -0.2415960
  C        0.0351110     0.3306280     0.0450800
  C        1.3621440     0.3258420     0.8009740
  C        0.8265300    -0.4397330    -1.0269400
  C       -1.0393340    -0.5046660     0.7032500
  H        1.9101110     1.2646870     0.6518570
  H        1.3660090     0.0484500     1.8611560
  H        0.3876870    -1.3437740    -1.4598530
  H        1.1920660     0.2306130    -1.8145760
  H       -1.3510300    -0.0166450     1.6371240
  H       -0.6508050    -1.5058130     0.9301150
  H       -1.3576780     1.4570120    -0.6282440
  H       -2.8860090    -0.9542290     0.1902110
units angstrom
no_reorient  #important for SAPT in psi4, default
symmetry c1  #important for SAPT in psi4, default
}

set PROPERTIES_ORIGIN ["COM"]
properties('MP2/aug-cc-pvtz', properties = ['dipole'])
--------------------------------------------------------------------------

    Molecular point group: c1
  Charge       = 0
  Multiplicity = 1
  Basis Set: AUG-CC-PVTZ
    Blend: AUG-CC-PVTZ
  Basis Set: (AUG-CC-PVTZ AUX)
    Blend: AUG-CC-PVTZ-JKFIT

    Orbital Energies [Eh]
    ---------------------

    Doubly Occupied:

       1A    -20.582954     2A    -20.561456     3A    -20.553950
       4A    -11.292291     5A    -11.290354     6A    -11.284076
       7A    -11.265945     8A     -1.418710     9A     -1.384773
      10A     -1.354836    11A     -1.033068    12A     -0.946970
      13A     -0.912652    14A     -0.758238    15A     -0.729915
      16A     -0.710320    17A     -0.684298    18A     -0.660138
      19A     -0.631082    20A     -0.602626    21A     -0.573883
      22A     -0.553254    23A     -0.543409    24A     -0.510250
      25A     -0.476928    26A     -0.472517    27A     -0.432688
      28A     -0.407409

  @DF-RHF Final Energy:  -380.80366957030600

   => Energetics <=

    Nuclear Repulsion Energy =            338.1283186746211413
    One-Electron Energy =               -1192.6060009117838945
    Two-Electron Energy =                 473.6740126668567541
    Total Energy =                       -380.8036695703059991
  Basis Set: (AUG-CC-PVTZ AUX)
    Blend: AUG-CC-PVTZ-RI
    Molecular point group: c1

    Geometry (in Angstrom), charge = 0, multiplicity = 1:

       Center              X                  Y                   Z               Mass
    ------------   -----------------  -----------------  -----------------  -----------------
         O            1.773498223649    -0.749160157601    -0.076541757673    15.994914619570
         O           -0.460396876351     1.602341242399    -0.252400757673    15.994914619570
         O           -2.115507876351    -0.557081757601    -0.221072757673    15.994914619570
         C            0.035495123649     0.322515242399     0.065603242327    12.000000000000
         C            1.362528123649     0.317729242399     0.821497242327    12.000000000000
         C            0.826914123649    -0.447845757601    -1.006416757673    12.000000000000
         C           -1.038949876351    -0.512778757601     0.723773242327    12.000000000000
         H            1.910495123649     1.256574242399     0.672380242327     1.007825032230
         H            1.366393123649     0.040337242399     1.881679242327     1.007825032230
         H            0.388071123649    -1.351886757601    -1.439329757673     1.007825032230
         H            1.192450123649     0.222500242399    -1.794052757673     1.007825032230
         H           -1.350645876351    -0.024757757601     1.657647242327     1.007825032230
         H           -0.650420876351    -1.513925757601     0.950638242327     1.007825032230
         H           -1.357293876351     1.448899242399    -0.607720757673     1.007825032230
         H           -2.885624876351    -0.962341757601     0.210734242327     1.007825032230

  Basis Set: AUG-CC-PVTZ
    Blend: AUG-CC-PVTZ
  Basis Set: (AUG-CC-PVTZ AUX)
    Blend: AUG-CC-PVTZ-JKFIT
	 Reference Energy          =    -380.8036695703059991 [Eh]
	 Singles Energy            =      -0.0000000000000000 [Eh]
	 Same-Spin Energy          =      -0.3694360183141224 [Eh]
	 Opposite-Spin Energy      =      -1.1704155220981907 [Eh]
	 Correlation Energy        =      -1.5398515404123130 [Eh]
	 Total Energy              =    -382.3435211107183136 [Eh]

	 ================> DF-SCS-MP2 Energies <==================
	-----------------------------------------------------------
	 SCS Same-Spin Scale       =       0.3333333333333333 [-]
	 SCS Opposite-Spin Scale   =       1.2000000000000000 [-]
	 SCS Same-Spin Energy      =      -0.1231453394380408 [Eh]
	 SCS Opposite-Spin Energy  =      -1.4044986265178288 [Eh]
	 SCS Correlation Energy    =      -1.5276439659558696 [Eh]
	 SCS Total Energy          =    -382.3313135362618596 [Eh]
	-----------------------------------------------------------

  Dipole Moment: [D]
     X:    -2.2893      Y:    -0.8589      Z:     1.4711     Total:     2.8535

*** Psi4 exiting successfully. Buy a developer a beer!
