                               Psi4 1.3.2 release

  ==> Input File <==

--------------------------------------------------------------------------
#psi4
#
memory 32 gb

molecule  {
0 1
  O        1.7278723    -0.7380823    -0.1198578
  O       -0.4607810     1.6104540    -0.2729240
  O       -2.1158920    -0.5489690    -0.2415960
  C        0.0351110     0.3306280     0.0450800
  C        1.3621440     0.3258420     0.8009740
  C        0.8265300    -0.4397330    -1.0269400
  C       -1.0393340    -0.5046660     0.7032500
  H        1.9101110     1.2646870     0.6518570
  H        1.3660090     0.0484500     1.8611560
  H        0.3876870    -1.3437740    -1.4598530
  H        1.1920660     0.2306130    -1.8145760
  H       -1.3510300    -0.0166450     1.6371240
  H       -0.6508050    -1.5058130     0.9301150
  H       -1.3576780     1.4570120    -0.6282440
  H       -2.8860090    -0.9542290     0.1902110
units angstrom
no_reorient  #important for SAPT in psi4, default
symmetry c1  #important for SAPT in psi4, default
}

set PROPERTIES_ORIGIN ["COM"]
properties('MP2/aug-cc-pvtz', properties = ['dipole'])
--------------------------------------------------------------------------

    Molecular point group: c1
  Charge       = 0
  Multiplicity = 1
  Basis Set: AUG-CC-PVTZ
    Blend: AUG-CC-PVTZ
  Basis Set: (AUG-CC-PVTZ AUX)
    Blend: AUG-CC-PVTZ-JKFIT

    Orbital Energies [Eh]
    ---------------------

    Doubly Occupied:

       1A    -20.582174     2A    -20.559489     3A    -20.553205
       4A    -11.291680     5A    -11.288881     6A    -11.285759
       7A    -11.260815     8A     -1.436452     9A     -1.385519
      10A     -1.354017    11A     -1.032096    12A     -0.952725
      13A     -0.909193    14A     -0.758238    15A     -0.729612
      16A     -0.713340    17A     -0.689696    18A     -0.660548
      19A     -0.638683    20A     -0.604519    21A     -0.575279
      22A     -0.555643    23A     -0.543103    24A     -0.507520
      25A     -0.477063    26A     -0.471875    27A     -0.430834
      28A     -0.401632

  @DF-RHF Final Energy:  -380.79535600862812

   => Energetics <=

    Nuclear Repulsion Energy =            339.4754829119793840
    One-Electron Energy =               -1195.2425010973918234
    Two-Electron Energy =                 474.9716621767843208
    Total Energy =                       -380.7953560086281186
  Basis Set: (AUG-CC-PVTZ AUX)
    Blend: AUG-CC-PVTZ-RI
    Molecular point group: c1

    Geometry (in Angstrom), charge = 0, multiplicity = 1:

       Center              X                  Y                   Z               Mass
    ------------   -----------------  -----------------  -----------------  -----------------
         O            1.735211322252    -0.746650874342    -0.095830682653    15.994914619570
         O           -0.453441977748     1.601885425658    -0.248896882653    15.994914619570
         O           -2.108552977748    -0.557537574342    -0.217568882653    15.994914619570
         C            0.042450022252     0.322059425658     0.069107117347    12.000000000000
         C            1.369483022252     0.317273425658     0.825001117347    12.000000000000
         C            0.833869022252    -0.448301574342    -1.002912882653    12.000000000000
         C           -1.031994977748    -0.513234574342     0.727277117347    12.000000000000
         H            1.917450022252     1.256118425658     0.675884117347     1.007825032230
         H            1.373348022252     0.039881425658     1.885183117347     1.007825032230
         H            0.395026022252    -1.352342574342    -1.435825882653     1.007825032230
         H            1.199405022252     0.222044425658    -1.790548882653     1.007825032230
         H           -1.343690977748    -0.025213574342     1.661151117347     1.007825032230
         H           -0.643465977748    -1.514381574342     0.954142117347     1.007825032230
         H           -1.350338977748     1.448443425658    -0.604216882653     1.007825032230
         H           -2.878669977748    -0.962797574342     0.214238117347     1.007825032230

  Basis Set: AUG-CC-PVTZ
    Blend: AUG-CC-PVTZ
  Basis Set: (AUG-CC-PVTZ AUX)
    Blend: AUG-CC-PVTZ-JKFIT
	 Reference Energy          =    -380.7953560086281186 [Eh]
	 Singles Energy            =      -0.0000000000000000 [Eh]
	 Same-Spin Energy          =      -0.3694256570998948 [Eh]
	 Opposite-Spin Energy      =      -1.1696215142716426 [Eh]
	 Correlation Energy        =      -1.5390471713715375 [Eh]
	 Total Energy              =    -382.3344031799996401 [Eh]

	 ================> DF-SCS-MP2 Energies <==================
	-----------------------------------------------------------
	 SCS Same-Spin Scale       =       0.3333333333333333 [-]
	 SCS Opposite-Spin Scale   =       1.2000000000000000 [-]
	 SCS Same-Spin Energy      =      -0.1231418856999649 [Eh]
	 SCS Opposite-Spin Energy  =      -1.4035458171259712 [Eh]
	 SCS Correlation Energy    =      -1.5266877028259360 [Eh]
	 SCS Total Energy          =    -382.3220437114540573 [Eh]
	-----------------------------------------------------------

  Dipole Moment: [D]
     X:    -2.1474      Y:    -0.8863      Z:     1.6034     Total:     2.8227

*** Psi4 exiting successfully. Buy a developer a beer!
