                               Psi4 1.3.2 release

  ==> Input File <==

--------------------------------------------------------------------------
#psi4
#
memory 32 gb

molecule  {
0 1
  O        1.8620410    -0.7430760    -0.0482260
  O       -0.4607810     1.6104540    -0.2729240
  O       -2.1895793    -0.6332708    -0.1417768
  C        0.0351110     0.3306280     0.0450800
  C        1.3621440     0.3258420     0.8009740
  C        0.8265300    -0.4397330    -1.0269400
  C       -1.0393340    -0.5046660     0.7032500
  H        1.9101110     1.2646870     0.6518570
  H        1.3660090     0.0484500     1.8611560
  H        0.3876870    -1.3437740    -1.4598530
  H        1.1920660     0.2306130    -1.8145760
  H       -1.3510300    -0.0166450     1.6371240
  H       -0.6508050    -1.5058130     0.9301150
  H       -1.3576780     1.4570120    -0.6282440
  H       -2.8860090    -0.9542290     0.1902110
units angstrom
no_reorient  #important for SAPT in psi4, default
symmetry c1  #important for SAPT in psi4, default
}

set PROPERTIES_ORIGIN ["COM"]
properties('MP2/aug-cc-pvtz', properties = ['dipole'])
--------------------------------------------------------------------------

    Molecular point group: c1
  Charge       = 0
  Multiplicity = 1
  Basis Set: AUG-CC-PVTZ
    Blend: AUG-CC-PVTZ
  Basis Set: (AUG-CC-PVTZ AUX)
    Blend: AUG-CC-PVTZ-JKFIT

    Orbital Energies [Eh]
    ---------------------

    Doubly Occupied:

       1A    -20.569004     2A    -20.563388     3A    -20.557245
       4A    -11.298532     5A    -11.296457     6A    -11.284761
       7A    -11.279036     8A     -1.412556     9A     -1.388991
      10A     -1.360498    11A     -1.045460    12A     -0.940124
      13A     -0.931695    14A     -0.766267    15A     -0.742790
      16A     -0.715159    17A     -0.684538    18A     -0.659851
      19A     -0.628364    20A     -0.602729    21A     -0.571212
      22A     -0.551950    23A     -0.540405    24A     -0.514430
      25A     -0.479873    26A     -0.471261    27A     -0.437294
      28A     -0.418678

  @DF-RHF Final Energy:  -380.79004054447302

   => Energetics <=

    Nuclear Repulsion Energy =            334.7864996670694495
    One-Electron Energy =               -1185.7279794929747823
    Two-Electron Energy =                 470.1514392814323742
    Total Energy =                       -380.7900405444730154
  Basis Set: (AUG-CC-PVTZ AUX)
    Blend: AUG-CC-PVTZ-RI
    Molecular point group: c1

    Geometry (in Angstrom), charge = 0, multiplicity = 1:

       Center              X                  Y                   Z               Mass
    ------------   -----------------  -----------------  -----------------  -----------------
         O            1.860082381478    -0.737917420511    -0.050555577576    15.994914619570
         O           -0.462739618522     1.615612579489    -0.275253577576    15.994914619570
         O           -2.191537918522    -0.628112220511    -0.144106377576    15.994914619570
         C            0.033152381478     0.335786579489     0.042750422424    12.000000000000
         C            1.360185381478     0.331000579489     0.798644422424    12.000000000000
         C            0.824571381478    -0.434574420511    -1.029269577576    12.000000000000
         C           -1.041292618522    -0.499507420511     0.700920422424    12.000000000000
         H            1.908152381478     1.269845579489     0.649527422424     1.007825032230
         H            1.364050381478     0.053608579489     1.858826422424     1.007825032230
         H            0.385728381478    -1.338615420511    -1.462182577576     1.007825032230
         H            1.190107381478     0.235771579489    -1.816905577576     1.007825032230
         H           -1.352988618522    -0.011486420511     1.634794422424     1.007825032230
         H           -0.652763618522    -1.500654420511     0.927785422424     1.007825032230
         H           -1.359636618522     1.462170579489    -0.630573577576     1.007825032230
         H           -2.887967618522    -0.949070420511     0.187881422424     1.007825032230

  Basis Set: AUG-CC-PVTZ
    Blend: AUG-CC-PVTZ
  Basis Set: (AUG-CC-PVTZ AUX)
    Blend: AUG-CC-PVTZ-JKFIT
	 Reference Energy          =    -380.7900405444730154 [Eh]
	 Singles Energy            =      -0.0000000000000000 [Eh]
	 Same-Spin Energy          =      -0.3676945608793438 [Eh]
	 Opposite-Spin Energy      =      -1.1679759793958560 [Eh]
	 Correlation Energy        =      -1.5356705402751998 [Eh]
	 Total Energy              =    -382.3257110847482068 [Eh]

	 ================> DF-SCS-MP2 Energies <==================
	-----------------------------------------------------------
	 SCS Same-Spin Scale       =       0.3333333333333333 [-]
	 SCS Opposite-Spin Scale   =       1.2000000000000000 [-]
	 SCS Same-Spin Energy      =      -0.1225648536264479 [Eh]
	 SCS Opposite-Spin Energy  =      -1.4015711752750271 [Eh]
	 SCS Correlation Energy    =      -1.5241360289014749 [Eh]
	 SCS Total Energy          =    -382.3141765733744819 [Eh]
	-----------------------------------------------------------

  Dipole Moment: [D]
     X:    -2.2891      Y:    -0.6178      Z:     1.1157     Total:     2.6204

*** Psi4 exiting successfully. Buy a developer a beer!
