                               Psi4 1.3.2 release

  ==> Input File <==

--------------------------------------------------------------------------
#psi4
#
memory 32 gb

molecule  {
0 1
  O        1.8792139    -0.7270801    -0.0578724
  O       -0.4607810     1.6104540    -0.2729240
  O       -2.1158920    -0.5489690    -0.2415960
  C        0.0351110     0.3306280     0.0450800
  C        1.3621440     0.3258420     0.8009740
  C        0.8265300    -0.4397330    -1.0269400
  C       -1.0393340    -0.5046660     0.7032500
  H        1.9101110     1.2646870     0.6518570
  H        1.3660090     0.0484500     1.8611560
  H        0.3876870    -1.3437740    -1.4598530
  H        1.1920660     0.2306130    -1.8145760
  H       -1.3510300    -0.0166450     1.6371240
  H       -0.6508050    -1.5058130     0.9301150
  H       -1.3576780     1.4570120    -0.6282440
  H       -2.8860090    -0.9542290     0.1902110
units angstrom
no_reorient  #important for SAPT in psi4, default
symmetry c1  #important for SAPT in psi4, default
}

set PROPERTIES_ORIGIN ["COM"]
properties('MP2/aug-cc-pvtz', properties = ['dipole'])
--------------------------------------------------------------------------

    Molecular point group: c1
  Charge       = 0
  Multiplicity = 1
  Basis Set: AUG-CC-PVTZ
    Blend: AUG-CC-PVTZ
  Basis Set: (AUG-CC-PVTZ AUX)
    Blend: AUG-CC-PVTZ-JKFIT

    Orbital Energies [Eh]
    ---------------------

    Doubly Occupied:

       1A    -20.584851     2A    -20.565498     3A    -20.554484
       4A    -11.294223     5A    -11.293547     6A    -11.280908
       7A    -11.277019     8A     -1.399394     9A     -1.374861
      10A     -1.354085    11A     -1.037690    12A     -0.936600
      13A     -0.918562    14A     -0.759787    15A     -0.731197
      16A     -0.705454    17A     -0.677164    18A     -0.659002
      19A     -0.619920    20A     -0.598614    21A     -0.569944
      22A     -0.551331    23A     -0.542719    24A     -0.515186
      25A     -0.476405    26A     -0.471321    27A     -0.434574
      28A     -0.416160

  @DF-RHF Final Energy:  -380.80663902268282

   => Energetics <=

    Nuclear Repulsion Energy =            335.4664258012908817
    One-Electron Energy =               -1187.3451275373631688
    Two-Electron Energy =                 471.0720627133895277
    Total Energy =                       -380.8066390226828162
  Basis Set: (AUG-CC-PVTZ AUX)
    Blend: AUG-CC-PVTZ-RI
    Molecular point group: c1

    Geometry (in Angstrom), charge = 0, multiplicity = 1:

       Center              X                  Y                   Z               Mass
    ------------   -----------------  -----------------  -----------------  -----------------
         O            1.863287590581    -0.737340012560    -0.043374129248    15.994914619570
         O           -0.476707309419     1.600194087440    -0.258425729248    15.994914619570
         O           -2.131818309419    -0.559228912560    -0.227097729248    15.994914619570
         C            0.019184690581     0.320368087440     0.059578270752    12.000000000000
         C            1.346217690581     0.315582087440     0.815472270752    12.000000000000
         C            0.810603690581    -0.449992912560    -1.012441729248    12.000000000000
         C           -1.055260309419    -0.514925912560     0.717748270752    12.000000000000
         H            1.894184690581     1.254427087440     0.666355270752     1.007825032230
         H            1.350082690581     0.038190087440     1.875654270752     1.007825032230
         H            0.371760690581    -1.354033912560    -1.445354729248     1.007825032230
         H            1.176139690581     0.220353087440    -1.800077729248     1.007825032230
         H           -1.366956309419    -0.026904912560     1.651622270752     1.007825032230
         H           -0.666731309419    -1.516072912560     0.944613270752     1.007825032230
         H           -1.373604309419     1.446752087440    -0.613745729248     1.007825032230
         H           -2.901935309419    -0.964488912560     0.204709270752     1.007825032230

  Basis Set: AUG-CC-PVTZ
    Blend: AUG-CC-PVTZ
  Basis Set: (AUG-CC-PVTZ AUX)
    Blend: AUG-CC-PVTZ-JKFIT
	 Reference Energy          =    -380.8066390226828162 [Eh]
	 Singles Energy            =      -0.0000000000000000 [Eh]
	 Same-Spin Energy          =      -0.3697868637898708 [Eh]
	 Opposite-Spin Energy      =      -1.1726841359073705 [Eh]
	 Correlation Energy        =      -1.5424709996972412 [Eh]
	 Total Energy              =    -382.3491100223800458 [Eh]

	 ================> DF-SCS-MP2 Energies <==================
	-----------------------------------------------------------
	 SCS Same-Spin Scale       =       0.3333333333333333 [-]
	 SCS Opposite-Spin Scale   =       1.2000000000000000 [-]
	 SCS Same-Spin Energy      =      -0.1232622879299569 [Eh]
	 SCS Opposite-Spin Energy  =      -1.4072209630888446 [Eh]
	 SCS Correlation Energy    =      -1.5304832510188016 [Eh]
	 SCS Total Energy          =    -382.3371222737015955 [Eh]
	-----------------------------------------------------------

  Dipole Moment: [D]
     X:    -2.5990      Y:    -0.8433      Z:     1.2394     Total:     3.0004

*** Psi4 exiting successfully. Buy a developer a beer!
