                               Psi4 1.3.2 release

  ==> Input File <==

--------------------------------------------------------------------------
#psi4
#
memory 32 gb

molecule  {
0 1
  O        1.8272437    -0.7740863    -0.0281601
  O       -0.4607810     1.6104540    -0.2729240
  O       -2.1158920    -0.5489690    -0.2415960
  C        0.0351110     0.3306280     0.0450800
  C        1.3621440     0.3258420     0.8009740
  C        0.8265300    -0.4397330    -1.0269400
  C       -1.0393340    -0.5046660     0.7032500
  H        1.9101110     1.2646870     0.6518570
  H        1.3660090     0.0484500     1.8611560
  H        0.3876870    -1.3437740    -1.4598530
  H        1.1920660     0.2306130    -1.8145760
  H       -1.3510300    -0.0166450     1.6371240
  H       -0.6508050    -1.5058130     0.9301150
  H       -1.3576780     1.4570120    -0.6282440
  H       -2.8860090    -0.9542290     0.1902110
units angstrom
no_reorient  #important for SAPT in psi4, default
symmetry c1  #important for SAPT in psi4, default
}

set PROPERTIES_ORIGIN ["COM"]
properties('MP2/aug-cc-pvtz', properties = ['dipole'])
--------------------------------------------------------------------------

    Molecular point group: c1
  Charge       = 0
  Multiplicity = 1
  Basis Set: AUG-CC-PVTZ
    Blend: AUG-CC-PVTZ
  Basis Set: (AUG-CC-PVTZ AUX)
    Blend: AUG-CC-PVTZ-JKFIT

    Orbital Energies [Eh]
    ---------------------

    Doubly Occupied:

       1A    -20.583991     2A    -20.564523     3A    -20.555961
       4A    -11.293376     5A    -11.292686     6A    -11.281349
       7A    -11.276549     8A     -1.400048     9A     -1.376144
      10A     -1.354262    11A     -1.035820    12A     -0.937567
      13A     -0.918554    14A     -0.760041    15A     -0.730240
      16A     -0.705806    17A     -0.676915    18A     -0.658793
      19A     -0.621077    20A     -0.598698    21A     -0.573018
      22A     -0.546506    23A     -0.542310    24A     -0.513392
      25A     -0.475973    26A     -0.473309    27A     -0.435714
      28A     -0.415458

  @DF-RHF Final Energy:  -380.80591622488345

   => Energetics <=

    Nuclear Repulsion Energy =            335.9771733660742257
    One-Electron Energy =               -1188.3700154954897243
    Two-Electron Energy =                 471.5869259045320518
    Total Energy =                       -380.8059162248834468
  Basis Set: (AUG-CC-PVTZ AUX)
    Blend: AUG-CC-PVTZ-RI
    Molecular point group: c1

    Geometry (in Angstrom), charge = 0, multiplicity = 1:

       Center              X                  Y                   Z               Mass
    ------------   -----------------  -----------------  -----------------  -----------------
         O            1.819306627777    -0.777120077554    -0.018229420143    15.994914619570
         O           -0.468718072223     1.607420222446    -0.262993320143    15.994914619570
         O           -2.123829072223    -0.552002777554    -0.231665320143    15.994914619570
         C            0.027173927777     0.327594222446     0.055010679857    12.000000000000
         C            1.354206927777     0.322808222446     0.810904679857    12.000000000000
         C            0.818592927777    -0.442766777554    -1.017009320143    12.000000000000
         C           -1.047271072223    -0.507699777554     0.713180679857    12.000000000000
         H            1.902173927777     1.261653222446     0.661787679857     1.007825032230
         H            1.358071927777     0.045416222446     1.871086679857     1.007825032230
         H            0.379749927777    -1.346807777554    -1.449922320143     1.007825032230
         H            1.184128927777     0.227579222446    -1.804645320143     1.007825032230
         H           -1.358967072223    -0.019678777554     1.647054679857     1.007825032230
         H           -0.658742072223    -1.508846777554     0.940045679857     1.007825032230
         H           -1.365615072223     1.453978222446    -0.618313320143     1.007825032230
         H           -2.893946072223    -0.957262777554     0.200141679857     1.007825032230

  Basis Set: AUG-CC-PVTZ
    Blend: AUG-CC-PVTZ
  Basis Set: (AUG-CC-PVTZ AUX)
    Blend: AUG-CC-PVTZ-JKFIT
	 Reference Energy          =    -380.8059162248834468 [Eh]
	 Singles Energy            =      -0.0000000000000000 [Eh]
	 Same-Spin Energy          =      -0.3699565713417967 [Eh]
	 Opposite-Spin Energy      =      -1.1727964059090303 [Eh]
	 Correlation Energy        =      -1.5427529772508271 [Eh]
	 Total Energy              =    -382.3486692021342606 [Eh]

	 ================> DF-SCS-MP2 Energies <==================
	-----------------------------------------------------------
	 SCS Same-Spin Scale       =       0.3333333333333333 [-]
	 SCS Opposite-Spin Scale   =       1.2000000000000000 [-]
	 SCS Same-Spin Energy      =      -0.1233188571139322 [Eh]
	 SCS Opposite-Spin Energy  =      -1.4073556870908364 [Eh]
	 SCS Correlation Energy    =      -1.5306745442047687 [Eh]
	 SCS Total Energy          =    -382.3365907690882182 [Eh]
	-----------------------------------------------------------

  Dipole Moment: [D]
     X:    -2.4847      Y:    -0.7810      Z:     1.2010     Total:     2.8681

*** Psi4 exiting successfully. Buy a developer a beer!
