                               Psi4 1.3.2 release

  ==> Input File <==

--------------------------------------------------------------------------
#psi4
#
memory 32 gb

molecule  {
0 1
  O        1.8620410    -0.7430760    -0.0482260
  O       -0.4607810     1.6104540    -0.2729240
  O       -2.1158920    -0.5489690    -0.2415960
  C        0.0351110     0.3306280     0.0450800
  C        1.2571250     0.3510624     0.6937721
  C        0.8265300    -0.4397330    -1.0269400
  C       -1.0393340    -0.5046660     0.7032500
  H        1.9101110     1.2646870     0.6518570
  H        1.3660090     0.0484500     1.8611560
  H        0.3876870    -1.3437740    -1.4598530
  H        1.1920660     0.2306130    -1.8145760
  H       -1.3510300    -0.0166450     1.6371240
  H       -0.6508050    -1.5058130     0.9301150
  H       -1.3576780     1.4570120    -0.6282440
  H       -2.8860090    -0.9542290     0.1902110
units angstrom
no_reorient  #important for SAPT in psi4, default
symmetry c1  #important for SAPT in psi4, default
}

set PROPERTIES_ORIGIN ["COM"]
properties('MP2/aug-cc-pvtz', properties = ['dipole'])
--------------------------------------------------------------------------

    Molecular point group: c1
  Charge       = 0
  Multiplicity = 1
  Basis Set: AUG-CC-PVTZ
    Blend: AUG-CC-PVTZ
  Basis Set: (AUG-CC-PVTZ AUX)
    Blend: AUG-CC-PVTZ-JKFIT

    Orbital Energies [Eh]
    ---------------------

    Doubly Occupied:

       1A    -20.586419     2A    -20.567395     3A    -20.556519
       4A    -11.296739     5A    -11.288390     6A    -11.287204
       7A    -11.281626     8A     -1.408801     9A     -1.381338
      10A     -1.357777    11A     -1.062006    12A     -0.935409
      13A     -0.928614    14A     -0.754269    15A     -0.732765
      16A     -0.716803    17A     -0.679315    18A     -0.661446
      19A     -0.628085    20A     -0.595706    21A     -0.567520
      22A     -0.546932    23A     -0.534519    24A     -0.517770
      25A     -0.492300    26A     -0.476586    27A     -0.439883
      28A     -0.404610

  @DF-RHF Final Energy:  -380.77696551844281

   => Energetics <=

    Nuclear Repulsion Energy =            338.4235139730180890
    One-Electron Energy =               -1193.0274658557996190
    Two-Electron Energy =                 473.8269863643387225
    Total Energy =                       -380.7769655184428075
  Basis Set: (AUG-CC-PVTZ AUX)
    Blend: AUG-CC-PVTZ-RI
    Molecular point group: c1

    Geometry (in Angstrom), charge = 0, multiplicity = 1:

       Center              X                  Y                   Z               Mass
    ------------   -----------------  -----------------  -----------------  -----------------
         O            1.860866696817    -0.753785628463    -0.022846822433    15.994914619570
         O           -0.461955303183     1.599744371537    -0.247544822433    15.994914619570
         O           -2.117066303183    -0.559678628463    -0.216216822433    15.994914619570
         C            0.033936696817     0.319918371537     0.070459177567    12.000000000000
         C            1.255950696817     0.340352771537     0.719151277567    12.000000000000
         C            0.825355696817    -0.450442628463    -1.001560822433    12.000000000000
         C           -1.040508303183    -0.515375628463     0.728629177567    12.000000000000
         H            1.908936696817     1.253977371537     0.677236177567     1.007825032230
         H            1.364834696817     0.037740371537     1.886535177567     1.007825032230
         H            0.386512696817    -1.354483628463    -1.434473822433     1.007825032230
         H            1.190891696817     0.219903371537    -1.789196822433     1.007825032230
         H           -1.352204303183    -0.027354628463     1.662503177567     1.007825032230
         H           -0.651979303183    -1.516522628463     0.955494177567     1.007825032230
         H           -1.358852303183     1.446302371537    -0.602864822433     1.007825032230
         H           -2.887183303183    -0.964938628463     0.215590177567     1.007825032230

  Basis Set: AUG-CC-PVTZ
    Blend: AUG-CC-PVTZ
  Basis Set: (AUG-CC-PVTZ AUX)
    Blend: AUG-CC-PVTZ-JKFIT
	 Reference Energy          =    -380.7769655184428075 [Eh]
	 Singles Energy            =      -0.0000000000000000 [Eh]
	 Same-Spin Energy          =      -0.3720041160397268 [Eh]
	 Opposite-Spin Energy      =      -1.1752340984081511 [Eh]
	 Correlation Energy        =      -1.5472382144478778 [Eh]
	 Total Energy              =    -382.3242037328906804 [Eh]

	 ================> DF-SCS-MP2 Energies <==================
	-----------------------------------------------------------
	 SCS Same-Spin Scale       =       0.3333333333333333 [-]
	 SCS Opposite-Spin Scale   =       1.2000000000000000 [-]
	 SCS Same-Spin Energy      =      -0.1240013720132423 [Eh]
	 SCS Opposite-Spin Energy  =      -1.4102809180897813 [Eh]
	 SCS Correlation Energy    =      -1.5342822901030235 [Eh]
	 SCS Total Energy          =    -382.3112478085458292 [Eh]
	-----------------------------------------------------------

  Dipole Moment: [D]
     X:    -2.6329      Y:    -0.8429      Z:     0.9810     Total:     2.9335

*** Psi4 exiting successfully. Buy a developer a beer!
