                               Psi4 1.3.2 release

  ==> Input File <==

--------------------------------------------------------------------------
#psi4
#
memory 32 gb

molecule  {
0 1
  O        1.8620410    -0.7430760    -0.0482260
  O       -0.4607810     1.6104540    -0.2729240
  O       -2.1158920    -0.5489690    -0.2415960
  C        0.0351110     0.3306280     0.0450800
  C        1.3277592     0.3993662     0.8593852
  C        0.8265300    -0.4397330    -1.0269400
  C       -1.0393340    -0.5046660     0.7032500
  H        1.9101110     1.2646870     0.6518570
  H        1.3660090     0.0484500     1.8611560
  H        0.3876870    -1.3437740    -1.4598530
  H        1.1920660     0.2306130    -1.8145760
  H       -1.3510300    -0.0166450     1.6371240
  H       -0.6508050    -1.5058130     0.9301150
  H       -1.3576780     1.4570120    -0.6282440
  H       -2.8860090    -0.9542290     0.1902110
units angstrom
no_reorient  #important for SAPT in psi4, default
symmetry c1  #important for SAPT in psi4, default
}

set PROPERTIES_ORIGIN ["COM"]
properties('MP2/aug-cc-pvtz', properties = ['dipole'])
--------------------------------------------------------------------------

    Molecular point group: c1
  Charge       = 0
  Multiplicity = 1
  Basis Set: AUG-CC-PVTZ
    Blend: AUG-CC-PVTZ
  Basis Set: (AUG-CC-PVTZ AUX)
    Blend: AUG-CC-PVTZ-JKFIT

    Orbital Energies [Eh]
    ---------------------

    Doubly Occupied:

       1A    -20.584989     2A    -20.564757     3A    -20.547558
       4A    -11.297011     5A    -11.294014     6A    -11.282103
       7A    -11.272240     8A     -1.395991     9A     -1.365055
      10A     -1.338034    11A     -1.036380    12A     -0.939685
      13A     -0.916078    14A     -0.765683    15A     -0.731421
      16A     -0.702730    17A     -0.674176    18A     -0.655574
      19A     -0.613561    20A     -0.596856    21A     -0.576244
      22A     -0.550960    23A     -0.533753    24A     -0.504966
      25A     -0.476831    26A     -0.473468    27A     -0.435697
      28A     -0.413759

  @DF-RHF Final Energy:  -380.79708861073379

   => Energetics <=

    Nuclear Repulsion Energy =            334.4902510023418927
    One-Electron Energy =               -1185.4955344203272034
    Two-Electron Energy =                 470.2081948072515161
    Total Energy =                       -380.7970886107337947
  Basis Set: (AUG-CC-PVTZ AUX)
    Blend: AUG-CC-PVTZ-RI
    Molecular point group: c1

    Geometry (in Angstrom), charge = 0, multiplicity = 1:

       Center              X                  Y                   Z               Mass
    ------------   -----------------  -----------------  -----------------  -----------------
         O            1.852720305314    -0.759356607760    -0.041947331119    15.994914619570
         O           -0.470101694686     1.594173392240    -0.266645331119    15.994914619570
         O           -2.125212694686    -0.565249607760    -0.235317331119    15.994914619570
         C            0.025790305314     0.314347392240     0.051358668881    12.000000000000
         C            1.318438505314     0.383085592240     0.865663868881    12.000000000000
         C            0.817209305314    -0.456013607760    -1.020661331119    12.000000000000
         C           -1.048654694686    -0.520946607760     0.709528668881    12.000000000000
         H            1.900790305314     1.248406392240     0.658135668881     1.007825032230
         H            1.356688305314     0.032169392240     1.867434668881     1.007825032230
         H            0.378366305314    -1.360054607760    -1.453574331119     1.007825032230
         H            1.182745305314     0.214332392240    -1.808297331119     1.007825032230
         H           -1.360350694686    -0.032925607760     1.643402668881     1.007825032230
         H           -0.660125694686    -1.522093607760     0.936393668881     1.007825032230
         H           -1.366998694686     1.440731392240    -0.621965331119     1.007825032230
         H           -2.895329694686    -0.970509607760     0.196489668881     1.007825032230

  Basis Set: AUG-CC-PVTZ
    Blend: AUG-CC-PVTZ
  Basis Set: (AUG-CC-PVTZ AUX)
    Blend: AUG-CC-PVTZ-JKFIT
	 Reference Energy          =    -380.7970886107337947 [Eh]
	 Singles Energy            =      -0.0000000000000000 [Eh]
	 Same-Spin Energy          =      -0.3703124139495891 [Eh]
	 Opposite-Spin Energy      =      -1.1752210116248474 [Eh]
	 Correlation Energy        =      -1.5455334255744364 [Eh]
	 Total Energy              =    -382.3426220363082280 [Eh]

	 ================> DF-SCS-MP2 Energies <==================
	-----------------------------------------------------------
	 SCS Same-Spin Scale       =       0.3333333333333333 [-]
	 SCS Opposite-Spin Scale   =       1.2000000000000000 [-]
	 SCS Same-Spin Energy      =      -0.1234374713165297 [Eh]
	 SCS Opposite-Spin Energy  =      -1.4102652139498169 [Eh]
	 SCS Correlation Energy    =      -1.5337026852663467 [Eh]
	 SCS Total Energy          =    -382.3307912960001431 [Eh]
	-----------------------------------------------------------

  Dipole Moment: [D]
     X:    -2.5906      Y:    -0.6730      Z:     1.4059     Total:     3.0233

*** Psi4 exiting successfully. Buy a developer a beer!
