                               Psi4 1.3.2 release

  ==> Input File <==

--------------------------------------------------------------------------
#psi4
#
memory 32 gb

molecule  {
0 1
  O        1.9907327    -0.7363584     0.0327099
  O       -0.4607810     1.6104540    -0.2729240
  O       -2.1158920    -0.5489690    -0.2415960
  C        0.0351110     0.3306280     0.0450800
  C        1.3621440     0.3258420     0.8009740
  C        0.8265300    -0.4397330    -1.0269400
  C       -1.0393340    -0.5046660     0.7032500
  H        1.9101110     1.2646870     0.6518570
  H        1.3660090     0.0484500     1.8611560
  H        0.3876870    -1.3437740    -1.4598530
  H        1.1920660     0.2306130    -1.8145760
  H       -1.3510300    -0.0166450     1.6371240
  H       -0.6508050    -1.5058130     0.9301150
  H       -1.3576780     1.4570120    -0.6282440
  H       -2.8860090    -0.9542290     0.1902110
units angstrom
no_reorient  #important for SAPT in psi4, default
symmetry c1  #important for SAPT in psi4, default
}

set PROPERTIES_ORIGIN ["COM"]
properties('MP2/aug-cc-pvtz', properties = ['dipole'])
--------------------------------------------------------------------------

    Molecular point group: c1
  Charge       = 0
  Multiplicity = 1
  Basis Set: AUG-CC-PVTZ
    Blend: AUG-CC-PVTZ
  Basis Set: (AUG-CC-PVTZ AUX)
    Blend: AUG-CC-PVTZ-JKFIT

    Orbital Energies [Eh]
    ---------------------

    Doubly Occupied:

       1A    -20.587121     2A    -20.570430     3A    -20.554496
       4A    -11.298732     5A    -11.295980     6A    -11.293709
       7A    -11.277394     8A     -1.397974     9A     -1.366552
      10A     -1.333542    11A     -1.045710    12A     -0.933182
      13A     -0.918335    14A     -0.763863    15A     -0.732833
      16A     -0.701956    17A     -0.673658    18A     -0.656190
      19A     -0.613390    20A     -0.594055    21A     -0.570798
      22A     -0.549119    23A     -0.537041    24A     -0.516837
      25A     -0.478053    26A     -0.461545    27A     -0.436518
      28A     -0.421453

  @DF-RHF Final Energy:  -380.78928807409204

   => Energetics <=

    Nuclear Repulsion Energy =            332.3673391963095014
    One-Electron Energy =               -1181.1523275793842913
    Two-Electron Energy =                 467.9957003089826912
    Total Energy =                       -380.7892880740920418
  Basis Set: (AUG-CC-PVTZ AUX)
    Blend: AUG-CC-PVTZ-RI
    Molecular point group: c1

    Geometry (in Angstrom), charge = 0, multiplicity = 1:

       Center              X                  Y                   Z               Mass
    ------------   -----------------  -----------------  -----------------  -----------------
         O            1.957662909412    -0.745191984790     0.033283200664    15.994914619570
         O           -0.493850790588     1.601620415210    -0.272350699336    15.994914619570
         O           -2.148961790588    -0.557802584790    -0.241022699336    15.994914619570
         C            0.002041209412     0.321794415210     0.045653300664    12.000000000000
         C            1.329074209412     0.317008415210     0.801547300664    12.000000000000
         C            0.793460209412    -0.448566584790    -1.026366699336    12.000000000000
         C           -1.072403790588    -0.513499584790     0.703823300664    12.000000000000
         H            1.877041209412     1.255853415210     0.652430300664     1.007825032230
         H            1.332939209412     0.039616415210     1.861729300664     1.007825032230
         H            0.354617209412    -1.352607584790    -1.459279699336     1.007825032230
         H            1.158996209412     0.221779415210    -1.814002699336     1.007825032230
         H           -1.384099790588    -0.025478584790     1.637697300664     1.007825032230
         H           -0.683874790588    -1.514646584790     0.930688300664     1.007825032230
         H           -1.390747790588     1.448178415210    -0.627670699336     1.007825032230
         H           -2.919078790588    -0.963062584790     0.190784300664     1.007825032230

  Basis Set: AUG-CC-PVTZ
    Blend: AUG-CC-PVTZ
  Basis Set: (AUG-CC-PVTZ AUX)
    Blend: AUG-CC-PVTZ-JKFIT
	 Reference Energy          =    -380.7892880740920418 [Eh]
	 Singles Energy            =      -0.0000000000000000 [Eh]
	 Same-Spin Energy          =      -0.3710636546997885 [Eh]
	 Opposite-Spin Energy      =      -1.1773693246229515 [Eh]
	 Correlation Energy        =      -1.5484329793227400 [Eh]
	 Total Energy              =    -382.3377210534147821 [Eh]

	 ================> DF-SCS-MP2 Energies <==================
	-----------------------------------------------------------
	 SCS Same-Spin Scale       =       0.3333333333333333 [-]
	 SCS Opposite-Spin Scale   =       1.2000000000000000 [-]
	 SCS Same-Spin Energy      =      -0.1236878848999295 [Eh]
	 SCS Opposite-Spin Energy  =      -1.4128431895475417 [Eh]
	 SCS Correlation Energy    =      -1.5365310744474712 [Eh]
	 SCS Total Energy          =    -382.3258191485394946 [Eh]
	-----------------------------------------------------------

  Dipole Moment: [D]
     X:    -2.9387      Y:    -0.7954      Z:     0.9129     Total:     3.1783

*** Psi4 exiting successfully. Buy a developer a beer!
