                               Psi4 1.4a3.dev225

  ==> Input File <==

--------------------------------------------------------------------------
#psi4
#
memory 32 gb

molecule  {
0 1
  O        1.8620410    -0.7430760    -0.0482260
  O       -0.4607810     1.6104540    -0.2729240
  O       -2.1158920    -0.5489690    -0.2415960
  C        0.0351110     0.3306280     0.0450800
  C        1.3690210     0.3111372     0.7892918
  C        0.8265300    -0.4397330    -1.0269400
  C       -1.0393340    -0.5046660     0.7032500
  H        1.9101110     1.2646870     0.6518570
  H        1.3660090     0.0484500     1.8611560
  H        0.3876870    -1.3437740    -1.4598530
  H        1.1920660     0.2306130    -1.8145760
  H       -1.3510300    -0.0166450     1.6371240
  H       -0.6508050    -1.5058130     0.9301150
  H       -1.3576780     1.4570120    -0.6282440
  H       -2.8860090    -0.9542290     0.1902110
units angstrom
no_reorient  #important for SAPT in psi4, default
symmetry c1  #important for SAPT in psi4, default
}

set PROPERTIES_ORIGIN ["COM"]
properties('MP2/aug-cc-pvtz', properties = ['dipole'])
--------------------------------------------------------------------------

    Molecular point group: c1
  Charge       = 0
  Multiplicity = 1
  Basis Set: AUG-CC-PVTZ
    Blend: AUG-CC-PVTZ
  Basis Set: (AUG-CC-PVTZ AUX)
    Blend: AUG-CC-PVTZ-JKFIT

    Orbital Energies [Eh]
    ---------------------

    Doubly Occupied:

       1A    -20.584500     2A    -20.565304     3A    -20.556383
       4A    -11.293700     5A    -11.292869     6A    -11.281350
       7A    -11.277880     8A     -1.401808     9A     -1.378896
      10A     -1.355505    11A     -1.037359    12A     -0.937034
      13A     -0.918565    14A     -0.758676    15A     -0.730827
      16A     -0.706436    17A     -0.678081    18A     -0.659549
      19A     -0.622157    20A     -0.600043    21A     -0.570677
      22A     -0.549336    23A     -0.544191    24A     -0.516261
      25A     -0.475969    26A     -0.471471    27A     -0.433935
      28A     -0.415808

  @DF-RHF Final Energy:  -380.80673857736321

   => Energetics <=

    Nuclear Repulsion Energy =            335.8756877541755443
    One-Electron Energy =               -1188.1357127597896124
    Two-Electron Energy =                 471.4532864282509195
    Total Energy =                       -380.8067385773632054
  Basis Set: (AUG-CC-PVTZ AUX)
    Blend: AUG-CC-PVTZ-RI
    Molecular point group: c1

    Geometry (in Angstrom), charge = 0, multiplicity = 1:

       Center              X                  Y                   Z               Mass
    ------------   -----------------  -----------------  -----------------  -----------------
         O            1.847961494753    -0.749180970803    -0.033863311223    15.994914619570
         O           -0.474860505247     1.604349029197    -0.258561311223    15.994914619570
         O           -2.129971505247    -0.555073970803    -0.227233311223    15.994914619570
         C            0.021031494753     0.324523029197     0.059442688777    12.000000000000
         C            1.354941494753     0.305032229197     0.803654488777    12.000000000000
         C            0.812450494753    -0.445837970803    -1.012577311223    12.000000000000
         C           -1.053413505247    -0.510770970803     0.717612688777    12.000000000000
         H            1.896031494753     1.258582029197     0.666219688777     1.007825032230
         H            1.351929494753     0.042345029197     1.875518688777     1.007825032230
         H            0.373607494753    -1.349878970803    -1.445490311223     1.007825032230
         H            1.177986494753     0.224508029197    -1.800213311223     1.007825032230
         H           -1.365109505247    -0.022749970803     1.651486688777     1.007825032230
         H           -0.664884505247    -1.511917970803     0.944477688777     1.007825032230
         H           -1.371757505247     1.450907029197    -0.613881311223     1.007825032230
         H           -2.900088505247    -0.960333970803     0.204573688777     1.007825032230

  Basis Set: AUG-CC-PVTZ
    Blend: AUG-CC-PVTZ
  Basis Set: (AUG-CC-PVTZ AUX)
    Blend: AUG-CC-PVTZ-JKFIT
	 Reference Energy          =    -380.8067385773632054 [Eh]
	 Singles Energy            =      -0.0000000000000000 [Eh]
	 Same-Spin Energy          =      -0.3697963569060528 [Eh]
	 Opposite-Spin Energy      =      -1.1723078207120403 [Eh]
	 Correlation Energy        =      -1.5421041776180930 [Eh]
	 Total Energy              =    -382.3488427549813196 [Eh]

	 ================> DF-SCS-MP2 Energies <==================
	-----------------------------------------------------------
	 SCS Same-Spin Scale       =       0.3333333333333333 [-]
	 SCS Opposite-Spin Scale   =       1.2000000000000000 [-]
	 SCS Same-Spin Energy      =      -0.1232654523020176 [Eh]
	 SCS Opposite-Spin Energy  =      -1.4067693848544482 [Eh]
	 SCS Correlation Energy    =      -1.5300348371564658 [Eh]
	 SCS Total Energy          =    -382.3367734145196550 [Eh]
	-----------------------------------------------------------

  Dipole Moment: [D]
     X:    -2.5560      Y:    -0.8579      Z:     1.1840     Total:     2.9446

*** Psi4 exiting successfully. Buy a developer a beer!
