                               Psi4 1.3.2 release

  ==> Input File <==

--------------------------------------------------------------------------
#psi4
#
memory 32 gb

molecule  {
0 1
  O        1.8620410    -0.7430760    -0.0482260
  O       -0.4607810     1.6104540    -0.2729240
  O       -2.1158920    -0.5489690    -0.2415960
  C        0.0768868     0.3515667     0.0604018
  C        1.3621440     0.3258420     0.8009740
  C        0.8265300    -0.4397330    -1.0269400
  C       -1.0393340    -0.5046660     0.7032500
  H        1.9101110     1.2646870     0.6518570
  H        1.3660090     0.0484500     1.8611560
  H        0.3876870    -1.3437740    -1.4598530
  H        1.1920660     0.2306130    -1.8145760
  H       -1.3510300    -0.0166450     1.6371240
  H       -0.6508050    -1.5058130     0.9301150
  H       -1.3576780     1.4570120    -0.6282440
  H       -2.8860090    -0.9542290     0.1902110
units angstrom
no_reorient  #important for SAPT in psi4, default
symmetry c1  #important for SAPT in psi4, default
}

set PROPERTIES_ORIGIN ["COM"]
properties('MP2/aug-cc-pvtz', properties = ['dipole'])
--------------------------------------------------------------------------

    Molecular point group: c1
  Charge       = 0
  Multiplicity = 1
  Basis Set: AUG-CC-PVTZ
    Blend: AUG-CC-PVTZ
  Basis Set: (AUG-CC-PVTZ AUX)
    Blend: AUG-CC-PVTZ-JKFIT

    Orbital Energies [Eh]
    ---------------------

    Doubly Occupied:

       1A    -20.584416     2A    -20.564029     3A    -20.555591
       4A    -11.294514     5A    -11.293818     6A    -11.280478
       7A    -11.276215     8A     -1.399418     9A     -1.376205
      10A     -1.353701    11A     -1.036191    12A     -0.940178
      13A     -0.918519    14A     -0.760090    15A     -0.728059
      16A     -0.707902    17A     -0.679308    18A     -0.658535
      19A     -0.622361    20A     -0.597221    21A     -0.570497
      22A     -0.549956    23A     -0.541721    24A     -0.509930
      25A     -0.481501    26A     -0.472814    27A     -0.438119
      28A     -0.411131

  @DF-RHF Final Energy:  -380.80456669043764

   => Energetics <=

    Nuclear Repulsion Energy =            335.6204016306363087
    One-Electron Energy =               -1187.6450990569844635
    Two-Electron Energy =                 471.2201307359105726
    Total Energy =                       -380.8045666904376390
  Basis Set: (AUG-CC-PVTZ AUX)
    Blend: AUG-CC-PVTZ-RI
    Molecular point group: c1

    Geometry (in Angstrom), charge = 0, multiplicity = 1:

       Center              X                  Y                   Z               Mass
    ------------   -----------------  -----------------  -----------------  -----------------
         O            1.843936542425    -0.753291810956    -0.036977739589    15.994914619570
         O           -0.478885457575     1.600238189044    -0.261675739589    15.994914619570
         O           -2.133996457575    -0.559184810956    -0.230347739589    15.994914619570
         C            0.058782342425     0.341350889044     0.071650060411    12.000000000000
         C            1.344039542425     0.315626189044     0.812222260411    12.000000000000
         C            0.808425542425    -0.449948810956    -1.015691739589    12.000000000000
         C           -1.057438457575    -0.514881810956     0.714498260411    12.000000000000
         H            1.892006542425     1.254471189044     0.663105260411     1.007825032230
         H            1.347904542425     0.038234189044     1.872404260411     1.007825032230
         H            0.369582542425    -1.353989810956    -1.448604739589     1.007825032230
         H            1.173961542425     0.220397189044    -1.803327739589     1.007825032230
         H           -1.369134457575    -0.026860810956     1.648372260411     1.007825032230
         H           -0.668909457575    -1.516028810956     0.941363260411     1.007825032230
         H           -1.375782457575     1.446796189044    -0.616995739589     1.007825032230
         H           -2.904113457575    -0.964444810956     0.201459260411     1.007825032230

  Basis Set: AUG-CC-PVTZ
    Blend: AUG-CC-PVTZ
  Basis Set: (AUG-CC-PVTZ AUX)
    Blend: AUG-CC-PVTZ-JKFIT
	 Reference Energy          =    -380.8045666904376390 [Eh]
	 Singles Energy            =      -0.0000000000000000 [Eh]
	 Same-Spin Energy          =      -0.3697735829779466 [Eh]
	 Opposite-Spin Energy      =      -1.1724464856843093 [Eh]
	 Correlation Energy        =      -1.5422200686622558 [Eh]
	 Total Energy              =    -382.3467867590998708 [Eh]

	 ================> DF-SCS-MP2 Energies <==================
	-----------------------------------------------------------
	 SCS Same-Spin Scale       =       0.3333333333333333 [-]
	 SCS Opposite-Spin Scale   =       1.2000000000000000 [-]
	 SCS Same-Spin Energy      =      -0.1232578609926489 [Eh]
	 SCS Opposite-Spin Energy  =      -1.4069357828211710 [Eh]
	 SCS Correlation Energy    =      -1.5301936438138199 [Eh]
	 SCS Total Energy          =    -382.3347603342514844 [Eh]
	-----------------------------------------------------------

  Dipole Moment: [D]
     X:    -2.5064      Y:    -0.8166      Z:     1.2207     Total:     2.9050

*** Psi4 exiting successfully. Buy a developer a beer!
