                               Psi4 1.3.2 release

  ==> Input File <==

--------------------------------------------------------------------------
#psi4
#
memory 32 gb

molecule  {
0 1
  O        1.8620410    -0.7430760    -0.0482260
  O       -0.4607810     1.6104540    -0.2729240
  O       -2.1158920    -0.5489690    -0.2415960
  C        0.0351110     0.3306280     0.0450800
  C        1.3621440     0.3258420     0.8009740
  C        0.8265300    -0.4397330    -1.0269400
  C       -1.0393340    -0.5046660     0.7032500
  H        1.8855345     1.2542644     0.5401524
  H        1.3660090     0.0484500     1.8611560
  H        0.3876870    -1.3437740    -1.4598530
  H        1.1920660     0.2306130    -1.8145760
  H       -1.3510300    -0.0166450     1.6371240
  H       -0.6508050    -1.5058130     0.9301150
  H       -1.3576780     1.4570120    -0.6282440
  H       -2.8860090    -0.9542290     0.1902110
units angstrom
no_reorient  #important for SAPT in psi4, default
symmetry c1  #important for SAPT in psi4, default
}

set PROPERTIES_ORIGIN ["COM"]
properties('MP2/aug-cc-pvtz', properties = ['dipole'])
--------------------------------------------------------------------------

    Molecular point group: c1
  Charge       = 0
  Multiplicity = 1
  Basis Set: AUG-CC-PVTZ
    Blend: AUG-CC-PVTZ
  Basis Set: (AUG-CC-PVTZ AUX)
    Blend: AUG-CC-PVTZ-JKFIT

    Orbital Energies [Eh]
    ---------------------

    Doubly Occupied:

       1A    -20.584373     2A    -20.565345     3A    -20.553486
       4A    -11.293468     5A    -11.292573     6A    -11.281179
       7A    -11.276557     8A     -1.399602     9A     -1.375156
      10A     -1.354175    11A     -1.037021    12A     -0.936222
      13A     -0.919126    14A     -0.757711    15A     -0.730719
      16A     -0.705762    17A     -0.678177    18A     -0.659179
      19A     -0.620228    20A     -0.599359    21A     -0.570425
      22A     -0.552051    23A     -0.542202    24A     -0.514124
      25A     -0.476054    26A     -0.472204    27A     -0.432373
      28A     -0.416278

  @DF-RHF Final Energy:  -380.80516593606103

   => Energetics <=

    Nuclear Repulsion Energy =            335.8205820460461837
    One-Electron Energy =               -1188.0612435545999688
    Two-Electron Energy =                 471.4354955724927549
    Total Energy =                       -380.8051659360610302
  Basis Set: (AUG-CC-PVTZ AUX)
    Blend: AUG-CC-PVTZ-RI
    Molecular point group: c1

    Geometry (in Angstrom), charge = 0, multiplicity = 1:

       Center              X                  Y                   Z               Mass
    ------------   -----------------  -----------------  -----------------  -----------------
         O            1.848992686975    -0.750775950899    -0.034128649162    15.994914619570
         O           -0.473829313025     1.602754049101    -0.258826649162    15.994914619570
         O           -2.128940313025    -0.556668950899    -0.227498649162    15.994914619570
         C            0.022062686975     0.322928049101     0.059177350838    12.000000000000
         C            1.349095686975     0.318142049101     0.815071350838    12.000000000000
         C            0.813481686975    -0.447432950899    -1.012842649162    12.000000000000
         C           -1.052382313025    -0.512365950899     0.717347350838    12.000000000000
         H            1.872486186975     1.246564449101     0.554249750838     1.007825032230
         H            1.352960686975     0.040750049101     1.875253350838     1.007825032230
         H            0.374638686975    -1.351473950899    -1.445755649162     1.007825032230
         H            1.179017686975     0.222913049101    -1.800478649162     1.007825032230
         H           -1.364078313025    -0.024344950899     1.651221350838     1.007825032230
         H           -0.663853313025    -1.513512950899     0.944212350838     1.007825032230
         H           -1.370726313025     1.449312049101    -0.614146649162     1.007825032230
         H           -2.899057313025    -0.961928950899     0.204308350838     1.007825032230

  Basis Set: AUG-CC-PVTZ
    Blend: AUG-CC-PVTZ
  Basis Set: (AUG-CC-PVTZ AUX)
    Blend: AUG-CC-PVTZ-JKFIT
	 Reference Energy          =    -380.8051659360610302 [Eh]
	 Singles Energy            =      -0.0000000000000000 [Eh]
	 Same-Spin Energy          =      -0.3700198255031577 [Eh]
	 Opposite-Spin Energy      =      -1.1729489337696513 [Eh]
	 Correlation Energy        =      -1.5429687592728090 [Eh]
	 Total Energy              =    -382.3481346953338402 [Eh]

	 ================> DF-SCS-MP2 Energies <==================
	-----------------------------------------------------------
	 SCS Same-Spin Scale       =       0.3333333333333333 [-]
	 SCS Opposite-Spin Scale   =       1.2000000000000000 [-]
	 SCS Same-Spin Energy      =      -0.1233399418343859 [Eh]
	 SCS Opposite-Spin Energy  =      -1.4075387205235814 [Eh]
	 SCS Correlation Energy    =      -1.5308786623579673 [Eh]
	 SCS Total Energy          =    -382.3360445984189937 [Eh]
	-----------------------------------------------------------

  Dipole Moment: [D]
     X:    -2.5771      Y:    -0.8334      Z:     1.2187     Total:     2.9701

*** Psi4 exiting successfully. Buy a developer a beer!
