                               Psi4 1.3.2 release

  ==> Input File <==

--------------------------------------------------------------------------
#psi4
#
memory 32 gb

molecule  {
0 1
  O        1.8620410    -0.7430760    -0.0482260
  O       -0.4607810     1.6104540    -0.2729240
  O       -2.1158920    -0.5489690    -0.2415960
  C        0.0351110     0.3306280     0.0450800
  C        1.3840646     0.2990413     0.7604413
  C        0.8265300    -0.4397330    -1.0269400
  C       -1.0393340    -0.5046660     0.7032500
  H        1.9101110     1.2646870     0.6518570
  H        1.3660090     0.0484500     1.8611560
  H        0.3876870    -1.3437740    -1.4598530
  H        1.1920660     0.2306130    -1.8145760
  H       -1.3510300    -0.0166450     1.6371240
  H       -0.6508050    -1.5058130     0.9301150
  H       -1.3576780     1.4570120    -0.6282440
  H       -2.8860090    -0.9542290     0.1902110
units angstrom
no_reorient  #important for SAPT in psi4, default
symmetry c1  #important for SAPT in psi4, default
}

set PROPERTIES_ORIGIN ["COM"]
properties('MP2/aug-cc-pvtz', properties = ['dipole'])
--------------------------------------------------------------------------

    Molecular point group: c1
  Charge       = 0
  Multiplicity = 1
  Basis Set: AUG-CC-PVTZ
    Blend: AUG-CC-PVTZ
  Basis Set: (AUG-CC-PVTZ AUX)
    Blend: AUG-CC-PVTZ-JKFIT

    Orbital Energies [Eh]
    ---------------------

    Doubly Occupied:

       1A    -20.584568     2A    -20.565389     3A    -20.558728
       4A    -11.293666     5A    -11.292032     6A    -11.282165
       7A    -11.279731     8A     -1.407858     9A     -1.383795
      10A     -1.356785    11A     -1.037914    12A     -0.937264
      13A     -0.919115    14A     -0.756869    15A     -0.730727
      16A     -0.708659    17A     -0.679021    18A     -0.660350
      19A     -0.625631    20A     -0.603310    21A     -0.571871
      22A     -0.548896    23A     -0.544791    24A     -0.518571
      25A     -0.475682    26A     -0.470225    27A     -0.432173
      28A     -0.415242

  @DF-RHF Final Energy:  -380.80504367347800

   => Energetics <=

    Nuclear Repulsion Energy =            336.2766970877969470
    One-Electron Energy =               -1188.8814260672659202
    Two-Electron Energy =                 471.7996853059909768
    Total Energy =                       -380.8050436734779964
  Basis Set: (AUG-CC-PVTZ AUX)
    Blend: AUG-CC-PVTZ-RI
    Molecular point group: c1

    Geometry (in Angstrom), charge = 0, multiplicity = 1:

       Center              X                  Y                   Z               Mass
    ------------   -----------------  -----------------  -----------------  -----------------
         O            1.846226484585    -0.747785925104    -0.030535922110    15.994914619570
         O           -0.476595515415     1.605744074896    -0.255233922110    15.994914619570
         O           -2.131706515415    -0.553678925104    -0.223905922110    15.994914619570
         C            0.019296484585     0.325918074896     0.062770077890    12.000000000000
         C            1.368250084585     0.294331374896     0.778131377890    12.000000000000
         C            0.810715484585    -0.444442925104    -1.009249922110    12.000000000000
         C           -1.055148515415    -0.509375925104     0.720940077890    12.000000000000
         H            1.894296484585     1.259977074896     0.669547077890     1.007825032230
         H            1.350194484585     0.043740074896     1.878846077890     1.007825032230
         H            0.371872484585    -1.348483925104    -1.442162922110     1.007825032230
         H            1.176251484585     0.225903074896    -1.796885922110     1.007825032230
         H           -1.366844515415    -0.021354925104     1.654814077890     1.007825032230
         H           -0.666619515415    -1.510522925104     0.947805077890     1.007825032230
         H           -1.373492515415     1.452302074896    -0.610553922110     1.007825032230
         H           -2.901823515415    -0.958938925104     0.207901077890     1.007825032230

  Basis Set: AUG-CC-PVTZ
    Blend: AUG-CC-PVTZ
  Basis Set: (AUG-CC-PVTZ AUX)
    Blend: AUG-CC-PVTZ-JKFIT
	 Reference Energy          =    -380.8050436734779964 [Eh]
	 Singles Energy            =      -0.0000000000000000 [Eh]
	 Same-Spin Energy          =      -0.3698107636942284 [Eh]
	 Opposite-Spin Energy      =      -1.1718233686450370 [Eh]
	 Correlation Energy        =      -1.5416341323392655 [Eh]
	 Total Energy              =    -382.3466778058172508 [Eh]

	 ================> DF-SCS-MP2 Energies <==================
	-----------------------------------------------------------
	 SCS Same-Spin Scale       =       0.3333333333333333 [-]
	 SCS Opposite-Spin Scale   =       1.2000000000000000 [-]
	 SCS Same-Spin Energy      =      -0.1232702545647428 [Eh]
	 SCS Opposite-Spin Energy  =      -1.4061880423740443 [Eh]
	 SCS Correlation Energy    =      -1.5294582969387871 [Eh]
	 SCS Total Energy          =    -382.3345019704167953 [Eh]
	-----------------------------------------------------------

  Dipole Moment: [D]
     X:    -2.5422      Y:    -0.9024      Z:     1.0907     Total:     2.9097

*** Psi4 exiting successfully. Buy a developer a beer!
