                               Psi4 1.3.2 release

  ==> Input File <==

--------------------------------------------------------------------------
#psi4
#
memory 32 gb

molecule  {
0 1
  O        1.8620410    -0.7430760    -0.0482260
  O       -0.4607810     1.6104540    -0.2729240
  O       -2.1158920    -0.5489690    -0.2415960
  C        0.0351110     0.3306280     0.0450800
  C        1.3621440     0.3258420     0.8009740
  C        0.8265300    -0.4397330    -1.0269400
  C       -0.8890884    -0.4984830     0.8351137
  H        1.9101110     1.2646870     0.6518570
  H        1.3660090     0.0484500     1.8611560
  H        0.3876870    -1.3437740    -1.4598530
  H        1.1920660     0.2306130    -1.8145760
  H       -1.3510300    -0.0166450     1.6371240
  H       -0.6508050    -1.5058130     0.9301150
  H       -1.3576780     1.4570120    -0.6282440
  H       -2.8860090    -0.9542290     0.1902110
units angstrom
no_reorient  #important for SAPT in psi4, default
symmetry c1  #important for SAPT in psi4, default
}

set PROPERTIES_ORIGIN ["COM"]
properties('MP2/aug-cc-pvtz', properties = ['dipole'])
--------------------------------------------------------------------------

    Molecular point group: c1
  Charge       = 0
  Multiplicity = 1
  Basis Set: AUG-CC-PVTZ
    Blend: AUG-CC-PVTZ
  Basis Set: (AUG-CC-PVTZ AUX)
    Blend: AUG-CC-PVTZ-JKFIT

    Orbital Energies [Eh]
    ---------------------

    Doubly Occupied:

       1A    -20.569256     2A    -20.559739     3A    -20.559210
       4A    -11.300158     5A    -11.299041     6A    -11.284149
       7A    -11.282429     8A     -1.397174     9A     -1.363487
      10A     -1.311532    11A     -1.057227    12A     -0.941804
      13A     -0.927319    14A     -0.768789    15A     -0.725452
      16A     -0.698533    17A     -0.671005    18A     -0.663181
      19A     -0.614177    20A     -0.592839    21A     -0.569155
      22A     -0.552317    23A     -0.525430    24A     -0.515623
      25A     -0.478747    26A     -0.470221    27A     -0.440372
      28A     -0.422021

  @DF-RHF Final Energy:  -380.77565563595192

   => Energetics <=

    Nuclear Repulsion Energy =            334.7629296265558878
    One-Electron Energy =               -1185.9563928718755506
    Two-Electron Energy =                 470.4178076093677419
    Total Energy =                       -380.7756556359519209
  Basis Set: (AUG-CC-PVTZ AUX)
    Blend: AUG-CC-PVTZ-RI
    Molecular point group: c1

    Geometry (in Angstrom), charge = 0, multiplicity = 1:

       Center              X                  Y                   Z               Mass
    ------------   -----------------  -----------------  -----------------  -----------------
         O            1.831426491245    -0.751590004904    -0.050418763114    15.994914619570
         O           -0.491395508755     1.601939995096    -0.275116763114    15.994914619570
         O           -2.146506508755    -0.557483004904    -0.243788763114    15.994914619570
         C            0.004496491245     0.322113995096     0.042887236886    12.000000000000
         C            1.331529491245     0.317327995096     0.798781236886    12.000000000000
         C            0.795915491245    -0.448247004904    -1.029132763114    12.000000000000
         C           -0.919702908755    -0.506997004904     0.832920936886    12.000000000000
         H            1.879496491245     1.256172995096     0.649664236886     1.007825032230
         H            1.335394491245     0.039935995096     1.858963236886     1.007825032230
         H            0.357072491245    -1.352288004904    -1.462045763114     1.007825032230
         H            1.161451491245     0.222098995096    -1.816768763114     1.007825032230
         H           -1.381644508755    -0.025159004904     1.634931236886     1.007825032230
         H           -0.681419508755    -1.514327004904     0.927922236886     1.007825032230
         H           -1.388292508755     1.448497995096    -0.630436763114     1.007825032230
         H           -2.916623508755    -0.962743004904     0.188018236886     1.007825032230

  Basis Set: AUG-CC-PVTZ
    Blend: AUG-CC-PVTZ
  Basis Set: (AUG-CC-PVTZ AUX)
    Blend: AUG-CC-PVTZ-JKFIT
	 Reference Energy          =    -380.7756556359519209 [Eh]
	 Singles Energy            =      -0.0000000000000000 [Eh]
	 Same-Spin Energy          =      -0.3714084068325955 [Eh]
	 Opposite-Spin Energy      =      -1.1776905908384123 [Eh]
	 Correlation Energy        =      -1.5490989976710079 [Eh]
	 Total Energy              =    -382.3247546336229448 [Eh]

	 ================> DF-SCS-MP2 Energies <==================
	-----------------------------------------------------------
	 SCS Same-Spin Scale       =       0.3333333333333333 [-]
	 SCS Opposite-Spin Scale   =       1.2000000000000000 [-]
	 SCS Same-Spin Energy      =      -0.1238028022775318 [Eh]
	 SCS Opposite-Spin Energy  =      -1.4132287090060947 [Eh]
	 SCS Correlation Energy    =      -1.5370315112836264 [Eh]
	 SCS Total Energy          =    -382.3126871472355219 [Eh]
	-----------------------------------------------------------

  Dipole Moment: [D]
     X:    -1.9660      Y:    -0.7386      Z:     1.5442     Total:     2.6068

*** Psi4 exiting successfully. Buy a developer a beer!
