                               Psi4 1.4a3.dev225

  ==> Input File <==

--------------------------------------------------------------------------
#psi4
#
memory 32 gb

molecule  {
0 1
  O        1.8620410    -0.7430760    -0.0482260
  O       -0.4607810     1.6104540    -0.2729240
  O       -2.1158920    -0.5489690    -0.2415960
  C        0.0351110     0.3306280     0.0450800
  C        1.3449516     0.3626041     0.8301796
  C        0.8265300    -0.4397330    -1.0269400
  C       -1.0393340    -0.5046660     0.7032500
  H        1.9101110     1.2646870     0.6518570
  H        1.3660090     0.0484500     1.8611560
  H        0.3876870    -1.3437740    -1.4598530
  H        1.1920660     0.2306130    -1.8145760
  H       -1.3510300    -0.0166450     1.6371240
  H       -0.6508050    -1.5058130     0.9301150
  H       -1.3576780     1.4570120    -0.6282440
  H       -2.8860090    -0.9542290     0.1902110
units angstrom
no_reorient  #important for SAPT in psi4, default
symmetry c1  #important for SAPT in psi4, default
}

set PROPERTIES_ORIGIN ["COM"]
properties('MP2/aug-cc-pvtz', properties = ['dipole'])
--------------------------------------------------------------------------

    Molecular point group: c1
  Charge       = 0
  Multiplicity = 1
  Basis Set: AUG-CC-PVTZ
    Blend: AUG-CC-PVTZ
  Basis Set: (AUG-CC-PVTZ AUX)
    Blend: AUG-CC-PVTZ-JKFIT

    Orbital Energies [Eh]
    ---------------------

    Doubly Occupied:

       1A    -20.584764     2A    -20.564928     3A    -20.551327
       4A    -11.295246     5A    -11.293729     6A    -11.281088
       7A    -11.274382     8A     -1.396931     9A     -1.368165
      10A     -1.347984    11A     -1.036595    12A     -0.937789
      13A     -0.917677    14A     -0.762793    15A     -0.731116
      16A     -0.703896    17A     -0.675290    18A     -0.657306
      19A     -0.616419    20A     -0.596602    21A     -0.573275
      22A     -0.550519    23A     -0.538375    24A     -0.509883
      25A     -0.476735    26A     -0.473025    27A     -0.436234
      28A     -0.415375

  @DF-RHF Final Energy:  -380.80359701040283

   => Energetics <=

    Nuclear Repulsion Energy =            335.0590850018539300
    One-Electron Energy =               -1186.5904701118452067
    Two-Electron Energy =                 470.7277880995885084
    Total Energy =                       -380.8035970104028252
  Basis Set: (AUG-CC-PVTZ AUX)
    Blend: AUG-CC-PVTZ-RI
    Molecular point group: c1

    Geometry (in Angstrom), charge = 0, multiplicity = 1:

       Center              X                  Y                   Z               Mass
    ------------   -----------------  -----------------  -----------------  -----------------
         O            1.850737469503    -0.755116757106    -0.038578987573    15.994914619570
         O           -0.472084530497     1.598413242894    -0.263276987573    15.994914619570
         O           -2.127195530497    -0.561009757106    -0.231948987573    15.994914619570
         C            0.023807469503     0.318587242894     0.054727012427    12.000000000000
         C            1.333648069503     0.350563342894     0.839826612427    12.000000000000
         C            0.815226469503    -0.451773757106    -1.017292987573    12.000000000000
         C           -1.050637530497    -0.516706757106     0.712897012427    12.000000000000
         H            1.898807469503     1.252646242894     0.661504012427     1.007825032230
         H            1.354705469503     0.036409242894     1.870803012427     1.007825032230
         H            0.376383469503    -1.355814757106    -1.450205987573     1.007825032230
         H            1.180762469503     0.218572242894    -1.804928987573     1.007825032230
         H           -1.362333530497    -0.028685757106     1.646771012427     1.007825032230
         H           -0.662108530497    -1.517853757106     0.939762012427     1.007825032230
         H           -1.368981530497     1.444971242894    -0.618596987573     1.007825032230
         H           -2.897312530497    -0.966269757106     0.199858012427     1.007825032230

  Basis Set: AUG-CC-PVTZ
    Blend: AUG-CC-PVTZ
  Basis Set: (AUG-CC-PVTZ AUX)
    Blend: AUG-CC-PVTZ-JKFIT
	 Reference Energy          =    -380.8035970104028252 [Eh]
	 Singles Energy            =      -0.0000000000000000 [Eh]
	 Same-Spin Energy          =      -0.3700062950641985 [Eh]
	 Opposite-Spin Energy      =      -1.1738323035728662 [Eh]
	 Correlation Energy        =      -1.5438385986370646 [Eh]
	 Total Energy              =    -382.3474356090399056 [Eh]

	 ================> DF-SCS-MP2 Energies <==================
	-----------------------------------------------------------
	 SCS Same-Spin Scale       =       0.3333333333333333 [-]
	 SCS Opposite-Spin Scale   =       1.2000000000000000 [-]
	 SCS Same-Spin Energy      =      -0.1233354316880662 [Eh]
	 SCS Opposite-Spin Energy  =      -1.4085987642874394 [Eh]
	 SCS Correlation Energy    =      -1.5319341959755055 [Eh]
	 SCS Total Energy          =    -382.3355312063783344 [Eh]
	-----------------------------------------------------------

  Dipole Moment: [D]
     X:    -2.5754      Y:    -0.7407      Z:     1.3250     Total:     2.9895

*** Psi4 exiting successfully. Buy a developer a beer!
