                               Psi4 1.4a3.dev225

  ==> Input File <==

--------------------------------------------------------------------------
#psi4
#
memory 32 gb

molecule  {
0 1
  O        1.8620410    -0.7430760    -0.0482260
  O       -0.4607810     1.6104540    -0.2729240
  O       -2.1158920    -0.5489690    -0.2415960
  C        0.0351110     0.3306280     0.0450800
  C        1.3621440     0.3258420     0.8009740
  C        0.8265300    -0.4397330    -1.0269400
  C       -1.0543586    -0.5052843     0.6900636
  H        1.9101110     1.2646870     0.6518570
  H        1.3660090     0.0484500     1.8611560
  H        0.3876870    -1.3437740    -1.4598530
  H        1.1920660     0.2306130    -1.8145760
  H       -1.3510300    -0.0166450     1.6371240
  H       -0.6508050    -1.5058130     0.9301150
  H       -1.3576780     1.4570120    -0.6282440
  H       -2.8860090    -0.9542290     0.1902110
units angstrom
no_reorient  #important for SAPT in psi4, default
symmetry c1  #important for SAPT in psi4, default
}

set PROPERTIES_ORIGIN ["COM"]
properties('MP2/aug-cc-pvtz', properties = ['dipole'])
--------------------------------------------------------------------------

    Molecular point group: c1
  Charge       = 0
  Multiplicity = 1
  Basis Set: AUG-CC-PVTZ
    Blend: AUG-CC-PVTZ
  Basis Set: (AUG-CC-PVTZ AUX)
    Blend: AUG-CC-PVTZ-JKFIT

    Orbital Energies [Eh]
    ---------------------

    Doubly Occupied:

       1A    -20.586779     2A    -20.564837     3A    -20.554613
       4A    -11.293968     5A    -11.293107     6A    -11.280931
       7A    -11.276310     8A     -1.402700     9A     -1.378917
      10A     -1.354999    11A     -1.035127    12A     -0.936614
      13A     -0.917707    14A     -0.759158    15A     -0.733637
      16A     -0.706570    17A     -0.677750    18A     -0.659389
      19A     -0.621032    20A     -0.600667    21A     -0.571954
      22A     -0.550361    23A     -0.542526    24A     -0.513322
      25A     -0.474875    26A     -0.470562    27A     -0.434366
      28A     -0.414966

  @DF-RHF Final Energy:  -380.80657359136791

   => Energetics <=

    Nuclear Repulsion Energy =            335.7385311113231410
    One-Electron Energy =               -1187.8747229550431257
    Two-Electron Energy =                 471.3296182523520770
    Total Energy =                       -380.8065735913679077
  Basis Set: (AUG-CC-PVTZ AUX)
    Blend: AUG-CC-PVTZ-RI
    Molecular point group: c1

    Geometry (in Angstrom), charge = 0, multiplicity = 1:

       Center              X                  Y                   Z               Mass
    ------------   -----------------  -----------------  -----------------  -----------------
         O            1.850487452549    -0.750805596607    -0.033689828659    15.994914619570
         O           -0.472334547451     1.602724403393    -0.258387828659    15.994914619570
         O           -2.127445547451    -0.556698596607    -0.227059828659    15.994914619570
         C            0.023557452549     0.322898403393     0.059616171341    12.000000000000
         C            1.350590452549     0.318112403393     0.815510171341    12.000000000000
         C            0.814976452549    -0.447462596607    -1.012403828659    12.000000000000
         C           -1.065912147451    -0.513013896607     0.704599771341    12.000000000000
         H            1.898557452549     1.256957403393     0.666393171341     1.007825032230
         H            1.354455452549     0.040720403393     1.875692171341     1.007825032230
         H            0.376133452549    -1.351503596607    -1.445316828659     1.007825032230
         H            1.180512452549     0.222883403393    -1.800039828659     1.007825032230
         H           -1.362583547451    -0.024374596607     1.651660171341     1.007825032230
         H           -0.662358547451    -1.513542596607     0.944651171341     1.007825032230
         H           -1.369231547451     1.449282403393    -0.613707828659     1.007825032230
         H           -2.897562547451    -0.961958596607     0.204747171341     1.007825032230

  Basis Set: AUG-CC-PVTZ
    Blend: AUG-CC-PVTZ
  Basis Set: (AUG-CC-PVTZ AUX)
    Blend: AUG-CC-PVTZ-JKFIT
	 Reference Energy          =    -380.8065735913679077 [Eh]
	 Singles Energy            =      -0.0000000000000000 [Eh]
	 Same-Spin Energy          =      -0.3697868947698522 [Eh]
	 Opposite-Spin Energy      =      -1.1723792243943596 [Eh]
	 Correlation Energy        =      -1.5421661191642118 [Eh]
	 Total Energy              =    -382.3487397105321293 [Eh]

	 ================> DF-SCS-MP2 Energies <==================
	-----------------------------------------------------------
	 SCS Same-Spin Scale       =       0.3333333333333333 [-]
	 SCS Opposite-Spin Scale   =       1.2000000000000000 [-]
	 SCS Same-Spin Energy      =      -0.1232622982566174 [Eh]
	 SCS Opposite-Spin Energy  =      -1.4068550692732316 [Eh]
	 SCS Correlation Energy    =      -1.5301173675298489 [Eh]
	 SCS Total Energy          =    -382.3366909588977478 [Eh]
	-----------------------------------------------------------

  Dipole Moment: [D]
     X:    -2.6227      Y:    -0.8266      Z:     1.1874     Total:     2.9953

*** Psi4 exiting successfully. Buy a developer a beer!
