                               Psi4 1.3.2 release

  ==> Input File <==

--------------------------------------------------------------------------
#psi4
#
memory 32 gb

molecule  {
0 1
  O        1.8620410    -0.7430760    -0.0482260
  O       -0.4607810     1.6104540    -0.2729240
  O       -2.1158920    -0.5489690    -0.2415960
  C        0.0351110     0.3306280     0.0450800
  C        1.3621440     0.3258420     0.8009740
  C        0.8265300    -0.4397330    -1.0269400
  C       -1.1895796    -0.5108490     0.5713863
  H        1.9101110     1.2646870     0.6518570
  H        1.3660090     0.0484500     1.8611560
  H        0.3876870    -1.3437740    -1.4598530
  H        1.1920660     0.2306130    -1.8145760
  H       -1.3510300    -0.0166450     1.6371240
  H       -0.6508050    -1.5058130     0.9301150
  H       -1.3576780     1.4570120    -0.6282440
  H       -2.8860090    -0.9542290     0.1902110
units angstrom
no_reorient  #important for SAPT in psi4, default
symmetry c1  #important for SAPT in psi4, default
}

set PROPERTIES_ORIGIN ["COM"]
properties('MP2/aug-cc-pvtz', properties = ['dipole'])
--------------------------------------------------------------------------

    Molecular point group: c1
  Charge       = 0
  Multiplicity = 1
  Basis Set: AUG-CC-PVTZ
    Blend: AUG-CC-PVTZ
  Basis Set: (AUG-CC-PVTZ AUX)
    Blend: AUG-CC-PVTZ-JKFIT

    Orbital Energies [Eh]
    ---------------------

    Doubly Occupied:

       1A    -20.608097     2A    -20.562408     3A    -20.551758
       4A    -11.302870     5A    -11.291139     6A    -11.280223
       7A    -11.272130     8A     -1.485129     9A     -1.385715
      10A     -1.355371    11A     -1.019150    12A     -0.934715
      13A     -0.914748    14A     -0.775171    15A     -0.754666
      16A     -0.720218    17A     -0.689999    18A     -0.673433
      19A     -0.634957    20A     -0.615565    21A     -0.576549
      22A     -0.555242    23A     -0.538280    24A     -0.498832
      25A     -0.467674    26A     -0.435762    27A     -0.426335
      28A     -0.401043

  @DF-RHF Final Energy:  -380.76203201671581

   => Energetics <=

    Nuclear Repulsion Energy =            336.8638669756699073
    One-Electron Energy =               -1189.7974474913703489
    Two-Electron Energy =                 472.1715484989846345
    Total Energy =                       -380.7620320167158070
  Basis Set: (AUG-CC-PVTZ AUX)
    Blend: AUG-CC-PVTZ-RI
    Molecular point group: c1

    Geometry (in Angstrom), charge = 0, multiplicity = 1:

       Center              X                  Y                   Z               Mass
    ------------   -----------------  -----------------  -----------------  -----------------
         O            1.866082776138    -0.750163808000    -0.020002524941    15.994914619570
         O           -0.456739223862     1.603366192000    -0.244700524941    15.994914619570
         O           -2.111850223862    -0.556056808000    -0.213372524941    15.994914619570
         C            0.039152776138     0.323540192000     0.073303475059    12.000000000000
         C            1.366185776138     0.318754192000     0.829197475059    12.000000000000
         C            0.830571776138    -0.446820808000    -0.998716524941    12.000000000000
         C           -1.185537823862    -0.517936808000     0.599609775059    12.000000000000
         H            1.914152776138     1.257599192000     0.680080475059     1.007825032230
         H            1.370050776138     0.041362192000     1.889379475059     1.007825032230
         H            0.391728776138    -1.350861808000    -1.431629524941     1.007825032230
         H            1.196107776138     0.223525192000    -1.786352524941     1.007825032230
         H           -1.346988223862    -0.023732808000     1.665347475059     1.007825032230
         H           -0.646763223862    -1.512900808000     0.958338475059     1.007825032230
         H           -1.353636223862     1.449924192000    -0.600020524941     1.007825032230
         H           -2.881967223862    -0.961316808000     0.218434475059     1.007825032230

  Basis Set: AUG-CC-PVTZ
    Blend: AUG-CC-PVTZ
  Basis Set: (AUG-CC-PVTZ AUX)
    Blend: AUG-CC-PVTZ-JKFIT
	 Reference Energy          =    -380.7620320167158070 [Eh]
	 Singles Energy            =      -0.0000000000000000 [Eh]
	 Same-Spin Energy          =      -0.3705345317658773 [Eh]
	 Opposite-Spin Energy      =      -1.1716358268524818 [Eh]
	 Correlation Energy        =      -1.5421703586183590 [Eh]
	 Total Energy              =    -382.3042023753341709 [Eh]

	 ================> DF-SCS-MP2 Energies <==================
	-----------------------------------------------------------
	 SCS Same-Spin Scale       =       0.3333333333333333 [-]
	 SCS Opposite-Spin Scale   =       1.2000000000000000 [-]
	 SCS Same-Spin Energy      =      -0.1235115105886258 [Eh]
	 SCS Opposite-Spin Energy  =      -1.4059629922229782 [Eh]
	 SCS Correlation Energy    =      -1.5294745028116039 [Eh]
	 SCS Total Energy          =    -382.2915065195273883 [Eh]
	-----------------------------------------------------------

  Dipole Moment: [D]
     X:    -3.2469      Y:    -0.8421      Z:     0.7058     Total:     3.4278

*** Psi4 exiting successfully. Buy a developer a beer!
