                               Psi4 1.3.2 release

  ==> Input File <==

--------------------------------------------------------------------------
#psi4
#
memory 32 gb

molecule  {
0 1
  O        1.8620410    -0.7430760    -0.0482260
  O       -0.4607810     1.6104540    -0.2729240
  O       -2.1158920    -0.5489690    -0.2415960
  C       -0.0072690     0.3112486     0.0293708
  C        1.3621440     0.3258420     0.8009740
  C        0.8265300    -0.4397330    -1.0269400
  C       -1.0393340    -0.5046660     0.7032500
  H        1.9101110     1.2646870     0.6518570
  H        1.3660090     0.0484500     1.8611560
  H        0.3876870    -1.3437740    -1.4598530
  H        1.1920660     0.2306130    -1.8145760
  H       -1.3510300    -0.0166450     1.6371240
  H       -0.6508050    -1.5058130     0.9301150
  H       -1.3576780     1.4570120    -0.6282440
  H       -2.8860090    -0.9542290     0.1902110
units angstrom
no_reorient  #important for SAPT in psi4, default
symmetry c1  #important for SAPT in psi4, default
}

set PROPERTIES_ORIGIN ["COM"]
properties('MP2/aug-cc-pvtz', properties = ['dipole'])
--------------------------------------------------------------------------

    Molecular point group: c1
  Charge       = 0
  Multiplicity = 1
  Basis Set: AUG-CC-PVTZ
    Blend: AUG-CC-PVTZ
  Basis Set: (AUG-CC-PVTZ AUX)
    Blend: AUG-CC-PVTZ-JKFIT

    Orbital Energies [Eh]
    ---------------------

    Doubly Occupied:

       1A    -20.584655     2A    -20.566536     3A    -20.554424
       4A    -11.293627     5A    -11.292811     6A    -11.281490
       7A    -11.277778     8A     -1.400394     9A     -1.374297
      10A     -1.354719    11A     -1.039541    12A     -0.934542
      13A     -0.916888    14A     -0.760058    15A     -0.733692
      16A     -0.703532    17A     -0.675792    18A     -0.658264
      19A     -0.618590    20A     -0.600252    21A     -0.571523
      22A     -0.549207    23A     -0.544731    24A     -0.519879
      25A     -0.476216    26A     -0.466481    27A     -0.429308
      28A     -0.419159

  @DF-RHF Final Energy:  -380.80328468530723

   => Energetics <=

    Nuclear Repulsion Energy =            335.6521883676765015
    One-Electron Energy =               -1187.7141797880390186
    Two-Electron Energy =                 471.2587067350553411
    Total Energy =                       -380.8032846853072328
  Basis Set: (AUG-CC-PVTZ AUX)
    Blend: AUG-CC-PVTZ-RI
    Molecular point group: c1

    Geometry (in Angstrom), charge = 0, multiplicity = 1:

       Center              X                  Y                   Z               Mass
    ------------   -----------------  -----------------  -----------------  -----------------
         O            1.853642408620    -0.748641839310    -0.033398868805    15.994914619570
         O           -0.469179591380     1.604888160690    -0.258096868805    15.994914619570
         O           -2.124290591380    -0.554534839310    -0.226768868805    15.994914619570
         C           -0.015667591380     0.305682760690     0.044197931195    12.000000000000
         C            1.353745408620     0.320276160690     0.815801131195    12.000000000000
         C            0.818131408620    -0.445298839310    -1.012112868805    12.000000000000
         C           -1.047732591380    -0.510231839310     0.718077131195    12.000000000000
         H            1.901712408620     1.259121160690     0.666684131195     1.007825032230
         H            1.357610408620     0.042884160690     1.875983131195     1.007825032230
         H            0.379288408620    -1.349339839310    -1.445025868805     1.007825032230
         H            1.183667408620     0.225047160690    -1.799748868805     1.007825032230
         H           -1.359428591380    -0.022210839310     1.651951131195     1.007825032230
         H           -0.659203591380    -1.511378839310     0.944942131195     1.007825032230
         H           -1.366076591380     1.451446160690    -0.613416868805     1.007825032230
         H           -2.894407591380    -0.959794839310     0.205038131195     1.007825032230

  Basis Set: AUG-CC-PVTZ
    Blend: AUG-CC-PVTZ
  Basis Set: (AUG-CC-PVTZ AUX)
    Blend: AUG-CC-PVTZ-JKFIT
	 Reference Energy          =    -380.8032846853072328 [Eh]
	 Singles Energy            =      -0.0000000000000000 [Eh]
	 Same-Spin Energy          =      -0.3701383003177762 [Eh]
	 Opposite-Spin Energy      =      -1.1733883637035618 [Eh]
	 Correlation Energy        =      -1.5435266640213381 [Eh]
	 Total Energy              =    -382.3468113493285614 [Eh]

	 ================> DF-SCS-MP2 Energies <==================
	-----------------------------------------------------------
	 SCS Same-Spin Scale       =       0.3333333333333333 [-]
	 SCS Opposite-Spin Scale   =       1.2000000000000000 [-]
	 SCS Same-Spin Energy      =      -0.1233794334392587 [Eh]
	 SCS Opposite-Spin Energy  =      -1.4080660364442741 [Eh]
	 SCS Correlation Energy    =      -1.5314454698835329 [Eh]
	 SCS Total Energy          =    -382.3347301551907549 [Eh]
	-----------------------------------------------------------

  Dipole Moment: [D]
     X:    -2.6137      Y:    -0.8225      Z:     1.2323     Total:     3.0044

*** Psi4 exiting successfully. Buy a developer a beer!
