                               Psi4 1.4a3.dev225

  ==> Input File <==

--------------------------------------------------------------------------
#psi4
#
memory 32 gb

molecule  {
0 1
  O        1.8620410    -0.7430760    -0.0482260
  O       -0.4607810     1.6104540    -0.2729240
  O       -2.1158920    -0.5489690    -0.2415960
  C        0.0351110     0.3306280     0.0450800
  C        1.3621440     0.3258420     0.8009740
  C        0.8265300    -0.4397330    -1.0269400
  C       -1.0748709    -0.5322930     0.7250187
  H        1.9101110     1.2646870     0.6518570
  H        1.3660090     0.0484500     1.8611560
  H        0.3876870    -1.3437740    -1.4598530
  H        1.1920660     0.2306130    -1.8145760
  H       -1.3510300    -0.0166450     1.6371240
  H       -0.6508050    -1.5058130     0.9301150
  H       -1.3576780     1.4570120    -0.6282440
  H       -2.8860090    -0.9542290     0.1902110
units angstrom
no_reorient  #important for SAPT in psi4, default
symmetry c1  #important for SAPT in psi4, default
}

set PROPERTIES_ORIGIN ["COM"]
properties('MP2/aug-cc-pvtz', properties = ['dipole'])
--------------------------------------------------------------------------

    Molecular point group: c1
  Charge       = 0
  Multiplicity = 1
  Basis Set: AUG-CC-PVTZ
    Blend: AUG-CC-PVTZ
  Basis Set: (AUG-CC-PVTZ AUX)
    Blend: AUG-CC-PVTZ-JKFIT

    Orbital Energies [Eh]
    ---------------------

    Doubly Occupied:

       1A    -20.587522     2A    -20.564899     3A    -20.554056
       4A    -11.294556     5A    -11.292339     6A    -11.279558
       7A    -11.275933     8A     -1.400485     9A     -1.377949
      10A     -1.354286    11A     -1.029023    12A     -0.935536
      13A     -0.918866    14A     -0.758129    15A     -0.732451
      16A     -0.703951    17A     -0.675148    18A     -0.662474
      19A     -0.620246    20A     -0.600051    21A     -0.572517
      22A     -0.551406    23A     -0.542127    24A     -0.510590
      25A     -0.480566    26A     -0.467950    27A     -0.434176
      28A     -0.411920

  @DF-RHF Final Energy:  -380.80431165204618

   => Energetics <=

    Nuclear Repulsion Energy =            334.9096517808731051
    One-Electron Energy =               -1186.2505016406380491
    Two-Electron Energy =                 470.5365382077187633
    Total Energy =                       -380.8043116520461808
  Basis Set: (AUG-CC-PVTZ AUX)
    Blend: AUG-CC-PVTZ-RI
    Molecular point group: c1

    Geometry (in Angstrom), charge = 0, multiplicity = 1:

       Center              X                  Y                   Z               Mass
    ------------   -----------------  -----------------  -----------------  -----------------
         O            1.852853179441    -0.747690626179    -0.037721274186    15.994914619570
         O           -0.469968820559     1.605839373821    -0.262419274186    15.994914619570
         O           -2.125079820559    -0.553583626179    -0.231091274186    15.994914619570
         C            0.025923179441     0.326013373821     0.055584725814    12.000000000000
         C            1.352956179441     0.321227373821     0.811478725814    12.000000000000
         C            0.817342179441    -0.444347626179    -1.016435274186    12.000000000000
         C           -1.084058720559    -0.536907626179     0.735523425814    12.000000000000
         H            1.900923179441     1.260072373821     0.662361725814     1.007825032230
         H            1.356821179441     0.043835373821     1.871660725814     1.007825032230
         H            0.378499179441    -1.348388626179    -1.449348274186     1.007825032230
         H            1.182878179441     0.225998373821    -1.804071274186     1.007825032230
         H           -1.360217820559    -0.021259626179     1.647628725814     1.007825032230
         H           -0.659992820559    -1.510427626179     0.940619725814     1.007825032230
         H           -1.366865820559     1.452397373821    -0.617739274186     1.007825032230
         H           -2.895196820559    -0.958843626179     0.200715725814     1.007825032230

  Basis Set: AUG-CC-PVTZ
    Blend: AUG-CC-PVTZ
  Basis Set: (AUG-CC-PVTZ AUX)
    Blend: AUG-CC-PVTZ-JKFIT
	 Reference Energy          =    -380.8043116520461808 [Eh]
	 Singles Energy            =      -0.0000000000000000 [Eh]
	 Same-Spin Energy          =      -0.3697352645387513 [Eh]
	 Opposite-Spin Energy      =      -1.1726755890102507 [Eh]
	 Correlation Energy        =      -1.5424108535490020 [Eh]
	 Total Energy              =    -382.3467225055952099 [Eh]

	 ================> DF-SCS-MP2 Energies <==================
	-----------------------------------------------------------
	 SCS Same-Spin Scale       =       0.3333333333333333 [-]
	 SCS Opposite-Spin Scale   =       1.2000000000000000 [-]
	 SCS Same-Spin Energy      =      -0.1232450881795838 [Eh]
	 SCS Opposite-Spin Energy  =      -1.4072107068123008 [Eh]
	 SCS Correlation Energy    =      -1.5304557949918844 [Eh]
	 SCS Total Energy          =    -382.3347674470380753 [Eh]
	-----------------------------------------------------------

  Dipole Moment: [D]
     X:    -2.6488      Y:    -0.8319      Z:     1.2146     Total:     3.0305

*** Psi4 exiting successfully. Buy a developer a beer!
