                               Psi4 1.3.2 release

  ==> Input File <==

--------------------------------------------------------------------------
#psi4
#
memory 32 gb

molecule  {
0 1
  O        1.8620410    -0.7430760    -0.0482260
  O       -0.4607810     1.6104540    -0.2729240
  O       -2.0304097    -0.4641818    -0.3310632
  C        0.0351110     0.3306280     0.0450800
  C        1.3621440     0.3258420     0.8009740
  C        0.8265300    -0.4397330    -1.0269400
  C       -1.0393340    -0.5046660     0.7032500
  H        1.9101110     1.2646870     0.6518570
  H        1.3660090     0.0484500     1.8611560
  H        0.3876870    -1.3437740    -1.4598530
  H        1.1920660     0.2306130    -1.8145760
  H       -1.3510300    -0.0166450     1.6371240
  H       -0.6508050    -1.5058130     0.9301150
  H       -1.3576780     1.4570120    -0.6282440
  H       -2.8860090    -0.9542290     0.1902110
units angstrom
no_reorient  #important for SAPT in psi4, default
symmetry c1  #important for SAPT in psi4, default
}

set PROPERTIES_ORIGIN ["COM"]
properties('MP2/aug-cc-pvtz', properties = ['dipole'])
--------------------------------------------------------------------------

    Molecular point group: c1
  Charge       = 0
  Multiplicity = 1
  Basis Set: AUG-CC-PVTZ
    Blend: AUG-CC-PVTZ
  Basis Set: (AUG-CC-PVTZ AUX)
    Blend: AUG-CC-PVTZ-JKFIT

    Orbital Energies [Eh]
    ---------------------

    Doubly Occupied:

       1A    -20.601758     2A    -20.561325     3A    -20.552907
       4A    -11.293262     5A    -11.289552     6A    -11.277575
       7A    -11.274916     8A     -1.396731     9A     -1.367163
      10A     -1.343994    11A     -1.031054    12A     -0.934591
      13A     -0.910791    14A     -0.758429    15A     -0.724809
      16A     -0.695524    17A     -0.666497    18A     -0.659064
      19A     -0.609785    20A     -0.595901    21A     -0.567118
      22A     -0.549521    23A     -0.541786    24A     -0.511343
      25A     -0.478865    26A     -0.466541    27A     -0.432791
      28A     -0.412876

  @DF-RHF Final Energy:  -380.77721564837827

   => Energetics <=

    Nuclear Repulsion Energy =            336.8774523684892301
    One-Electron Energy =               -1190.2963963715537830
    Two-Electron Energy =                 472.6417283546862791
    Total Energy =                       -380.7772156483782737
  Basis Set: (AUG-CC-PVTZ AUX)
    Blend: AUG-CC-PVTZ-RI
    Molecular point group: c1

    Geometry (in Angstrom), charge = 0, multiplicity = 1:

       Center              X                  Y                   Z               Mass
    ------------   -----------------  -----------------  -----------------  -----------------
         O            1.835613672703    -0.763911011612    -0.021457095223    15.994914619570
         O           -0.487208327297     1.589618988388    -0.246155095223    15.994914619570
         O           -2.056837027297    -0.485016811612    -0.304294295223    15.994914619570
         C            0.008683672703     0.309792988388     0.071848904777    12.000000000000
         C            1.335716672703     0.305006988388     0.827742904777    12.000000000000
         C            0.800102672703    -0.460568011612    -1.000171095223    12.000000000000
         C           -1.065761327297    -0.525501011612     0.730018904777    12.000000000000
         H            1.883683672703     1.243851988388     0.678625904777     1.007825032230
         H            1.339581672703     0.027614988388     1.887924904777     1.007825032230
         H            0.361259672703    -1.364609011612    -1.433084095223     1.007825032230
         H            1.165638672703     0.209777988388    -1.787807095223     1.007825032230
         H           -1.377457327297    -0.037480011612     1.663892904777     1.007825032230
         H           -0.677232327297    -1.526648011612     0.956883904777     1.007825032230
         H           -1.384105327297     1.436176988388    -0.601475095223     1.007825032230
         H           -2.912436327297    -0.975064011612     0.216979904777     1.007825032230

  Basis Set: AUG-CC-PVTZ
    Blend: AUG-CC-PVTZ
  Basis Set: (AUG-CC-PVTZ AUX)
    Blend: AUG-CC-PVTZ-JKFIT
	 Reference Energy          =    -380.7772156483782737 [Eh]
	 Singles Energy            =      -0.0000000000000000 [Eh]
	 Same-Spin Energy          =      -0.3725507902344681 [Eh]
	 Opposite-Spin Energy      =      -1.1792367434276267 [Eh]
	 Correlation Energy        =      -1.5517875336620950 [Eh]
	 Total Energy              =    -382.3290031820403669 [Eh]

	 ================> DF-SCS-MP2 Energies <==================
	-----------------------------------------------------------
	 SCS Same-Spin Scale       =       0.3333333333333333 [-]
	 SCS Opposite-Spin Scale   =       1.2000000000000000 [-]
	 SCS Same-Spin Energy      =      -0.1241835967448227 [Eh]
	 SCS Opposite-Spin Energy  =      -1.4150840921131520 [Eh]
	 SCS Correlation Energy    =      -1.5392676888579748 [Eh]
	 SCS Total Energy          =    -382.3164833372362637 [Eh]
	-----------------------------------------------------------

  Dipole Moment: [D]
     X:    -2.7886      Y:    -0.9928      Z:     1.3184     Total:     3.2404

*** Psi4 exiting successfully. Buy a developer a beer!
