                               Psi4 1.3.2 release

  ==> Input File <==

--------------------------------------------------------------------------
#psi4
#
memory 32 gb

molecule  {
0 1
  O        1.8620410    -0.7430760    -0.0482260
  O       -0.4607810     1.6104540    -0.2729240
  O       -2.1158920    -0.5489690    -0.2415960
  C        0.0351110     0.3306280     0.0450800
  C        1.3513875     0.3097347     0.8192860
  C        0.8265300    -0.4397330    -1.0269400
  C       -1.0393340    -0.5046660     0.7032500
  H        1.9101110     1.2646870     0.6518570
  H        1.3660090     0.0484500     1.8611560
  H        0.3876870    -1.3437740    -1.4598530
  H        1.1920660     0.2306130    -1.8145760
  H       -1.3510300    -0.0166450     1.6371240
  H       -0.6508050    -1.5058130     0.9301150
  H       -1.3576780     1.4570120    -0.6282440
  H       -2.8860090    -0.9542290     0.1902110
units angstrom
no_reorient  #important for SAPT in psi4, default
symmetry c1  #important for SAPT in psi4, default
}

set PROPERTIES_ORIGIN ["COM"]
properties('MP2/aug-cc-pvtz', properties = ['dipole'])
--------------------------------------------------------------------------

    Molecular point group: c1
  Charge       = 0
  Multiplicity = 1
  Basis Set: AUG-CC-PVTZ
    Blend: AUG-CC-PVTZ
  Basis Set: (AUG-CC-PVTZ AUX)
    Blend: AUG-CC-PVTZ-JKFIT

    Orbital Energies [Eh]
    ---------------------

    Doubly Occupied:

       1A    -20.584329     2A    -20.565466     3A    -20.554665
       4A    -11.294118     5A    -11.293231     6A    -11.281192
       7A    -11.276685     8A     -1.399213     9A     -1.374558
      10A     -1.353991    11A     -1.037523    12A     -0.937607
      13A     -0.917401    14A     -0.760574    15A     -0.731055
      16A     -0.704383    17A     -0.678519    18A     -0.659162
      19A     -0.620120    20A     -0.597418    21A     -0.568710
      22A     -0.551588    23A     -0.542712    24A     -0.514338
      25A     -0.476472    26A     -0.472383    27A     -0.434587
      28A     -0.415420

  @DF-RHF Final Energy:  -380.80583624355506

   => Energetics <=

    Nuclear Repulsion Energy =            335.6046680530425306
    One-Electron Energy =               -1187.6261711119882420
    Two-Electron Energy =                 471.2156668153905912
    Total Energy =                       -380.8058362435550634
  Basis Set: (AUG-CC-PVTZ AUX)
    Blend: AUG-CC-PVTZ-RI
    Molecular point group: c1

    Geometry (in Angstrom), charge = 0, multiplicity = 1:

       Center              X                  Y                   Z               Mass
    ------------   -----------------  -----------------  -----------------  -----------------
         O            1.849995203560    -0.749019217516    -0.037322605672    15.994914619570
         O           -0.472826796440     1.604510782484    -0.262020605672    15.994914619570
         O           -2.127937796440    -0.554912217516    -0.230692605672    15.994914619570
         C            0.023065203560     0.324684782484     0.055983394328    12.000000000000
         C            1.339341703560     0.303791482484     0.830189394328    12.000000000000
         C            0.814484203560    -0.445676217516    -1.016036605672    12.000000000000
         C           -1.051379796440    -0.510609217516     0.714153394328    12.000000000000
         H            1.898065203560     1.258743782484     0.662760394328     1.007825032230
         H            1.353963203560     0.042506782484     1.872059394328     1.007825032230
         H            0.375641203560    -1.349717217516    -1.448949605672     1.007825032230
         H            1.180020203560     0.224669782484    -1.803672605672     1.007825032230
         H           -1.363075796440    -0.022588217516     1.648027394328     1.007825032230
         H           -0.662850796440    -1.511756217516     0.941018394328     1.007825032230
         H           -1.369723796440     1.451068782484    -0.617340605672     1.007825032230
         H           -2.898054796440    -0.960172217516     0.201114394328     1.007825032230

  Basis Set: AUG-CC-PVTZ
    Blend: AUG-CC-PVTZ
  Basis Set: (AUG-CC-PVTZ AUX)
    Blend: AUG-CC-PVTZ-JKFIT
	 Reference Energy          =    -380.8058362435550634 [Eh]
	 Singles Energy            =      -0.0000000000000000 [Eh]
	 Same-Spin Energy          =      -0.3698499861750107 [Eh]
	 Opposite-Spin Energy      =      -1.1727940151944201 [Eh]
	 Correlation Energy        =      -1.5426440013694309 [Eh]
	 Total Energy              =    -382.3484802449244739 [Eh]

	 ================> DF-SCS-MP2 Energies <==================
	-----------------------------------------------------------
	 SCS Same-Spin Scale       =       0.3333333333333333 [-]
	 SCS Opposite-Spin Scale   =       1.2000000000000000 [-]
	 SCS Same-Spin Energy      =      -0.1232833287250036 [Eh]
	 SCS Opposite-Spin Energy  =      -1.4073528182333039 [Eh]
	 SCS Correlation Energy    =      -1.5306361469583076 [Eh]
	 SCS Total Energy          =    -382.3364723905133928 [Eh]
	-----------------------------------------------------------

  Dipole Moment: [D]
     X:    -2.5736      Y:    -0.8433      Z:     1.2585     Total:     2.9864

*** Psi4 exiting successfully. Buy a developer a beer!
