                               Psi4 1.4a3.dev225

  ==> Input File <==

--------------------------------------------------------------------------
#psi4
#
memory 32 gb

molecule  {
0 1
  O        1.8620410    -0.7430760    -0.0482260
  O       -0.4607810     1.6104540    -0.2729240
  O       -2.1158920    -0.5489690    -0.2415960
  C        0.0351110     0.3306280     0.0450800
  C        1.3186981     0.3259987     0.7762267
  C        0.8265300    -0.4397330    -1.0269400
  C       -1.0393340    -0.5046660     0.7032500
  H        1.9101110     1.2646870     0.6518570
  H        1.3660090     0.0484500     1.8611560
  H        0.3876870    -1.3437740    -1.4598530
  H        1.1920660     0.2306130    -1.8145760
  H       -1.3510300    -0.0166450     1.6371240
  H       -0.6508050    -1.5058130     0.9301150
  H       -1.3576780     1.4570120    -0.6282440
  H       -2.8860090    -0.9542290     0.1902110
units angstrom
no_reorient  #important for SAPT in psi4, default
symmetry c1  #important for SAPT in psi4, default
}

set PROPERTIES_ORIGIN ["COM"]
properties('MP2/aug-cc-pvtz', properties = ['dipole'])
--------------------------------------------------------------------------

    Molecular point group: c1
  Charge       = 0
  Multiplicity = 1
  Basis Set: AUG-CC-PVTZ
    Blend: AUG-CC-PVTZ
  Basis Set: (AUG-CC-PVTZ AUX)
    Blend: AUG-CC-PVTZ-JKFIT

    Orbital Energies [Eh]
    ---------------------

    Doubly Occupied:

       1A    -20.585025     2A    -20.565942     3A    -20.555120
       4A    -11.294462     5A    -11.291860     6A    -11.282738
       7A    -11.277794     8A     -1.401858     9A     -1.376934
      10A     -1.355146    11A     -1.044499    12A     -0.934786
      13A     -0.922496    14A     -0.757913    15A     -0.731547
      16A     -0.708444    17A     -0.678131    18A     -0.659669
      19A     -0.622515    20A     -0.596657    21A     -0.568747
      22A     -0.546304    23A     -0.540304    24A     -0.515919
      25A     -0.483147    26A     -0.474916    27A     -0.436834
      28A     -0.413688

  @DF-RHF Final Energy:  -380.80323482306198

   => Energetics <=

    Nuclear Repulsion Energy =            336.5457392605727591
    One-Electron Energy =               -1189.4511612447729476
    Two-Electron Energy =                 472.1021871611382039
    Total Energy =                       -380.8032348230619846
  Basis Set: (AUG-CC-PVTZ AUX)
    Blend: AUG-CC-PVTZ-RI
    Molecular point group: c1

    Geometry (in Angstrom), charge = 0, multiplicity = 1:

       Center              X                  Y                   Z               Mass
    ------------   -----------------  -----------------  -----------------  -----------------
         O            1.853765341119    -0.750894978994    -0.032356485639    15.994914619570
         O           -0.469056658881     1.602635021006    -0.257054485639    15.994914619570
         O           -2.124167658881    -0.556787978994    -0.225726485639    15.994914619570
         C            0.026835341119     0.322809021006     0.060949514361    12.000000000000
         C            1.310422441119     0.318179721006     0.792096214361    12.000000000000
         C            0.818254341119    -0.447551978994    -1.011070485639    12.000000000000
         C           -1.047609658881    -0.512484978994     0.719119514361    12.000000000000
         H            1.901835341119     1.256868021006     0.667726514361     1.007825032230
         H            1.357733341119     0.040631021006     1.877025514361     1.007825032230
         H            0.379411341119    -1.351592978994    -1.443983485639     1.007825032230
         H            1.183790341119     0.222794021006    -1.798706485639     1.007825032230
         H           -1.359305658881    -0.024463978994     1.652993514361     1.007825032230
         H           -0.659080658881    -1.513631978994     0.945984514361     1.007825032230
         H           -1.365953658881     1.449193021006    -0.612374485639     1.007825032230
         H           -2.894284658881    -0.962047978994     0.206080514361     1.007825032230

  Basis Set: AUG-CC-PVTZ
    Blend: AUG-CC-PVTZ
  Basis Set: (AUG-CC-PVTZ AUX)
    Blend: AUG-CC-PVTZ-JKFIT
	 Reference Energy          =    -380.8032348230619846 [Eh]
	 Singles Energy            =      -0.0000000000000000 [Eh]
	 Same-Spin Energy          =      -0.3703250511064709 [Eh]
	 Opposite-Spin Energy      =      -1.1731723748563332 [Eh]
	 Correlation Energy        =      -1.5434974259628040 [Eh]
	 Total Energy              =    -382.3467322490247966 [Eh]

	 ================> DF-SCS-MP2 Energies <==================
	-----------------------------------------------------------
	 SCS Same-Spin Scale       =       0.3333333333333333 [-]
	 SCS Opposite-Spin Scale   =       1.2000000000000000 [-]
	 SCS Same-Spin Energy      =      -0.1234416837021570 [Eh]
	 SCS Opposite-Spin Energy  =      -1.4078068498275997 [Eh]
	 SCS Correlation Energy    =      -1.5312485335297568 [Eh]
	 SCS Total Energy          =    -382.3344833565917611 [Eh]
	-----------------------------------------------------------

  Dipole Moment: [D]
     X:    -2.5889      Y:    -0.8384      Z:     1.1838     Total:     2.9676

*** Psi4 exiting successfully. Buy a developer a beer!
