                               Psi4 1.3.2 release

  ==> Input File <==

--------------------------------------------------------------------------
#psi4
#
memory 32 gb

molecule  {
0 1
  O        1.9485325    -0.7398970     0.0047502
  O       -0.4607810     1.6104540    -0.2729240
  O       -2.1158920    -0.5489690    -0.2415960
  C        0.0351110     0.3306280     0.0450800
  C        1.3621440     0.3258420     0.8009740
  C        0.8265300    -0.4397330    -1.0269400
  C       -1.0393340    -0.5046660     0.7032500
  H        1.9101110     1.2646870     0.6518570
  H        1.3660090     0.0484500     1.8611560
  H        0.3876870    -1.3437740    -1.4598530
  H        1.1920660     0.2306130    -1.8145760
  H       -1.3510300    -0.0166450     1.6371240
  H       -0.6508050    -1.5058130     0.9301150
  H       -1.3576780     1.4570120    -0.6282440
  H       -2.8860090    -0.9542290     0.1902110
units angstrom
no_reorient  #important for SAPT in psi4, default
symmetry c1  #important for SAPT in psi4, default
}

set PROPERTIES_ORIGIN ["COM"]
properties('MP2/aug-cc-pvtz', properties = ['dipole'])
--------------------------------------------------------------------------

    Molecular point group: c1
  Charge       = 0
  Multiplicity = 1
  Basis Set: AUG-CC-PVTZ
    Blend: AUG-CC-PVTZ
  Basis Set: (AUG-CC-PVTZ AUX)
    Blend: AUG-CC-PVTZ-JKFIT

    Orbital Energies [Eh]
    ---------------------

    Doubly Occupied:

       1A    -20.586255     2A    -20.568715     3A    -20.554947
       4A    -11.297025     5A    -11.295113     6A    -11.288052
       7A    -11.278523     8A     -1.397528     9A     -1.366875
      10A     -1.342573    11A     -1.042633    12A     -0.932279
      13A     -0.920218    14A     -0.762436    15A     -0.732141
      16A     -0.702758    17A     -0.674074    18A     -0.657111
      19A     -0.614847    20A     -0.595280    21A     -0.570146
      22A     -0.548577    23A     -0.539398    24A     -0.516712
      25A     -0.477252    26A     -0.466053    27A     -0.436207
      28A     -0.420567

  @DF-RHF Final Energy:  -380.79714017422185

   => Energetics <=

    Nuclear Repulsion Energy =            333.4007716912134356
    One-Electron Energy =               -1183.2272358879351941
    Two-Electron Energy =                 469.0293240224999067
    Total Energy =                       -380.7971401742218518
  Basis Set: (AUG-CC-PVTZ AUX)
    Blend: AUG-CC-PVTZ-RI
    Molecular point group: c1

    Geometry (in Angstrom), charge = 0, multiplicity = 1:

       Center              X                  Y                   Z               Mass
    ------------   -----------------  -----------------  -----------------  -----------------
         O            1.921950031138    -0.748186605457     0.009621669138    15.994914619570
         O           -0.487363468862     1.602164394543    -0.268052530862    15.994914619570
         O           -2.142474468862    -0.557258605457    -0.236724530862    15.994914619570
         C            0.008528531138     0.322338394543     0.049951469138    12.000000000000
         C            1.335561531138     0.317552394543     0.805845469138    12.000000000000
         C            0.799947531138    -0.448022605457    -1.022068530862    12.000000000000
         C           -1.065916468862    -0.512955605457     0.708121469138    12.000000000000
         H            1.883528531138     1.256397394543     0.656728469138     1.007825032230
         H            1.339426531138     0.040160394543     1.866027469138     1.007825032230
         H            0.361104531138    -1.352063605457    -1.454981530862     1.007825032230
         H            1.165483531138     0.222323394543    -1.809704530862     1.007825032230
         H           -1.377612468862    -0.024934605457     1.641995469138     1.007825032230
         H           -0.677387468862    -1.514102605457     0.934986469138     1.007825032230
         H           -1.384260468862     1.448722394543    -0.623372530862     1.007825032230
         H           -2.912591468862    -0.962518605457     0.195082469138     1.007825032230

  Basis Set: AUG-CC-PVTZ
    Blend: AUG-CC-PVTZ
  Basis Set: (AUG-CC-PVTZ AUX)
    Blend: AUG-CC-PVTZ-JKFIT
	 Reference Energy          =    -380.7971401742218518 [Eh]
	 Singles Energy            =      -0.0000000000000000 [Eh]
	 Same-Spin Energy          =      -0.3705887337917481 [Eh]
	 Opposite-Spin Energy      =      -1.1756811666844704 [Eh]
	 Correlation Energy        =      -1.5462699004762186 [Eh]
	 Total Energy              =    -382.3434100746980562 [Eh]

	 ================> DF-SCS-MP2 Energies <==================
	-----------------------------------------------------------
	 SCS Same-Spin Scale       =       0.3333333333333333 [-]
	 SCS Opposite-Spin Scale   =       1.2000000000000000 [-]
	 SCS Same-Spin Energy      =      -0.1235295779305827 [Eh]
	 SCS Opposite-Spin Energy  =      -1.4108174000213645 [Eh]
	 SCS Correlation Energy    =      -1.5343469779519472 [Eh]
	 SCS Total Energy          =    -382.3314871521737928 [Eh]
	-----------------------------------------------------------

  Dipole Moment: [D]
     X:    -2.8171      Y:    -0.8011      Z:     1.0114     Total:     3.0986

*** Psi4 exiting successfully. Buy a developer a beer!
