                               Psi4 1.3.2 release

  ==> Input File <==

--------------------------------------------------------------------------
#psi4
#
memory 32 gb

molecule  {
0 1
  O        1.8620410    -0.7430760    -0.0482260
  O       -0.4607810     1.6104540    -0.2729240
  O       -2.1158920    -0.5489690    -0.2415960
  C        0.0351110     0.3306280     0.0450800
  C        1.1883604     0.3264688     0.7019848
  C        0.8265300    -0.4397330    -1.0269400
  C       -1.0393340    -0.5046660     0.7032500
  H        1.9101110     1.2646870     0.6518570
  H        1.3660090     0.0484500     1.8611560
  H        0.3876870    -1.3437740    -1.4598530
  H        1.1920660     0.2306130    -1.8145760
  H       -1.3510300    -0.0166450     1.6371240
  H       -0.6508050    -1.5058130     0.9301150
  H       -1.3576780     1.4570120    -0.6282440
  H       -2.8860090    -0.9542290     0.1902110
units angstrom
no_reorient  #important for SAPT in psi4, default
symmetry c1  #important for SAPT in psi4, default
}

set PROPERTIES_ORIGIN ["COM"]
properties('MP2/aug-cc-pvtz', properties = ['dipole'])
--------------------------------------------------------------------------

    Molecular point group: c1
  Charge       = 0
  Multiplicity = 1
  Basis Set: AUG-CC-PVTZ
    Blend: AUG-CC-PVTZ
  Basis Set: (AUG-CC-PVTZ AUX)
    Blend: AUG-CC-PVTZ-JKFIT

    Orbital Energies [Eh]
    ---------------------

    Doubly Occupied:

       1A    -20.586501     2A    -20.568723     3A    -20.555183
       4A    -11.297520     5A    -11.290812     6A    -11.285010
       7A    -11.282907     8A     -1.410242     9A     -1.380450
      10A     -1.357808    11A     -1.076473    12A     -0.937622
      13A     -0.927642    14A     -0.750988    15A     -0.733773
      16A     -0.717822    17A     -0.682750    18A     -0.662140
      19A     -0.630876    20A     -0.595898    21A     -0.562479
      22A     -0.543912    23A     -0.534930    24A     -0.515730
      25A     -0.498591    26A     -0.477359    27A     -0.436843
      28A     -0.400762

  @DF-RHF Final Energy:  -380.75293438469112

   => Energetics <=

    Nuclear Repulsion Energy =            339.3927858549325265
    One-Electron Energy =               -1194.8879484782062264
    Two-Electron Energy =                 474.7422282385825838
    Total Energy =                       -380.7529343846911161
  Basis Set: (AUG-CC-PVTZ AUX)
    Blend: AUG-CC-PVTZ-RI
    Molecular point group: c1

    Geometry (in Angstrom), charge = 0, multiplicity = 1:

       Center              X                  Y                   Z               Mass
    ------------   -----------------  -----------------  -----------------  -----------------
         O            1.868797463402    -0.750949196620    -0.023794010474    15.994914619570
         O           -0.454024536598     1.602580803380    -0.248492010474    15.994914619570
         O           -2.109135536598    -0.556842196620    -0.217164010474    15.994914619570
         C            0.041867463402     0.322754803380     0.069511989526    12.000000000000
         C            1.195116863402     0.318595603380     0.726416789526    12.000000000000
         C            0.833286463402    -0.447606196620    -1.002508010474    12.000000000000
         C           -1.032577536598    -0.512539196620     0.727681989526    12.000000000000
         H            1.916867463402     1.256813803380     0.676288989526     1.007825032230
         H            1.372765463402     0.040576803380     1.885587989526     1.007825032230
         H            0.394443463402    -1.351647196620    -1.435421010474     1.007825032230
         H            1.198822463402     0.222739803380    -1.790144010474     1.007825032230
         H           -1.344273536598    -0.024518196620     1.661555989526     1.007825032230
         H           -0.644048536598    -1.513686196620     0.954546989526     1.007825032230
         H           -1.350921536598     1.449138803380    -0.603812010474     1.007825032230
         H           -2.879252536598    -0.962102196620     0.214642989526     1.007825032230

  Basis Set: AUG-CC-PVTZ
    Blend: AUG-CC-PVTZ
  Basis Set: (AUG-CC-PVTZ AUX)
    Blend: AUG-CC-PVTZ-JKFIT
	 Reference Energy          =    -380.7529343846911161 [Eh]
	 Singles Energy            =      -0.0000000000000000 [Eh]
	 Same-Spin Energy          =      -0.3734300269700352 [Eh]
	 Opposite-Spin Energy      =      -1.1774325348826800 [Eh]
	 Correlation Energy        =      -1.5508625618527152 [Eh]
	 Total Energy              =    -382.3037969465438550 [Eh]

	 ================> DF-SCS-MP2 Energies <==================
	-----------------------------------------------------------
	 SCS Same-Spin Scale       =       0.3333333333333333 [-]
	 SCS Opposite-Spin Scale   =       1.2000000000000000 [-]
	 SCS Same-Spin Energy      =      -0.1244766756566784 [Eh]
	 SCS Opposite-Spin Energy  =      -1.4129190418592159 [Eh]
	 SCS Correlation Energy    =      -1.5373957175158943 [Eh]
	 SCS Total Energy          =    -382.2903301022070082 [Eh]
	-----------------------------------------------------------

  Dipole Moment: [D]
     X:    -2.6878      Y:    -0.8947      Z:     0.9933     Total:     3.0019

*** Psi4 exiting successfully. Buy a developer a beer!
