                               Psi4 1.3.2 release

  ==> Input File <==

--------------------------------------------------------------------------
#psi4
#
memory 32 gb

molecule  {
0 1
  O        1.8620410    -0.7430760    -0.0482260
  O       -0.4607810     1.6104540    -0.2729240
  O       -2.1158920    -0.5489690    -0.2415960
  C       -0.0502015     0.2934520     0.0132933
  C        1.3621440     0.3258420     0.8009740
  C        0.8265300    -0.4397330    -1.0269400
  C       -1.0393340    -0.5046660     0.7032500
  H        1.9101110     1.2646870     0.6518570
  H        1.3660090     0.0484500     1.8611560
  H        0.3876870    -1.3437740    -1.4598530
  H        1.1920660     0.2306130    -1.8145760
  H       -1.3510300    -0.0166450     1.6371240
  H       -0.6508050    -1.5058130     0.9301150
  H       -1.3576780     1.4570120    -0.6282440
  H       -2.8860090    -0.9542290     0.1902110
units angstrom
no_reorient  #important for SAPT in psi4, default
symmetry c1  #important for SAPT in psi4, default
}

set PROPERTIES_ORIGIN ["COM"]
properties('MP2/aug-cc-pvtz', properties = ['dipole'])
--------------------------------------------------------------------------

    Molecular point group: c1
  Charge       = 0
  Multiplicity = 1
  Basis Set: AUG-CC-PVTZ
    Blend: AUG-CC-PVTZ
  Basis Set: (AUG-CC-PVTZ AUX)
    Blend: AUG-CC-PVTZ-JKFIT

    Orbital Energies [Eh]
    ---------------------

    Doubly Occupied:

       1A    -20.584690     2A    -20.568083     3A    -20.554009
       4A    -11.293758     5A    -11.292326     6A    -11.281684
       7A    -11.279112     8A     -1.401752     9A     -1.373234
      10A     -1.355241    11A     -1.043199    12A     -0.933296
      13A     -0.913520    14A     -0.760929    15A     -0.736160
      16A     -0.701775    17A     -0.675457    18A     -0.656410
      19A     -0.617264    20A     -0.602041    21A     -0.572010
      22A     -0.549154    23A     -0.547150    24A     -0.524527
      25A     -0.477219    26A     -0.462211    27A     -0.424385
      28A     -0.417085

  @DF-RHF Final Energy:  -380.79472725442048

   => Energetics <=

    Nuclear Repulsion Energy =            335.6594482224466560
    One-Electron Energy =               -1187.7129909428995234
    Two-Electron Energy =                 471.2588154660324449
    Total Energy =                       -380.7947272544204793
  Basis Set: (AUG-CC-PVTZ AUX)
    Blend: AUG-CC-PVTZ-RI
    Molecular point group: c1

    Geometry (in Angstrom), charge = 0, multiplicity = 1:

       Center              X                  Y                   Z               Mass
    ------------   -----------------  -----------------  -----------------  -----------------
         O            1.858593904541    -0.746589319836    -0.031544616766    15.994914619570
         O           -0.464228095459     1.606940680164    -0.256242616766    15.994914619570
         O           -2.119339095459    -0.552482319836    -0.224914616766    15.994914619570
         C           -0.053648595459     0.289938680164     0.029974683234    12.000000000000
         C            1.358696904541     0.322328680164     0.817655383234    12.000000000000
         C            0.823082904541    -0.443246319836    -1.010258616766    12.000000000000
         C           -1.042781095459    -0.508179319836     0.719931383234    12.000000000000
         H            1.906663904541     1.261173680164     0.668538383234     1.007825032230
         H            1.362561904541     0.044936680164     1.877837383234     1.007825032230
         H            0.384239904541    -1.347287319836    -1.443171616766     1.007825032230
         H            1.188618904541     0.227099680164    -1.797894616766     1.007825032230
         H           -1.354477095459    -0.020158319836     1.653805383234     1.007825032230
         H           -0.654252095459    -1.509326319836     0.946796383234     1.007825032230
         H           -1.361125095459     1.453498680164    -0.611562616766     1.007825032230
         H           -2.889456095459    -0.957742319836     0.206892383234     1.007825032230

  Basis Set: AUG-CC-PVTZ
    Blend: AUG-CC-PVTZ
  Basis Set: (AUG-CC-PVTZ AUX)
    Blend: AUG-CC-PVTZ-JKFIT
	 Reference Energy          =    -380.7947272544204793 [Eh]
	 Singles Energy            =      -0.0000000000000000 [Eh]
	 Same-Spin Energy          =      -0.3707011876053426 [Eh]
	 Opposite-Spin Energy      =      -1.1745353979028428 [Eh]
	 Correlation Energy        =      -1.5452365855081853 [Eh]
	 Total Energy              =    -382.3399638399286573 [Eh]

	 ================> DF-SCS-MP2 Energies <==================
	-----------------------------------------------------------
	 SCS Same-Spin Scale       =       0.3333333333333333 [-]
	 SCS Opposite-Spin Scale   =       1.2000000000000000 [-]
	 SCS Same-Spin Energy      =      -0.1235670625351142 [Eh]
	 SCS Opposite-Spin Energy  =      -1.4094424774834113 [Eh]
	 SCS Correlation Energy    =      -1.5330095400185255 [Eh]
	 SCS Total Energy          =    -382.3277367944389766 [Eh]
	-----------------------------------------------------------

  Dipole Moment: [D]
     X:    -2.6628      Y:    -0.8198      Z:     1.2344     Total:     3.0473

*** Psi4 exiting successfully. Buy a developer a beer!
