                               Psi4 1.3.2 release

  ==> Input File <==

--------------------------------------------------------------------------
#psi4
#
memory 32 gb

molecule  {
0 1
  O        1.8620410    -0.7430760    -0.0482260
  O       -0.4607810     1.6104540    -0.2729240
  O       -2.1158920    -0.5489690    -0.2415960
  C        0.0351110     0.3306280     0.0450800
  C        1.3621440     0.3258420     0.8009740
  C        0.8265300    -0.4397330    -1.0269400
  C       -1.0393340    -0.5046660     0.7032500
  H        1.9101110     1.2646870     0.6518570
  H        1.3660090     0.0484500     1.8611560
  H        0.3876870    -1.3437740    -1.4598530
  H        1.1920660     0.2306130    -1.8145760
  H       -1.3510300    -0.0166450     1.6371240
  H       -0.6508050    -1.5058130     0.9301150
  H       -1.3576780     1.4570120    -0.6282440
  H       -2.8860090    -0.9542290     0.1902110
units angstrom
no_reorient  #important for SAPT in psi4, default
symmetry c1  #important for SAPT in psi4, default
}

set PROPERTIES_ORIGIN ["COM"]
properties('MP2/aug-cc-pvtz', properties = ['dipole'])
--------------------------------------------------------------------------

    Molecular point group: c1
  Charge       = 0
  Multiplicity = 1
  Basis Set: AUG-CC-PVTZ
    Blend: AUG-CC-PVTZ
  Basis Set: (AUG-CC-PVTZ AUX)
    Blend: AUG-CC-PVTZ-JKFIT

    Orbital Energies [Eh]
    ---------------------

    Doubly Occupied:

       1A    -20.584569     2A    -20.565182     3A    -20.554952
       4A    -11.293938     5A    -11.293264     6A    -11.281069
       7A    -11.276811     8A     -1.399599     9A     -1.375341
      10A     -1.354196    11A     -1.037072    12A     -0.936939
      13A     -0.918543    14A     -0.759849    15A     -0.730888
      16A     -0.705600    17A     -0.677102    18A     -0.658949
      19A     -0.620260    20A     -0.598651    21A     -0.571022
      22A     -0.549504    23A     -0.542968    24A     -0.514593
      25A     -0.476191    26A     -0.472052    27A     -0.434941
      28A     -0.415942

  @DF-RHF Final Energy:  -380.80664908803635

   => Energetics <=

    Nuclear Repulsion Energy =            335.6392420823402745
    One-Electron Energy =               -1187.6918002202153275
    Two-Electron Energy =                 471.2459090498387013
    Total Energy =                       -380.8066490880363517
  Basis Set: (AUG-CC-PVTZ AUX)
    Blend: AUG-CC-PVTZ-RI
    Molecular point group: c1

    Geometry (in Angstrom), charge = 0, multiplicity = 1:

       Center              X                  Y                   Z               Mass
    ------------   -----------------  -----------------  -----------------  -----------------
         O            1.848754633691    -0.750876906452    -0.035210644027    15.994914619570
         O           -0.474067366309     1.602653093548    -0.259908644027    15.994914619570
         O           -2.129178366309    -0.556769906452    -0.228580644027    15.994914619570
         C            0.021824633691     0.322827093548     0.058095355973    12.000000000000
         C            1.348857633691     0.318041093548     0.813989355973    12.000000000000
         C            0.813243633691    -0.447533906452    -1.013924644027    12.000000000000
         C           -1.052620366309    -0.512466906452     0.716265355973    12.000000000000
         H            1.896824633691     1.256886093548     0.664872355973     1.007825032230
         H            1.352722633691     0.040649093548     1.874171355973     1.007825032230
         H            0.374400633691    -1.351574906452    -1.446837644027     1.007825032230
         H            1.178779633691     0.222812093548    -1.801560644027     1.007825032230
         H           -1.364316366309    -0.024445906452     1.650139355973     1.007825032230
         H           -0.664091366309    -1.513613906452     0.943130355973     1.007825032230
         H           -1.370964366309     1.449211093548    -0.615228644027     1.007825032230
         H           -2.899295366309    -0.962029906452     0.203226355973     1.007825032230

  Basis Set: AUG-CC-PVTZ
    Blend: AUG-CC-PVTZ
  Basis Set: (AUG-CC-PVTZ AUX)
    Blend: AUG-CC-PVTZ-JKFIT
	 Reference Energy          =    -380.8066490880363517 [Eh]
	 Singles Energy            =      -0.0000000000000000 [Eh]
	 Same-Spin Energy          =      -0.3698284289500730 [Eh]
	 Opposite-Spin Energy      =      -1.1726898228134082 [Eh]
	 Correlation Energy        =      -1.5425182517634812 [Eh]
	 Total Energy              =    -382.3491673397998056 [Eh]

	 ================> DF-SCS-MP2 Energies <==================
	-----------------------------------------------------------
	 SCS Same-Spin Scale       =       0.3333333333333333 [-]
	 SCS Opposite-Spin Scale   =       1.2000000000000000 [-]
	 SCS Same-Spin Energy      =      -0.1232761429833577 [Eh]
	 SCS Opposite-Spin Energy  =      -1.4072277873760897 [Eh]
	 SCS Correlation Energy    =      -1.5305039303594474 [Eh]
	 SCS Total Energy          =    -382.3371530183957816 [Eh]
	-----------------------------------------------------------

  Dipole Moment: [D]
     X:    -2.5612      Y:    -0.8216      Z:     1.2277     Total:     2.9567

*** Psi4 exiting successfully. Buy a developer a beer!
