                               Psi4 1.3.2 release

  ==> Input File <==

--------------------------------------------------------------------------
#psi4
#
memory 32 gb

molecule  {
0 1
  O        1.8620410    -0.7430760    -0.0482260
  O       -0.4607810     1.6104540    -0.2729240
  O       -2.1158920    -0.5489690    -0.2415960
  C        0.0351110     0.3306280     0.0450800
  C        1.3621440     0.3258420     0.8009740
  C        0.8265300    -0.4397330    -1.0269400
  C       -1.1104077    -0.5599201     0.7467875
  H        1.9101110     1.2646870     0.6518570
  H        1.3660090     0.0484500     1.8611560
  H        0.3876870    -1.3437740    -1.4598530
  H        1.1920660     0.2306130    -1.8145760
  H       -1.3510300    -0.0166450     1.6371240
  H       -0.6508050    -1.5058130     0.9301150
  H       -1.3576780     1.4570120    -0.6282440
  H       -2.8860090    -0.9542290     0.1902110
units angstrom
no_reorient  #important for SAPT in psi4, default
symmetry c1  #important for SAPT in psi4, default
}

set PROPERTIES_ORIGIN ["COM"]
properties('MP2/aug-cc-pvtz', properties = ['dipole'])
--------------------------------------------------------------------------

    Molecular point group: c1
  Charge       = 0
  Multiplicity = 1
  Basis Set: AUG-CC-PVTZ
    Blend: AUG-CC-PVTZ
  Basis Set: (AUG-CC-PVTZ AUX)
    Blend: AUG-CC-PVTZ-JKFIT

    Orbital Energies [Eh]
    ---------------------

    Doubly Occupied:

       1A    -20.590389     2A    -20.564765     3A    -20.553270
       4A    -11.295202     5A    -11.291768     6A    -11.278238
       7A    -11.275233     8A     -1.402494     9A     -1.379779
      10A     -1.354078    11A     -1.022103    12A     -0.934298
      13A     -0.919279    14A     -0.756606    15A     -0.733654
      16A     -0.702505    17A     -0.674291    18A     -0.665557
      19A     -0.620369    20A     -0.602218    21A     -0.574261
      22A     -0.552805    23A     -0.540821    24A     -0.506727
      25A     -0.485002    26A     -0.462801    27A     -0.433346
      28A     -0.406788

  @DF-RHF Final Energy:  -380.79751488322438

   => Energetics <=

    Nuclear Repulsion Energy =            334.1908001904988055
    One-Electron Energy =               -1184.8193352421515101
    Two-Electron Energy =                 469.8310201684283811
    Total Energy =                       -380.7975148832243804
  Basis Set: (AUG-CC-PVTZ AUX)
    Blend: AUG-CC-PVTZ-RI
    Molecular point group: c1

    Geometry (in Angstrom), charge = 0, multiplicity = 1:

       Center              X                  Y                   Z               Mass
    ------------   -----------------  -----------------  -----------------  -----------------
         O            1.856951713658    -0.744504334373    -0.040231915877    15.994914619570
         O           -0.465870286342     1.609025665627    -0.264929915877    15.994914619570
         O           -2.120981286342    -0.550397334373    -0.233601915877    15.994914619570
         C            0.030021713658     0.329199665627     0.053074084123    12.000000000000
         C            1.357054713658     0.324413665627     0.808968084123    12.000000000000
         C            0.821440713658    -0.441161334373    -1.018945915877    12.000000000000
         C           -1.115496986342    -0.561348434373     0.754781584123    12.000000000000
         H            1.905021713658     1.263258665627     0.659851084123     1.007825032230
         H            1.360919713658     0.047021665627     1.869150084123     1.007825032230
         H            0.382597713658    -1.345202334373    -1.451858915877     1.007825032230
         H            1.186976713658     0.229184665627    -1.806581915877     1.007825032230
         H           -1.356119286342    -0.018073334373     1.645118084123     1.007825032230
         H           -0.655894286342    -1.507241334373     0.938109084123     1.007825032230
         H           -1.362767286342     1.455583665627    -0.620249915877     1.007825032230
         H           -2.891098286342    -0.955657334373     0.198205084123     1.007825032230

  Basis Set: AUG-CC-PVTZ
    Blend: AUG-CC-PVTZ
  Basis Set: (AUG-CC-PVTZ AUX)
    Blend: AUG-CC-PVTZ-JKFIT
	 Reference Energy          =    -380.7975148832243804 [Eh]
	 Singles Energy            =      -0.0000000000000000 [Eh]
	 Same-Spin Energy          =      -0.3698825808823380 [Eh]
	 Opposite-Spin Energy      =      -1.1730943540381420 [Eh]
	 Correlation Energy        =      -1.5429769349204800 [Eh]
	 Total Energy              =    -382.3404918181448693 [Eh]

	 ================> DF-SCS-MP2 Energies <==================
	-----------------------------------------------------------
	 SCS Same-Spin Scale       =       0.3333333333333333 [-]
	 SCS Opposite-Spin Scale   =       1.2000000000000000 [-]
	 SCS Same-Spin Energy      =      -0.1232941936274460 [Eh]
	 SCS Opposite-Spin Energy  =      -1.4077132248457704 [Eh]
	 SCS Correlation Energy    =      -1.5310074184732165 [Eh]
	 SCS Total Energy          =    -382.3285223016976033 [Eh]
	-----------------------------------------------------------

  Dipole Moment: [D]
     X:    -2.7237      Y:    -0.8359      Z:     1.1957     Total:     3.0898

*** Psi4 exiting successfully. Buy a developer a beer!
