                               Psi4 1.3.2 release

  ==> Input File <==

--------------------------------------------------------------------------
#psi4
#
memory 32 gb

molecule  {
0 1
  O        1.8620410    -0.7430760    -0.0482260
  O       -0.4607810     1.6104540    -0.2729240
  O       -2.1158920    -0.5489690    -0.2415960
  C        0.0351110     0.3306280     0.0450800
  C        1.3621440     0.3258420     0.8009740
  C        0.8265300    -0.4397330    -1.0269400
  C       -1.1144568    -0.5077575     0.6373181
  H        1.9101110     1.2646870     0.6518570
  H        1.3660090     0.0484500     1.8611560
  H        0.3876870    -1.3437740    -1.4598530
  H        1.1920660     0.2306130    -1.8145760
  H       -1.3510300    -0.0166450     1.6371240
  H       -0.6508050    -1.5058130     0.9301150
  H       -1.3576780     1.4570120    -0.6282440
  H       -2.8860090    -0.9542290     0.1902110
units angstrom
no_reorient  #important for SAPT in psi4, default
symmetry c1  #important for SAPT in psi4, default
}

set PROPERTIES_ORIGIN ["COM"]
properties('MP2/aug-cc-pvtz', properties = ['dipole'])
--------------------------------------------------------------------------

    Molecular point group: c1
  Charge       = 0
  Multiplicity = 1
  Basis Set: AUG-CC-PVTZ
    Blend: AUG-CC-PVTZ
  Basis Set: (AUG-CC-PVTZ AUX)
    Blend: AUG-CC-PVTZ-JKFIT

    Orbital Energies [Eh]
    ---------------------

    Doubly Occupied:

       1A    -20.595644     2A    -20.563600     3A    -20.553331
       4A    -11.296272     5A    -11.292148     6A    -11.280548
       7A    -11.274391     8A     -1.429976     9A     -1.385263
      10A     -1.355797    11A     -1.027622    12A     -0.935544
      13A     -0.914940    14A     -0.757715    15A     -0.748230
      16A     -0.710673    17A     -0.681325    18A     -0.663306
      19A     -0.625649    20A     -0.609447    21A     -0.574650
      22A     -0.553043    23A     -0.540473    24A     -0.507163
      25A     -0.472257    26A     -0.457384    27A     -0.432046
      28A     -0.410087

  @DF-RHF Final Energy:  -380.79776681978370

   => Energetics <=

    Nuclear Repulsion Energy =            336.1784716592154041
    One-Electron Energy =               -1188.6554324578855812
    Two-Electron Energy =                 471.6791939788865307
    Total Energy =                       -380.7977668197837033
  Basis Set: (AUG-CC-PVTZ AUX)
    Blend: AUG-CC-PVTZ-RI
    Molecular point group: c1

    Geometry (in Angstrom), charge = 0, multiplicity = 1:

       Center              X                  Y                   Z               Mass
    ------------   -----------------  -----------------  -----------------  -----------------
         O            1.857418704914    -0.750520357226    -0.027606578717    15.994914619570
         O           -0.465403295086     1.603009642774    -0.252304578717    15.994914619570
         O           -2.120514295086    -0.556413357226    -0.220976578717    15.994914619570
         C            0.030488704914     0.323183642774     0.065699421283    12.000000000000
         C            1.357521704914     0.318397642774     0.821593421283    12.000000000000
         C            0.821907704914    -0.447177357226    -1.006320578717    12.000000000000
         C           -1.119079095086    -0.515201857226     0.657937521283    12.000000000000
         H            1.905488704914     1.257242642774     0.672476421283     1.007825032230
         H            1.361386704914     0.041005642774     1.881775421283     1.007825032230
         H            0.383064704914    -1.351218357226    -1.439233578717     1.007825032230
         H            1.187443704914     0.223168642774    -1.793956578717     1.007825032230
         H           -1.355652295086    -0.024089357226     1.657743421283     1.007825032230
         H           -0.655427295086    -1.513257357226     0.950734421283     1.007825032230
         H           -1.362300295086     1.449567642774    -0.607624578717     1.007825032230
         H           -2.890631295086    -0.961673357226     0.210830421283     1.007825032230

  Basis Set: AUG-CC-PVTZ
    Blend: AUG-CC-PVTZ
  Basis Set: (AUG-CC-PVTZ AUX)
    Blend: AUG-CC-PVTZ-JKFIT
	 Reference Energy          =    -380.7977668197837033 [Eh]
	 Singles Energy            =      -0.0000000000000000 [Eh]
	 Same-Spin Energy          =      -0.3698664500220876 [Eh]
	 Opposite-Spin Energy      =      -1.1715750976475867 [Eh]
	 Correlation Energy        =      -1.5414415476696743 [Eh]
	 Total Energy              =    -382.3392083674533524 [Eh]

	 ================> DF-SCS-MP2 Energies <==================
	-----------------------------------------------------------
	 SCS Same-Spin Scale       =       0.3333333333333333 [-]
	 SCS Opposite-Spin Scale   =       1.2000000000000000 [-]
	 SCS Same-Spin Energy      =      -0.1232888166740292 [Eh]
	 SCS Opposite-Spin Energy  =      -1.4058901171771041 [Eh]
	 SCS Correlation Energy    =      -1.5291789338511332 [Eh]
	 SCS Total Energy          =    -382.3269457536348455 [Eh]
	-----------------------------------------------------------

  Dipole Moment: [D]
     X:    -2.8801      Y:    -0.8402      Z:     1.0033     Total:     3.1635

*** Psi4 exiting successfully. Buy a developer a beer!
