                               Psi4 1.4a3.dev225

  ==> Input File <==

--------------------------------------------------------------------------
#psi4
#
memory 32 gb

molecule  {
0 1
  O        1.8620410    -0.7430760    -0.0482260
  O       -0.4607810     1.6104540    -0.2729240
  O       -2.1158920    -0.5489690    -0.2415960
  C        0.0351110     0.3306280     0.0450800
  C        1.3621440     0.3258420     0.8009740
  C        0.8265300    -0.4397330    -1.0269400
  C       -1.0393340    -0.5046660     0.7032500
  H        1.9001229     1.2475741     0.6545750
  H        1.3660090     0.0484500     1.8611560
  H        0.3876870    -1.3437740    -1.4598530
  H        1.1920660     0.2306130    -1.8145760
  H       -1.3510300    -0.0166450     1.6371240
  H       -0.6508050    -1.5058130     0.9301150
  H       -1.3576780     1.4570120    -0.6282440
  H       -2.8860090    -0.9542290     0.1902110
units angstrom
no_reorient  #important for SAPT in psi4, default
symmetry c1  #important for SAPT in psi4, default
}

set PROPERTIES_ORIGIN ["COM"]
properties('MP2/aug-cc-pvtz', properties = ['dipole'])
--------------------------------------------------------------------------

    Molecular point group: c1
  Charge       = 0
  Multiplicity = 1
  Basis Set: AUG-CC-PVTZ
    Blend: AUG-CC-PVTZ
  Basis Set: (AUG-CC-PVTZ AUX)
    Blend: AUG-CC-PVTZ-JKFIT

    Orbital Energies [Eh]
    ---------------------

    Doubly Occupied:

       1A    -20.584464     2A    -20.565180     3A    -20.554603
       4A    -11.293769     5A    -11.293093     6A    -11.278734
       7A    -11.276699     8A     -1.399523     9A     -1.375205
      10A     -1.354128    11A     -1.037029    12A     -0.938169
      13A     -0.918913    14A     -0.760809    15A     -0.730822
      16A     -0.706391    17A     -0.676990    18A     -0.658859
      19A     -0.620162    20A     -0.599527    21A     -0.572301
      22A     -0.549909    23A     -0.542955    24A     -0.514481
      25A     -0.476063    26A     -0.471923    27A     -0.435106
      28A     -0.416199

  @DF-RHF Final Energy:  -380.80679042408292

   => Energetics <=

    Nuclear Repulsion Energy =            335.7412660095363890
    One-Electron Energy =               -1187.8921010940027827
    Two-Electron Energy =                 471.3440446603834744
    Total Energy =                       -380.8067904240829193
  Basis Set: (AUG-CC-PVTZ AUX)
    Blend: AUG-CC-PVTZ-RI
    Molecular point group: c1

    Geometry (in Angstrom), charge = 0, multiplicity = 1:

       Center              X                  Y                   Z               Mass
    ------------   -----------------  -----------------  -----------------  -----------------
         O            1.848851380584    -0.750711147209    -0.035236971162    15.994914619570
         O           -0.473970619416     1.602818852791    -0.259934971162    15.994914619570
         O           -2.129081619416    -0.556604147209    -0.228606971162    15.994914619570
         C            0.021921380584     0.322992852791     0.058069028838    12.000000000000
         C            1.348954380584     0.318206852791     0.813963028838    12.000000000000
         C            0.813340380584    -0.447368147209    -1.013950971162    12.000000000000
         C           -1.052523619416    -0.512301147209     0.716239028838    12.000000000000
         H            1.886933280584     1.239938952791     0.667564028838     1.007825032230
         H            1.352819380584     0.040814852791     1.874145028838     1.007825032230
         H            0.374497380584    -1.351409147209    -1.446863971162     1.007825032230
         H            1.178876380584     0.222977852791    -1.801586971162     1.007825032230
         H           -1.364219619416    -0.024280147209     1.650113028838     1.007825032230
         H           -0.663994619416    -1.513448147209     0.943104028838     1.007825032230
         H           -1.370867619416     1.449376852791    -0.615254971162     1.007825032230
         H           -2.899198619416    -0.961864147209     0.203200028838     1.007825032230

  Basis Set: AUG-CC-PVTZ
    Blend: AUG-CC-PVTZ
  Basis Set: (AUG-CC-PVTZ AUX)
    Blend: AUG-CC-PVTZ-JKFIT
	 Reference Energy          =    -380.8067904240829193 [Eh]
	 Singles Energy            =      -0.0000000000000000 [Eh]
	 Same-Spin Energy          =      -0.3697912119810888 [Eh]
	 Opposite-Spin Energy      =      -1.1725239934027187 [Eh]
	 Correlation Energy        =      -1.5423152053838076 [Eh]
	 Total Energy              =    -382.3491056294667487 [Eh]

	 ================> DF-SCS-MP2 Energies <==================
	-----------------------------------------------------------
	 SCS Same-Spin Scale       =       0.3333333333333333 [-]
	 SCS Opposite-Spin Scale   =       1.2000000000000000 [-]
	 SCS Same-Spin Energy      =      -0.1232637373270296 [Eh]
	 SCS Opposite-Spin Energy  =      -1.4070287920832625 [Eh]
	 SCS Correlation Energy    =      -1.5302925294102920 [Eh]
	 SCS Total Energy          =    -382.3370829534932227 [Eh]
	-----------------------------------------------------------

  Dipole Moment: [D]
     X:    -2.5553      Y:    -0.8101      Z:     1.2312     Total:     2.9498

*** Psi4 exiting successfully. Buy a developer a beer!
