                               Psi4 1.4a3.dev225

  ==> Input File <==

--------------------------------------------------------------------------
#psi4
#
memory 32 gb

molecule  {
0 1
  O        1.8620410    -0.7430760    -0.0482260
  O       -0.4607810     1.6104540    -0.2729240
  O       -2.1158920    -0.5489690    -0.2415960
  C        0.0351110     0.3306280     0.0450800
  C        1.3621440     0.3258420     0.8009740
  C        0.8265300    -0.4397330    -1.0269400
  C       -1.0393340    -0.5046660     0.7032500
  H        1.9200991     1.2817999     0.6491390
  H        1.3660090     0.0484500     1.8611560
  H        0.3876870    -1.3437740    -1.4598530
  H        1.1920660     0.2306130    -1.8145760
  H       -1.3510300    -0.0166450     1.6371240
  H       -0.6508050    -1.5058130     0.9301150
  H       -1.3576780     1.4570120    -0.6282440
  H       -2.8860090    -0.9542290     0.1902110
units angstrom
no_reorient  #important for SAPT in psi4, default
symmetry c1  #important for SAPT in psi4, default
}

set PROPERTIES_ORIGIN ["COM"]
properties('MP2/aug-cc-pvtz', properties = ['dipole'])
--------------------------------------------------------------------------

    Molecular point group: c1
  Charge       = 0
  Multiplicity = 1
  Basis Set: AUG-CC-PVTZ
    Blend: AUG-CC-PVTZ
  Basis Set: (AUG-CC-PVTZ AUX)
    Blend: AUG-CC-PVTZ-JKFIT

    Orbital Energies [Eh]
    ---------------------

    Doubly Occupied:

       1A    -20.584681     2A    -20.565187     3A    -20.555323
       4A    -11.294120     5A    -11.293444     6A    -11.283379
       7A    -11.276931     8A     -1.399686     9A     -1.375491
      10A     -1.354270    11A     -1.037137    12A     -0.935882
      13A     -0.918146    14A     -0.758977    15A     -0.730961
      16A     -0.704826    17A     -0.677223    18A     -0.659047
      19A     -0.620367    20A     -0.597886    21A     -0.569724
      22A     -0.549024    23A     -0.542959    24A     -0.514711
      25A     -0.476328    26A     -0.472193    27A     -0.434778
      28A     -0.415661

  @DF-RHF Final Energy:  -380.80602655075973

   => Energetics <=

    Nuclear Repulsion Energy =            335.5394187104363368
    One-Electron Energy =               -1187.4942014322002706
    Two-Electron Energy =                 471.1487561710041518
    Total Energy =                       -380.8060265507597251
  Basis Set: (AUG-CC-PVTZ AUX)
    Blend: AUG-CC-PVTZ-RI
    Molecular point group: c1

    Geometry (in Angstrom), charge = 0, multiplicity = 1:

       Center              X                  Y                   Z               Mass
    ------------   -----------------  -----------------  -----------------  -----------------
         O            1.848657886799    -0.751042665695    -0.035184316893    15.994914619570
         O           -0.474164113201     1.602487334305    -0.259882316893    15.994914619570
         O           -2.129275113201    -0.556935665695    -0.228554316893    15.994914619570
         C            0.021727886799     0.322661334305     0.058121683107    12.000000000000
         C            1.348760886799     0.317875334305     0.814015683107    12.000000000000
         C            0.813146886799    -0.447699665695    -1.013898316893    12.000000000000
         C           -1.052717113201    -0.512632665695     0.716291683107    12.000000000000
         H            1.906715986799     1.273833234305     0.662180683107     1.007825032230
         H            1.352625886799     0.040483334305     1.874197683107     1.007825032230
         H            0.374303886799    -1.351740665695    -1.446811316893     1.007825032230
         H            1.178682886799     0.222646334305    -1.801534316893     1.007825032230
         H           -1.364413113201    -0.024611665695     1.650165683107     1.007825032230
         H           -0.664188113201    -1.513779665695     0.943156683107     1.007825032230
         H           -1.371061113201     1.449045334305    -0.615202316893     1.007825032230
         H           -2.899392113201    -0.962195665695     0.203252683107     1.007825032230

  Basis Set: AUG-CC-PVTZ
    Blend: AUG-CC-PVTZ
  Basis Set: (AUG-CC-PVTZ AUX)
    Blend: AUG-CC-PVTZ-JKFIT
	 Reference Energy          =    -380.8060265507597251 [Eh]
	 Singles Energy            =      -0.0000000000000000 [Eh]
	 Same-Spin Energy          =      -0.3698681947038345 [Eh]
	 Opposite-Spin Energy      =      -1.1728679341952346 [Eh]
	 Correlation Energy        =      -1.5427361288990691 [Eh]
	 Total Energy              =    -382.3487626796588188 [Eh]

	 ================> DF-SCS-MP2 Energies <==================
	-----------------------------------------------------------
	 SCS Same-Spin Scale       =       0.3333333333333333 [-]
	 SCS Opposite-Spin Scale   =       1.2000000000000000 [-]
	 SCS Same-Spin Energy      =      -0.1232893982346115 [Eh]
	 SCS Opposite-Spin Energy  =      -1.4074415210342814 [Eh]
	 SCS Correlation Energy    =      -1.5307309192688929 [Eh]
	 SCS Total Energy          =    -382.3367574700286013 [Eh]
	-----------------------------------------------------------

  Dipole Moment: [D]
     X:    -2.5677      Y:    -0.8340      Z:     1.2240     Total:     2.9643

*** Psi4 exiting successfully. Buy a developer a beer!
