                               Psi4 1.3.2 release

  ==> Input File <==

--------------------------------------------------------------------------
#psi4
#
memory 32 gb

molecule  {
0 1
  O        1.8620410    -0.7430760    -0.0482260
  O       -0.4607810     1.6104540    -0.2729240
  O       -2.1024403    -0.5348464    -0.2572540
  C        0.0351110     0.3306280     0.0450800
  C        1.3621440     0.3258420     0.8009740
  C        0.8265300    -0.4397330    -1.0269400
  C       -1.0393340    -0.5046660     0.7032500
  H        1.9101110     1.2646870     0.6518570
  H        1.3660090     0.0484500     1.8611560
  H        0.3876870    -1.3437740    -1.4598530
  H        1.1920660     0.2306130    -1.8145760
  H       -1.3510300    -0.0166450     1.6371240
  H       -0.6508050    -1.5058130     0.9301150
  H       -1.3576780     1.4570120    -0.6282440
  H       -2.8860090    -0.9542290     0.1902110
units angstrom
no_reorient  #important for SAPT in psi4, default
symmetry c1  #important for SAPT in psi4, default
}

set PROPERTIES_ORIGIN ["COM"]
properties('MP2/aug-cc-pvtz', properties = ['dipole'])
--------------------------------------------------------------------------

    Molecular point group: c1
  Charge       = 0
  Multiplicity = 1
  Basis Set: AUG-CC-PVTZ
    Blend: AUG-CC-PVTZ
  Basis Set: (AUG-CC-PVTZ AUX)
    Blend: AUG-CC-PVTZ-JKFIT

    Orbital Energies [Eh]
    ---------------------

    Doubly Occupied:

       1A    -20.587718     2A    -20.564542     3A    -20.554594
       4A    -11.293548     5A    -11.292699     6A    -11.280474
       7A    -11.276471     8A     -1.398764     9A     -1.373331
      10A     -1.352707    11A     -1.035920    12A     -0.936510
      13A     -0.916883    14A     -0.759460    15A     -0.729468
      16A     -0.703580    17A     -0.675444    18A     -0.658905
      19A     -0.618584    20A     -0.598020    21A     -0.570826
      22A     -0.549374    23A     -0.543097    24A     -0.514214
      25A     -0.476265    26A     -0.471507    27A     -0.434567
      28A     -0.415455

  @DF-RHF Final Energy:  -380.80414511951346

   => Energetics <=

    Nuclear Repulsion Energy =            335.8188919470953806
    One-Electron Energy =               -1188.0802193128324689
    Two-Electron Energy =                 471.4571822462236241
    Total Energy =                       -380.8041451195134641
  Basis Set: (AUG-CC-PVTZ AUX)
    Blend: AUG-CC-PVTZ-RI
    Molecular point group: c1

    Geometry (in Angstrom), charge = 0, multiplicity = 1:

       Center              X                  Y                   Z               Mass
    ------------   -----------------  -----------------  -----------------  -----------------
         O            1.846686740514    -0.753047935257    -0.032803582365    15.994914619570
         O           -0.476135259486     1.600482064743    -0.257501582365    15.994914619570
         O           -2.117794559486    -0.544818335257    -0.241831582365    15.994914619570
         C            0.019756740514     0.320656064743     0.060502417635    12.000000000000
         C            1.346789740514     0.315870064743     0.816396417635    12.000000000000
         C            0.811175740514    -0.449704935257    -1.011517582365    12.000000000000
         C           -1.054688259486    -0.514637935257     0.718672417635    12.000000000000
         H            1.894756740514     1.254715064743     0.667279417635     1.007825032230
         H            1.350654740514     0.038478064743     1.876578417635     1.007825032230
         H            0.372332740514    -1.353745935257    -1.444430582365     1.007825032230
         H            1.176711740514     0.220641064743    -1.799153582365     1.007825032230
         H           -1.366384259486    -0.026616935257     1.652546417635     1.007825032230
         H           -0.666159259486    -1.515784935257     0.945537417635     1.007825032230
         H           -1.373032259486     1.447040064743    -0.612821582365     1.007825032230
         H           -2.901363259486    -0.964200935257     0.205633417635     1.007825032230

  Basis Set: AUG-CC-PVTZ
    Blend: AUG-CC-PVTZ
  Basis Set: (AUG-CC-PVTZ AUX)
    Blend: AUG-CC-PVTZ-JKFIT
	 Reference Energy          =    -380.8041451195134641 [Eh]
	 Singles Energy            =      -0.0000000000000000 [Eh]
	 Same-Spin Energy          =      -0.3702475200914203 [Eh]
	 Opposite-Spin Energy      =      -1.1736621804686309 [Eh]
	 Correlation Energy        =      -1.5439097005600511 [Eh]
	 Total Energy              =    -382.3480548200735143 [Eh]

	 ================> DF-SCS-MP2 Energies <==================
	-----------------------------------------------------------
	 SCS Same-Spin Scale       =       0.3333333333333333 [-]
	 SCS Opposite-Spin Scale   =       1.2000000000000000 [-]
	 SCS Same-Spin Energy      =      -0.1234158400304734 [Eh]
	 SCS Opposite-Spin Energy  =      -1.4083946165623571 [Eh]
	 SCS Correlation Energy    =      -1.5318104565928305 [Eh]
	 SCS Total Energy          =    -382.3359555761063007 [Eh]
	-----------------------------------------------------------

  Dipole Moment: [D]
     X:    -2.6023      Y:    -0.8523      Z:     1.2442     Total:     3.0078

*** Psi4 exiting successfully. Buy a developer a beer!
