                               Psi4 1.3.2 release

  ==> Input File <==

--------------------------------------------------------------------------
#psi4
#
memory 32 gb

molecule  {
0 1
  O        1.8620410    -0.7430760    -0.0482260
  O       -0.4607810     1.6104540    -0.2729240
  O       -2.1158920    -0.5489690    -0.2415960
  C        0.0351110     0.3306280     0.0450800
  C        1.4309136     0.1787935     0.6841516
  C        0.8265300    -0.4397330    -1.0269400
  C       -1.0393340    -0.5046660     0.7032500
  H        1.9101110     1.2646870     0.6518570
  H        1.3660090     0.0484500     1.8611560
  H        0.3876870    -1.3437740    -1.4598530
  H        1.1920660     0.2306130    -1.8145760
  H       -1.3510300    -0.0166450     1.6371240
  H       -0.6508050    -1.5058130     0.9301150
  H       -1.3576780     1.4570120    -0.6282440
  H       -2.8860090    -0.9542290     0.1902110
units angstrom
no_reorient  #important for SAPT in psi4, default
symmetry c1  #important for SAPT in psi4, default
}

set PROPERTIES_ORIGIN ["COM"]
properties('MP2/aug-cc-pvtz', properties = ['dipole'])
--------------------------------------------------------------------------

    Molecular point group: c1
  Charge       = 0
  Multiplicity = 1
  Basis Set: AUG-CC-PVTZ
    Blend: AUG-CC-PVTZ
  Basis Set: (AUG-CC-PVTZ AUX)
    Blend: AUG-CC-PVTZ-JKFIT

    Orbital Energies [Eh]
    ---------------------

    Doubly Occupied:

       1A    -20.584092     2A    -20.570823     3A    -20.566750
       4A    -11.293159     5A    -11.291533     6A    -11.291290
       7A    -11.289162     8A     -1.472259     9A     -1.390234
      10A     -1.358586    11A     -1.044108    12A     -0.949093
      13A     -0.911684    14A     -0.749593    15A     -0.732475
      16A     -0.719166    17A     -0.695504    18A     -0.663637
      19A     -0.651866    20A     -0.620269    21A     -0.579270
      22A     -0.560090    23A     -0.539181    24A     -0.526727
      25A     -0.475201    26A     -0.463162    27A     -0.414337
      28A     -0.399545

  @DF-RHF Final Energy:  -380.76762767310726

   => Energetics <=

    Nuclear Repulsion Energy =            338.1936106857126560
    One-Electron Energy =               -1192.3168876348611320
    Two-Electron Energy =                 473.3556492760412198
    Total Energy =                       -380.7676276731072562
  Basis Set: (AUG-CC-PVTZ AUX)
    Blend: AUG-CC-PVTZ-RI
    Molecular point group: c1

    Geometry (in Angstrom), charge = 0, multiplicity = 1:

       Center              X                  Y                   Z               Mass
    ------------   -----------------  -----------------  -----------------  -----------------
         O            1.840823290446    -0.733917492303    -0.021737269845    15.994914619570
         O           -0.481998709554     1.619612507697    -0.246435269845    15.994914619570
         O           -2.137109709554    -0.539810492303    -0.215107269845    15.994914619570
         C            0.013893290446     0.339786507697     0.071568730155    12.000000000000
         C            1.409695890446     0.187952007697     0.710640330155    12.000000000000
         C            0.805312290446    -0.430574492303    -1.000451269845    12.000000000000
         C           -1.060551709554    -0.495507492303     0.729738730155    12.000000000000
         H            1.888893290446     1.273845507697     0.678345730155     1.007825032230
         H            1.344791290446     0.057608507697     1.887644730155     1.007825032230
         H            0.366469290446    -1.334615492303    -1.433364269845     1.007825032230
         H            1.170848290446     0.239771507697    -1.788087269845     1.007825032230
         H           -1.372247709554    -0.007486492303     1.663612730155     1.007825032230
         H           -0.672022709554    -1.496654492303     0.956603730155     1.007825032230
         H           -1.378895709554     1.466170507697    -0.601755269845     1.007825032230
         H           -2.907226709554    -0.945070492303     0.216699730155     1.007825032230

  Basis Set: AUG-CC-PVTZ
    Blend: AUG-CC-PVTZ
  Basis Set: (AUG-CC-PVTZ AUX)
    Blend: AUG-CC-PVTZ-JKFIT
	 Reference Energy          =    -380.7676276731072562 [Eh]
	 Singles Energy            =      -0.0000000000000000 [Eh]
	 Same-Spin Energy          =      -0.3706023843878780 [Eh]
	 Opposite-Spin Energy      =      -1.1709733609055055 [Eh]
	 Correlation Energy        =      -1.5415757452933834 [Eh]
	 Total Energy              =    -382.3092034184006138 [Eh]

	 ================> DF-SCS-MP2 Energies <==================
	-----------------------------------------------------------
	 SCS Same-Spin Scale       =       0.3333333333333333 [-]
	 SCS Opposite-Spin Scale   =       1.2000000000000000 [-]
	 SCS Same-Spin Energy      =      -0.1235341281292927 [Eh]
	 SCS Opposite-Spin Energy  =      -1.4051680330866065 [Eh]
	 SCS Correlation Energy    =      -1.5287021612158993 [Eh]
	 SCS Total Energy          =    -382.2963298343231600 [Eh]
	-----------------------------------------------------------

  Dipole Moment: [D]
     X:    -2.5191      Y:    -1.3129      Z:     0.6401     Total:     2.9119

*** Psi4 exiting successfully. Buy a developer a beer!
