                               Psi4 1.4a2.dev612

  ==> Input File <==

--------------------------------------------------------------------------
#psi4
#
memory 32 gb

molecule  {
0 1
  O        1.1855920    -1.3251230    -0.0110750
  O       -3.7874790    -0.1788050    -0.0307850
  C        2.2579520     0.8287430     0.0207180
  C        3.5859950     0.0918750    -0.0061980
  C        1.0665970    -0.1008810     0.0170560
  C       -0.2810060     0.5415760     0.0240110
  C       -1.4085440    -0.1910960     0.0012370
  C       -2.7329950     0.4481680    -0.0067340
  H        2.1768340     1.4746290     0.9052650
  H        2.1584520     1.5067170    -0.8392700
  H        3.6798240    -0.5618240     0.8622080
  H        3.6612870    -0.5322660    -0.8978130
  H        4.4176170     0.8001410    -0.0031560
  H       -0.3327896     1.6337415    -0.1085604
  H       -1.3609630    -1.2775220    -0.0163660
  H       -2.7297600     1.5577740     0.0156350
units angstrom
no_reorient  #important for SAPT in psi4, default
symmetry c1  #important for SAPT in psi4, default
}

set PROPERTIES_ORIGIN ["COM"]
properties('MP2/aug-cc-pvtz', properties = ['dipole'])
--------------------------------------------------------------------------

    Molecular point group: c1
  Charge       = 0
  Multiplicity = 1
  Basis Set: AUG-CC-PVTZ
    Blend: AUG-CC-PVTZ
  Basis Set: (AUG-CC-PVTZ AUX)
    Blend: AUG-CC-PVTZ-JKFIT

    Orbital Energies [Eh]
    ---------------------

    Doubly Occupied:

       1A    -20.574165     2A    -20.564126     3A    -11.353961
       4A    -11.351412     5A    -11.283157     6A    -11.278269
       7A    -11.256960     8A    -11.228223     9A     -1.395721
      10A     -1.394233    11A     -1.114683    12A     -1.070326
      13A     -0.954697    14A     -0.879138    15A     -0.800848
      16A     -0.755580    17A     -0.696009    18A     -0.685478
      19A     -0.646069    20A     -0.637275    21A     -0.630017
      22A     -0.573152    23A     -0.554281    24A     -0.543784
      25A     -0.536487    26A     -0.528793    27A     -0.502060
      28A     -0.451706    29A     -0.435971    30A     -0.404413

  @DF-RHF Final Energy:  -381.70155615240424

   => Energetics <=

    Nuclear Repulsion Energy =            331.0971172329112733
    One-Electron Energy =               -1175.4353587397440606
    Two-Electron Energy =                 462.6366853544285505
    Total Energy =                       -381.7015561524042369
  Basis Set: (AUG-CC-PVTZ AUX)
    Blend: AUG-CC-PVTZ-RI
    Molecular point group: c1

    Geometry (in Angstrom), charge = 0, multiplicity = 1:

       Center              X                  Y                   Z               Mass
    ------------   -----------------  -----------------  -----------------  -----------------
         O            1.185584405030    -1.325148136224    -0.009725929494    15.994914619570
         O           -3.787486594970    -0.178830136224    -0.029435929494    15.994914619570
         C            2.257944405030     0.828717863776     0.022067070506    12.000000000000
         C            3.585987405030     0.091849863776    -0.004848929494    12.000000000000
         C            1.066589405030    -0.100906136224     0.018405070506    12.000000000000
         C           -0.281013594970     0.541550863776     0.025360070506    12.000000000000
         C           -1.408551594970    -0.191121136224     0.002586070506    12.000000000000
         C           -2.733002594970     0.448142863776    -0.005384929494    12.000000000000
         H            2.176826405030     1.474603863776     0.906614070506     1.007825032230
         H            2.158444405030     1.506691863776    -0.837920929494     1.007825032230
         H            3.679816405030    -0.561849136224     0.863557070506     1.007825032230
         H            3.661279405030    -0.532291136224    -0.896463929494     1.007825032230
         H            4.417609405030     0.800115863776    -0.001806929494     1.007825032230
         H           -0.332797194970     1.633716363776    -0.107211329494     1.007825032230
         H           -1.360970594970    -1.277547136224    -0.015016929494     1.007825032230
         H           -2.729767594970     1.557748863776     0.016984070506     1.007825032230

  Basis Set: AUG-CC-PVTZ
    Blend: AUG-CC-PVTZ
  Basis Set: (AUG-CC-PVTZ AUX)
    Blend: AUG-CC-PVTZ-JKFIT
	 Reference Energy          =    -381.7015561524042369 [Eh]
	 Singles Energy            =      -0.0000000000000000 [Eh]
	 Same-Spin Energy          =      -0.3774849895825690 [Eh]
	 Opposite-Spin Energy      =      -1.2239722983952568 [Eh]
	 Correlation Energy        =      -1.6014572879778257 [Eh]
	 Total Energy              =    -383.3030134403820739 [Eh]

	 ================> DF-SCS-MP2 Energies <==================
	-----------------------------------------------------------
	 SCS Same-Spin Scale       =       0.3333333333333333 [-]
	 SCS Opposite-Spin Scale   =       1.2000000000000000 [-]
	 SCS Same-Spin Energy      =      -0.1258283298608563 [Eh]
	 SCS Opposite-Spin Energy  =      -1.4687667580743080 [Eh]
	 SCS Correlation Energy    =      -1.5945950879351642 [Eh]
	 SCS Total Energy          =    -383.2961512403393840 [Eh]
	-----------------------------------------------------------

  Dipole Moment: [D]
     X:     2.7479      Y:     3.5025      Z:    -0.0048     Total:     4.4518

*** Psi4 exiting successfully. Buy a developer a beer!
