                               Psi4 1.3.2 release

  ==> Input File <==

--------------------------------------------------------------------------
#psi4
#
memory 32 gb

molecule  {
0 1
  O        1.1855920    -1.3251230    -0.0110750
  O       -3.7874790    -0.1788050    -0.0307850
  C        2.2579520     0.8287430     0.0207180
  C        3.5859950     0.0918750    -0.0061980
  C        1.0665970    -0.1008810     0.0170560
  C       -0.2800631     0.5366789     0.3239695
  C       -1.4085440    -0.1910960     0.0012370
  C       -2.7329950     0.4481680    -0.0067340
  H        2.1768340     1.4746290     0.9052650
  H        2.1584520     1.5067170    -0.8392700
  H        3.6798240    -0.5618240     0.8622080
  H        3.6612870    -0.5322660    -0.8978130
  H        4.4176170     0.8001410    -0.0031560
  H       -0.3336460     1.6309400     0.0414110
  H       -1.3609630    -1.2775220    -0.0163660
  H       -2.7297600     1.5577740     0.0156350
units angstrom
no_reorient  #important for SAPT in psi4, default
symmetry c1  #important for SAPT in psi4, default
}

set PROPERTIES_ORIGIN ["COM"]
properties('MP2/aug-cc-pvtz', properties = ['dipole'])
--------------------------------------------------------------------------

    Molecular point group: c1
  Charge       = 0
  Multiplicity = 1
  Basis Set: AUG-CC-PVTZ
    Blend: AUG-CC-PVTZ
  Basis Set: (AUG-CC-PVTZ AUX)
    Blend: AUG-CC-PVTZ-JKFIT

    Orbital Energies [Eh]
    ---------------------

    Doubly Occupied:

       1A    -20.578400     2A    -20.562205     3A    -11.355833
       4A    -11.354130     5A    -11.290478     6A    -11.288502
       7A    -11.256357     8A    -11.227695     9A     -1.398969
      10A     -1.392729    11A     -1.107529    12A     -1.068638
      13A     -0.951147    14A     -0.878367    15A     -0.800325
      16A     -0.749476    17A     -0.691363    18A     -0.679118
      19A     -0.645096    20A     -0.637654    21A     -0.628208
      22A     -0.567856    23A     -0.551670    24A     -0.544059
      25A     -0.534749    26A     -0.526798    27A     -0.500965
      28A     -0.454476    29A     -0.432271    30A     -0.401406

  @DF-RHF Final Energy:  -381.67726216241749

   => Energetics <=

    Nuclear Repulsion Energy =            330.1285640131394530
    One-Electron Energy =               -1173.4987093636000282
    Two-Electron Energy =                 461.6928831880430835
    Total Energy =                       -381.6772621624174917
  Basis Set: (AUG-CC-PVTZ AUX)
    Blend: AUG-CC-PVTZ-RI
    Molecular point group: c1

    Geometry (in Angstrom), charge = 0, multiplicity = 1:

       Center              X                  Y                   Z               Mass
    ------------   -----------------  -----------------  -----------------  -----------------
         O            1.185491129956    -1.324598495113    -0.043198179474    15.994914619570
         O           -3.787579870044    -0.178280495113    -0.062908179474    15.994914619570
         C            2.257851129956     0.829267504887    -0.011405179474    12.000000000000
         C            3.585894129956     0.092399504887    -0.038321179474    12.000000000000
         C            1.066496129956    -0.100356495113    -0.015067179474    12.000000000000
         C           -0.280163970044     0.537203404887     0.291846320526    12.000000000000
         C           -1.408644870044    -0.190571495113    -0.030886179474    12.000000000000
         C           -2.733095870044     0.448692504887    -0.038857179474    12.000000000000
         H            2.176733129956     1.475153504887     0.873141820526     1.007825032230
         H            2.158351129956     1.507241504887    -0.871393179474     1.007825032230
         H            3.679723129956    -0.561299495113     0.830084820526     1.007825032230
         H            3.661186129956    -0.531741495113    -0.929936179474     1.007825032230
         H            4.417516129956     0.800665504887    -0.035279179474     1.007825032230
         H           -0.333746870044     1.631464504887     0.009287820526     1.007825032230
         H           -1.361063870044    -1.276997495113    -0.048489179474     1.007825032230
         H           -2.729860870044     1.558298504887    -0.016488179474     1.007825032230

  Basis Set: AUG-CC-PVTZ
    Blend: AUG-CC-PVTZ
  Basis Set: (AUG-CC-PVTZ AUX)
    Blend: AUG-CC-PVTZ-JKFIT
	 Reference Energy          =    -381.6772621624174917 [Eh]
	 Singles Energy            =      -0.0000000000000000 [Eh]
	 Same-Spin Energy          =      -0.3788495585713091 [Eh]
	 Opposite-Spin Energy      =      -1.2276264906264198 [Eh]
	 Correlation Energy        =      -1.6064760491977288 [Eh]
	 Total Energy              =    -383.2837382116152298 [Eh]

	 ================> DF-SCS-MP2 Energies <==================
	-----------------------------------------------------------
	 SCS Same-Spin Scale       =       0.3333333333333333 [-]
	 SCS Opposite-Spin Scale   =       1.2000000000000000 [-]
	 SCS Same-Spin Energy      =      -0.1262831861904364 [Eh]
	 SCS Opposite-Spin Energy  =      -1.4731517887517038 [Eh]
	 SCS Correlation Energy    =      -1.5994349749421402 [Eh]
	 SCS Total Energy          =    -383.2766971373596334 [Eh]
	-----------------------------------------------------------

  Dipole Moment: [D]
     X:     2.6668      Y:     3.4127      Z:    -0.0918     Total:     4.3321

*** Psi4 exiting successfully. Buy a developer a beer!
