                               Psi4 1.3.2 release

  ==> Input File <==

--------------------------------------------------------------------------
#psi4
#
memory 32 gb

molecule  {
0 1
  O        1.1855920    -1.3251230    -0.0110750
  O       -3.7874790    -0.1788050    -0.0307850
  C        2.2579520     0.8287430     0.0207180
  C        3.5859950     0.0918750    -0.0061980
  C        1.0665970    -0.1008810     0.0170560
  C       -0.2810060     0.5415760     0.0240110
  C       -1.4085440    -0.1910960     0.0012370
  C       -2.7329950     0.4481680    -0.0067340
  H        2.1768340     1.4746290     0.9052650
  H        2.1584520     1.5067170    -0.8392700
  H        3.6798240    -0.5618240     0.8622080
  H        3.6612870    -0.5322660    -0.8978130
  H        4.4176170     0.8001410    -0.0031560
  H       -0.3336460     1.6309400     0.0414110
  H       -1.3609630    -1.2775220    -0.0163660
  H       -2.7297600     1.5577740     0.0156350
units angstrom
no_reorient  #important for SAPT in psi4, default
symmetry c1  #important for SAPT in psi4, default
}

set PROPERTIES_ORIGIN ["COM"]
properties('MP2/aug-cc-pvtz', properties = ['dipole'])
--------------------------------------------------------------------------

    Molecular point group: c1
  Charge       = 0
  Multiplicity = 1
  Basis Set: AUG-CC-PVTZ
    Blend: AUG-CC-PVTZ
  Basis Set: (AUG-CC-PVTZ AUX)
    Blend: AUG-CC-PVTZ-JKFIT

    Orbital Energies [Eh]
    ---------------------

    Doubly Occupied:

       1A    -20.574028     2A    -20.564062     3A    -11.353929
       4A    -11.351356     5A    -11.282215     6A    -11.277933
       7A    -11.257027     8A    -11.228266     9A     -1.395622
      10A     -1.394162    11A     -1.114910    12A     -1.070353
      13A     -0.954833    14A     -0.879214    15A     -0.801262
      16A     -0.756318    17A     -0.696651    18A     -0.685886
      19A     -0.646115    20A     -0.637201    21A     -0.630003
      22A     -0.573693    23A     -0.554724    24A     -0.543938
      25A     -0.536524    26A     -0.528842    27A     -0.502082
      28A     -0.451609    29A     -0.435812    30A     -0.404723

  @DF-RHF Final Energy:  -381.70299852865048

   => Energetics <=

    Nuclear Repulsion Energy =            331.1378752124794573
    One-Electron Energy =               -1175.5151610496620833
    Two-Electron Energy =                 462.6742873085321435
    Total Energy =                       -381.7029985286504825
  Basis Set: (AUG-CC-PVTZ AUX)
    Blend: AUG-CC-PVTZ-RI
    Molecular point group: c1

    Geometry (in Angstrom), charge = 0, multiplicity = 1:

       Center              X                  Y                   Z               Mass
    ------------   -----------------  -----------------  -----------------  -----------------
         O            1.185592107686    -1.325122938896    -0.011074806370    15.994914619570
         O           -3.787478892314    -0.178804938896    -0.030784806370    15.994914619570
         C            2.257952107686     0.828743061104     0.020718193630    12.000000000000
         C            3.585995107686     0.091875061104    -0.006197806370    12.000000000000
         C            1.066597107686    -0.100880938896     0.017056193630    12.000000000000
         C           -0.281005892314     0.541576061104     0.024011193630    12.000000000000
         C           -1.408543892314    -0.191095938896     0.001237193630    12.000000000000
         C           -2.732994892314     0.448168061104    -0.006733806370    12.000000000000
         H            2.176834107686     1.474629061104     0.905265193630     1.007825032230
         H            2.158452107686     1.506717061104    -0.839269806370     1.007825032230
         H            3.679824107686    -0.561823938896     0.862208193630     1.007825032230
         H            3.661287107686    -0.532265938896    -0.897812806370     1.007825032230
         H            4.417617107686     0.800141061104    -0.003155806370     1.007825032230
         H           -0.333645892314     1.630940061104     0.041411193630     1.007825032230
         H           -1.360962892314    -1.277521938896    -0.016365806370     1.007825032230
         H           -2.729759892314     1.557774061104     0.015635193630     1.007825032230

  Basis Set: AUG-CC-PVTZ
    Blend: AUG-CC-PVTZ
  Basis Set: (AUG-CC-PVTZ AUX)
    Blend: AUG-CC-PVTZ-JKFIT
	 Reference Energy          =    -381.7029985286504825 [Eh]
	 Singles Energy            =      -0.0000000000000000 [Eh]
	 Same-Spin Energy          =      -0.3774157297243843 [Eh]
	 Opposite-Spin Energy      =      -1.2238256104599432 [Eh]
	 Correlation Energy        =      -1.6012413401843275 [Eh]
	 Total Energy              =    -383.3042398688348271 [Eh]

	 ================> DF-SCS-MP2 Energies <==================
	-----------------------------------------------------------
	 SCS Same-Spin Scale       =       0.3333333333333333 [-]
	 SCS Opposite-Spin Scale   =       1.2000000000000000 [-]
	 SCS Same-Spin Energy      =      -0.1258052432414614 [Eh]
	 SCS Opposite-Spin Energy  =      -1.4685907325519318 [Eh]
	 SCS Correlation Energy    =      -1.5943959757933932 [Eh]
	 SCS Total Energy          =    -383.2973945044439006 [Eh]
	-----------------------------------------------------------

  Dipole Moment: [D]
     X:     2.7491      Y:     3.5135      Z:     0.0901     Total:     4.4621

*** Psi4 exiting successfully. Buy a developer a beer!
