                               Psi4 1.4a2.dev612

  ==> Input File <==

--------------------------------------------------------------------------
#psi4
#
memory 32 gb

molecule  {
0 1
  O        1.1855920    -1.3251230    -0.0110750
  O       -3.7874790    -0.1788050    -0.0307850
  C        2.2579520     0.8287430     0.0207180
  C        3.5859950     0.0918750    -0.0061980
  C        1.0665970    -0.1008810     0.0170560
  C       -0.2810060     0.5415760     0.0240110
  C       -1.4085440    -0.1910960     0.0012370
  C       -2.7329950     0.4481680    -0.0067340
  H        2.1768340     1.4746290     0.9052650
  H        2.1584520     1.5067170    -0.8392700
  H        3.6798240    -0.5618240     0.8622080
  H        3.6612870    -0.5322660    -0.8978130
  H        4.4176170     0.8001410    -0.0031560
  H       -0.3322187     1.6356092    -0.2085413
  H       -1.3609630    -1.2775220    -0.0163660
  H       -2.7297600     1.5577740     0.0156350
units angstrom
no_reorient  #important for SAPT in psi4, default
symmetry c1  #important for SAPT in psi4, default
}

set PROPERTIES_ORIGIN ["COM"]
properties('MP2/aug-cc-pvtz', properties = ['dipole'])
--------------------------------------------------------------------------

    Molecular point group: c1
  Charge       = 0
  Multiplicity = 1
  Basis Set: AUG-CC-PVTZ
    Blend: AUG-CC-PVTZ
  Basis Set: (AUG-CC-PVTZ AUX)
    Blend: AUG-CC-PVTZ-JKFIT

    Orbital Energies [Eh]
    ---------------------

    Doubly Occupied:

       1A    -20.574390     2A    -20.564227     3A    -11.354004
       4A    -11.351506     5A    -11.284777     6A    -11.278842
       7A    -11.256838     8A    -11.228146     9A     -1.395887
      10A     -1.394346    11A     -1.114312    12A     -1.070273
      13A     -0.954474    14A     -0.879023    15A     -0.800215
      16A     -0.754387    17A     -0.695050    18A     -0.684638
      19A     -0.645995    20A     -0.637397    21A     -0.630035
      22A     -0.572362    23A     -0.553407    24A     -0.543485
      25A     -0.536402    26A     -0.528694    27A     -0.502003
      28A     -0.451860    29A     -0.436224    30A     -0.403862

  @DF-RHF Final Energy:  -381.69879484551427

   => Energetics <=

    Nuclear Repulsion Energy =            331.0258323854395712
    One-Electron Energy =               -1175.2951333980588515
    Two-Electron Energy =                 462.5705061671050089
    Total Energy =                       -381.6987948455142714
  Basis Set: (AUG-CC-PVTZ AUX)
    Blend: AUG-CC-PVTZ-RI
    Molecular point group: c1

    Geometry (in Angstrom), charge = 0, multiplicity = 1:

       Center              X                  Y                   Z               Mass
    ------------   -----------------  -----------------  -----------------  -----------------
         O            1.185579270226    -1.325164934743    -0.008826678543    15.994914619570
         O           -3.787491729774    -0.178846934743    -0.028536678543    15.994914619570
         C            2.257939270226     0.828701065257     0.022966321457    12.000000000000
         C            3.585982270226     0.091833065257    -0.003949678543    12.000000000000
         C            1.066584270226    -0.100922934743     0.019304321457    12.000000000000
         C           -0.281018729774     0.541534065257     0.026259321457    12.000000000000
         C           -1.408556729774    -0.191137934743     0.003485321457    12.000000000000
         C           -2.733007729774     0.448126065257    -0.004485678543    12.000000000000
         H            2.176821270226     1.474587065257     0.907513321457     1.007825032230
         H            2.158439270226     1.506675065257    -0.837021678543     1.007825032230
         H            3.679811270226    -0.561865934743     0.864456321457     1.007825032230
         H            3.661274270226    -0.532307934743    -0.895564678543     1.007825032230
         H            4.417604270226     0.800099065257    -0.000907678543     1.007825032230
         H           -0.332231429774     1.635567265257    -0.206292978543     1.007825032230
         H           -1.360975729774    -1.277563934743    -0.014117678543     1.007825032230
         H           -2.729772729774     1.557732065257     0.017883321457     1.007825032230

  Basis Set: AUG-CC-PVTZ
    Blend: AUG-CC-PVTZ
  Basis Set: (AUG-CC-PVTZ AUX)
    Blend: AUG-CC-PVTZ-JKFIT
	 Reference Energy          =    -381.6987948455142714 [Eh]
	 Singles Energy            =      -0.0000000000000000 [Eh]
	 Same-Spin Energy          =      -0.3776034079060350 [Eh]
	 Opposite-Spin Energy      =      -1.2242655838270129 [Eh]
	 Correlation Energy        =      -1.6018689917330478 [Eh]
	 Total Energy              =    -383.3006638372473276 [Eh]

	 ================> DF-SCS-MP2 Energies <==================
	-----------------------------------------------------------
	 SCS Same-Spin Scale       =       0.3333333333333333 [-]
	 SCS Opposite-Spin Scale   =       1.2000000000000000 [-]
	 SCS Same-Spin Energy      =      -0.1258678026353450 [Eh]
	 SCS Opposite-Spin Energy  =      -1.4691187005924153 [Eh]
	 SCS Correlation Energy    =      -1.5949865032277604 [Eh]
	 SCS Total Energy          =    -383.2937813487420158 [Eh]
	-----------------------------------------------------------

  Dipole Moment: [D]
     X:     2.7451      Y:     3.4824      Z:    -0.0666     Total:     4.4348

*** Psi4 exiting successfully. Buy a developer a beer!
