                               Psi4 1.4a2.dev612

  ==> Input File <==

--------------------------------------------------------------------------
#psi4
#
memory 32 gb

molecule  {
0 1
  O        1.1855920    -1.3251230    -0.0110750
  O       -3.7874790    -0.1788050    -0.0307850
  C        2.2579520     0.8287430     0.0207180
  C        3.5859950     0.0918750    -0.0061980
  C        1.0665970    -0.1008810     0.0170560
  C       -0.2810060     0.5415760     0.0240110
  C       -1.4085440    -0.1910960     0.0012370
  C       -2.7329950     0.4481680    -0.0067340
  H        2.1768340     1.4746290     0.9052650
  H        2.1584520     1.5067170    -0.8392700
  H        3.6798240    -0.5618240     0.8622080
  H        3.6612870    -0.5322660    -0.8978130
  H        4.4176170     0.8001410    -0.0031560
  H       -0.3336460     1.6309400     0.0414110
  H       -1.3609630    -1.2775220    -0.0163660
  H       -2.7324705     1.5540802     0.2155825
units angstrom
no_reorient  #important for SAPT in psi4, default
symmetry c1  #important for SAPT in psi4, default
}

set PROPERTIES_ORIGIN ["COM"]
properties('MP2/aug-cc-pvtz', properties = ['dipole'])
--------------------------------------------------------------------------

    Molecular point group: c1
  Charge       = 0
  Multiplicity = 1
  Basis Set: AUG-CC-PVTZ
    Blend: AUG-CC-PVTZ
  Basis Set: (AUG-CC-PVTZ AUX)
    Blend: AUG-CC-PVTZ-JKFIT

    Orbital Energies [Eh]
    ---------------------

    Doubly Occupied:

       1A    -20.574851     2A    -20.564042     3A    -11.353916
       4A    -11.353270     5A    -11.282167     6A    -11.278315
       7A    -11.257007     8A    -11.228253     9A     -1.396054
      10A     -1.394270    11A     -1.114868    12A     -1.070326
      13A     -0.954564    14A     -0.878597    15A     -0.798399
      16A     -0.756316    17A     -0.696106    18A     -0.685102
      19A     -0.646098    20A     -0.637366    21A     -0.629642
      22A     -0.574296    23A     -0.554267    24A     -0.543914
      25A     -0.536474    26A     -0.528815    27A     -0.502081
      28A     -0.450697    29A     -0.435717    30A     -0.404676

  @DF-RHF Final Energy:  -381.70048291692939

   => Energetics <=

    Nuclear Repulsion Energy =            331.0673989908526664
    One-Electron Energy =               -1175.3748318235575425
    Two-Electron Energy =                 462.6069499157754876
    Total Energy =                       -381.7004829169293885
  Basis Set: (AUG-CC-PVTZ AUX)
    Blend: AUG-CC-PVTZ-RI
    Molecular point group: c1

    Geometry (in Angstrom), charge = 0, multiplicity = 1:

       Center              X                  Y                   Z               Mass
    ------------   -----------------  -----------------  -----------------  -----------------
         O            1.185616486540    -1.325089716019    -0.012873179654    15.994914619570
         O           -3.787454513460    -0.178771716019    -0.032583179654    15.994914619570
         C            2.257976486540     0.828776283981     0.018919820346    12.000000000000
         C            3.586019486540     0.091908283981    -0.007996179654    12.000000000000
         C            1.066621486540    -0.100847716019     0.015257820346    12.000000000000
         C           -0.280981513460     0.541609283981     0.022212820346    12.000000000000
         C           -1.408519513460    -0.191062716019    -0.000561179654    12.000000000000
         C           -2.732970513460     0.448201283981    -0.008532179654    12.000000000000
         H            2.176858486540     1.474662283981     0.903466820346     1.007825032230
         H            2.158476486540     1.506750283981    -0.841068179654     1.007825032230
         H            3.679848486540    -0.561790716019     0.860409820346     1.007825032230
         H            3.661311486540    -0.532232716019    -0.899611179654     1.007825032230
         H            4.417641486540     0.800174283981    -0.004954179654     1.007825032230
         H           -0.333621513460     1.630973283981     0.039612820346     1.007825032230
         H           -1.360938513460    -1.277488716019    -0.018164179654     1.007825032230
         H           -2.732446013460     1.554113483981     0.213784320346     1.007825032230

  Basis Set: AUG-CC-PVTZ
    Blend: AUG-CC-PVTZ
  Basis Set: (AUG-CC-PVTZ AUX)
    Blend: AUG-CC-PVTZ-JKFIT
	 Reference Energy          =    -381.7004829169293885 [Eh]
	 Singles Energy            =      -0.0000000000000000 [Eh]
	 Same-Spin Energy          =      -0.3775619953622205 [Eh]
	 Opposite-Spin Energy      =      -1.2241385661722035 [Eh]
	 Correlation Energy        =      -1.6017005615344240 [Eh]
	 Total Energy              =    -383.3021834784638031 [Eh]

	 ================> DF-SCS-MP2 Energies <==================
	-----------------------------------------------------------
	 SCS Same-Spin Scale       =       0.3333333333333333 [-]
	 SCS Opposite-Spin Scale   =       1.2000000000000000 [-]
	 SCS Same-Spin Energy      =      -0.1258539984540735 [Eh]
	 SCS Opposite-Spin Energy  =      -1.4689662794066443 [Eh]
	 SCS Correlation Energy    =      -1.5948202778607177 [Eh]
	 SCS Total Energy          =    -383.2953031947901081 [Eh]
	-----------------------------------------------------------

  Dipole Moment: [D]
     X:     2.7427      Y:     3.4810      Z:     0.1646     Total:     4.4347

*** Psi4 exiting successfully. Buy a developer a beer!
