                               Psi4 1.3.2 release

  ==> Input File <==

--------------------------------------------------------------------------
#psi4
#
memory 32 gb

molecule  {
0 1
  O        1.1855920    -1.3251230    -0.0110750
  O       -3.7874790    -0.1788050    -0.0307850
  C        2.2579520     0.8287430     0.0207180
  C        3.5859950     0.0918750    -0.0061980
  C        1.0665970    -0.1008810     0.0170560
  C       -0.2806917     0.5399436     0.1239972
  C       -1.4085440    -0.1910960     0.0012370
  C       -2.7329950     0.4481680    -0.0067340
  H        2.1768340     1.4746290     0.9052650
  H        2.1584520     1.5067170    -0.8392700
  H        3.6798240    -0.5618240     0.8622080
  H        3.6612870    -0.5322660    -0.8978130
  H        4.4176170     0.8001410    -0.0031560
  H       -0.3336460     1.6309400     0.0414110
  H       -1.3609630    -1.2775220    -0.0163660
  H       -2.7297600     1.5577740     0.0156350
units angstrom
no_reorient  #important for SAPT in psi4, default
symmetry c1  #important for SAPT in psi4, default
}

set PROPERTIES_ORIGIN ["COM"]
properties('MP2/aug-cc-pvtz', properties = ['dipole'])
--------------------------------------------------------------------------

    Molecular point group: c1
  Charge       = 0
  Multiplicity = 1
  Basis Set: AUG-CC-PVTZ
    Blend: AUG-CC-PVTZ
  Basis Set: (AUG-CC-PVTZ AUX)
    Blend: AUG-CC-PVTZ-JKFIT

    Orbital Energies [Eh]
    ---------------------

    Doubly Occupied:

       1A    -20.574580     2A    -20.563757     3A    -11.354149
       4A    -11.351717     5A    -11.283122     6A    -11.279473
       7A    -11.256933     8A    -11.228185     9A     -1.395945
      10A     -1.394047    11A     -1.113970    12A     -1.070120
      13A     -0.954463    14A     -0.879146    15A     -0.801108
      16A     -0.755444    17A     -0.695990    18A     -0.685031
      19A     -0.645964    20A     -0.637274    21A     -0.629864
      22A     -0.572968    23A     -0.554439    24A     -0.543952
      25A     -0.536346    26A     -0.528614    27A     -0.501941
      28A     -0.451922    29A     -0.435508    30A     -0.404191

  @DF-RHF Final Energy:  -381.70022827863511

   => Energetics <=

    Nuclear Repulsion Energy =            331.0118527907627026
    One-Electron Energy =               -1175.2638362881666581
    Two-Electron Energy =                 462.5517552187687897
    Total Energy =                       -381.7002282786351088
  Basis Set: (AUG-CC-PVTZ AUX)
    Blend: AUG-CC-PVTZ-RI
    Molecular point group: c1

    Geometry (in Angstrom), charge = 0, multiplicity = 1:

       Center              X                  Y                   Z               Mass
    ------------   -----------------  -----------------  -----------------  -----------------
         O            1.185558448443    -1.324948120732    -0.021782600974    15.994914619570
         O           -3.787512551557    -0.178630120732    -0.041492600974    15.994914619570
         C            2.257918448443     0.828917879268     0.010010399026    12.000000000000
         C            3.585961448443     0.092049879268    -0.016905600974    12.000000000000
         C            1.066563448443    -0.100706120732     0.006348399026    12.000000000000
         C           -0.280725251557     0.540118479268     0.113289599026    12.000000000000
         C           -1.408577551557    -0.190921120732    -0.009470600974    12.000000000000
         C           -2.733028551557     0.448342879268    -0.017441600974    12.000000000000
         H            2.176800448443     1.474803879268     0.894557399026     1.007825032230
         H            2.158418448443     1.506891879268    -0.849977600974     1.007825032230
         H            3.679790448443    -0.561649120732     0.851500399026     1.007825032230
         H            3.661253448443    -0.532091120732    -0.908520600974     1.007825032230
         H            4.417583448443     0.800315879268    -0.013863600974     1.007825032230
         H           -0.333679551557     1.631114879268     0.030703399026     1.007825032230
         H           -1.360996551557    -1.277347120732    -0.027073600974     1.007825032230
         H           -2.729793551557     1.557948879268     0.004927399026     1.007825032230

  Basis Set: AUG-CC-PVTZ
    Blend: AUG-CC-PVTZ
  Basis Set: (AUG-CC-PVTZ AUX)
    Blend: AUG-CC-PVTZ-JKFIT
	 Reference Energy          =    -381.7002282786351088 [Eh]
	 Singles Energy            =      -0.0000000000000000 [Eh]
	 Same-Spin Energy          =      -0.3775826535210120 [Eh]
	 Opposite-Spin Energy      =      -1.2242026254594844 [Eh]
	 Correlation Energy        =      -1.6017852789804965 [Eh]
	 Total Energy              =    -383.3020135576156235 [Eh]

	 ================> DF-SCS-MP2 Energies <==================
	-----------------------------------------------------------
	 SCS Same-Spin Scale       =       0.3333333333333333 [-]
	 SCS Opposite-Spin Scale   =       1.2000000000000000 [-]
	 SCS Same-Spin Energy      =      -0.1258608845070040 [Eh]
	 SCS Opposite-Spin Energy  =      -1.4690431505513812 [Eh]
	 SCS Correlation Energy    =      -1.5949040350583852 [Eh]
	 SCS Total Energy          =    -383.2951323136935002 [Eh]
	-----------------------------------------------------------

  Dipole Moment: [D]
     X:     2.7358      Y:     3.5030      Z:     0.0340     Total:     4.4448

*** Psi4 exiting successfully. Buy a developer a beer!
