                               Psi4 1.3.2 release

  ==> Input File <==

--------------------------------------------------------------------------
#psi4
#
memory 32 gb

molecule  {
0 1
  O        1.1855920    -1.3251230    -0.0110750
  O       -3.7874790    -0.1788050    -0.0307850
  C        2.2579520     0.8287430     0.0207180
  C        3.5859950     0.0918750    -0.0061980
  C        1.0665970    -0.1008810     0.0170560
  C       -0.2803774     0.5383113     0.2239834
  C       -1.4085440    -0.1910960     0.0012370
  C       -2.7329950     0.4481680    -0.0067340
  H        2.1768340     1.4746290     0.9052650
  H        2.1584520     1.5067170    -0.8392700
  H        3.6798240    -0.5618240     0.8622080
  H        3.6612870    -0.5322660    -0.8978130
  H        4.4176170     0.8001410    -0.0031560
  H       -0.3336460     1.6309400     0.0414110
  H       -1.3609630    -1.2775220    -0.0163660
  H       -2.7297600     1.5577740     0.0156350
units angstrom
no_reorient  #important for SAPT in psi4, default
symmetry c1  #important for SAPT in psi4, default
}

set PROPERTIES_ORIGIN ["COM"]
properties('MP2/aug-cc-pvtz', properties = ['dipole'])
--------------------------------------------------------------------------

    Molecular point group: c1
  Charge       = 0
  Multiplicity = 1
  Basis Set: AUG-CC-PVTZ
    Blend: AUG-CC-PVTZ
  Basis Set: (AUG-CC-PVTZ AUX)
    Blend: AUG-CC-PVTZ-JKFIT

    Orbital Energies [Eh]
    ---------------------

    Doubly Occupied:

       1A    -20.576036     2A    -20.563090     3A    -11.354795
       4A    -11.352644     5A    -11.285561     6A    -11.283445
       7A    -11.256699     8A    -11.227986     9A     -1.397040
      10A     -1.393558    11A     -1.111483    12A     -1.069531
      13A     -0.953199    14A     -0.878877    15A     -0.800709
      16A     -0.753011    17A     -0.694108    18A     -0.682671
      19A     -0.645579    20A     -0.637447    21A     -0.629320
      22A     -0.570981    23A     -0.553441    24A     -0.544108
      25A     -0.535731    26A     -0.527927    27A     -0.501557
      28A     -0.452829    29A     -0.434370    30A     -0.403040

  @DF-RHF Final Energy:  -381.69174411345767

   => Energetics <=

    Nuclear Repulsion Energy =            330.6711281424757658
    One-Electron Energy =               -1174.5841960039945207
    Two-Electron Energy =                 462.2213237480611383
    Total Energy =                       -381.6917441134576734
  Basis Set: (AUG-CC-PVTZ AUX)
    Blend: AUG-CC-PVTZ-RI
    Molecular point group: c1

    Geometry (in Angstrom), charge = 0, multiplicity = 1:

       Center              X                  Y                   Z               Mass
    ------------   -----------------  -----------------  -----------------  -----------------
         O            1.185524789200    -1.324773313277    -0.032490395579    15.994914619570
         O           -3.787546210800    -0.178455313277    -0.052200395579    15.994914619570
         C            2.257884789200     0.829092686723    -0.000697395579    12.000000000000
         C            3.585927789200     0.092224686723    -0.027613395579    12.000000000000
         C            1.066529789200    -0.100531313277    -0.004359395579    12.000000000000
         C           -0.280444610800     0.538660986723     0.202568004421    12.000000000000
         C           -1.408611210800    -0.190746313277    -0.020178395579    12.000000000000
         C           -2.733062210800     0.448517686723    -0.028149395579    12.000000000000
         H            2.176766789200     1.474978686723     0.883849604421     1.007825032230
         H            2.158384789200     1.507066686723    -0.860685395579     1.007825032230
         H            3.679756789200    -0.561474313277     0.840792604421     1.007825032230
         H            3.661219789200    -0.531916313277    -0.919228395579     1.007825032230
         H            4.417549789200     0.800490686723    -0.024571395579     1.007825032230
         H           -0.333713210800     1.631289686723     0.019995604421     1.007825032230
         H           -1.361030210800    -1.277172313277    -0.037781395579     1.007825032230
         H           -2.729827210800     1.558123686723    -0.005780395579     1.007825032230

  Basis Set: AUG-CC-PVTZ
    Blend: AUG-CC-PVTZ
  Basis Set: (AUG-CC-PVTZ AUX)
    Blend: AUG-CC-PVTZ-JKFIT
	 Reference Energy          =    -381.6917441134576734 [Eh]
	 Singles Energy            =      -0.0000000000000000 [Eh]
	 Same-Spin Energy          =      -0.3780609064139491 [Eh]
	 Opposite-Spin Energy      =      -1.2254430939625589 [Eh]
	 Correlation Energy        =      -1.6035040003765080 [Eh]
	 Total Energy              =    -383.2952481138341909 [Eh]

	 ================> DF-SCS-MP2 Energies <==================
	-----------------------------------------------------------
	 SCS Same-Spin Scale       =       0.3333333333333333 [-]
	 SCS Opposite-Spin Scale   =       1.2000000000000000 [-]
	 SCS Same-Spin Energy      =      -0.1260203021379830 [Eh]
	 SCS Opposite-Spin Energy  =      -1.4705317127550706 [Eh]
	 SCS Correlation Energy    =      -1.5965520148930537 [Eh]
	 SCS Total Energy          =    -383.2882961283507370 [Eh]
	-----------------------------------------------------------

  Dipole Moment: [D]
     X:     2.7050      Y:     3.4691      Z:    -0.0262     Total:     4.3991

*** Psi4 exiting successfully. Buy a developer a beer!
