                               Psi4 1.4a2.dev612

  ==> Input File <==

--------------------------------------------------------------------------
#psi4
#
memory 32 gb

molecule  {
0 1
  O        1.1855920    -1.3251230    -0.0110750
  O       -3.7874790    -0.1788050    -0.0307850
  C        2.2579520     0.8287430     0.0207180
  C        3.5859950     0.0918750    -0.0061980
  C        1.0665970    -0.1008810     0.0170560
  C       -0.2810060     0.5415760     0.0240110
  C       -1.4085440    -0.1910960     0.0012370
  C       -2.7329950     0.4481680    -0.0067340
  H        2.1768340     1.4746290     0.9052650
  H        2.1584520     1.5067170    -0.8392700
  H        3.6798240    -0.5618240     0.8622080
  H        3.6612870    -0.5322660    -0.8978130
  H        4.4176170     0.8001410    -0.0031560
  H       -0.3336460     1.6309400     0.0414110
  H       -1.3609630    -1.2775220    -0.0163660
  H       -2.7338258     1.5522333     0.3155563
units angstrom
no_reorient  #important for SAPT in psi4, default
symmetry c1  #important for SAPT in psi4, default
}

set PROPERTIES_ORIGIN ["COM"]
properties('MP2/aug-cc-pvtz', properties = ['dipole'])
--------------------------------------------------------------------------

    Molecular point group: c1
  Charge       = 0
  Multiplicity = 1
  Basis Set: AUG-CC-PVTZ
    Blend: AUG-CC-PVTZ
  Basis Set: (AUG-CC-PVTZ AUX)
    Blend: AUG-CC-PVTZ-JKFIT

    Orbital Energies [Eh]
    ---------------------

    Doubly Occupied:

       1A    -20.575855     2A    -20.564032     3A    -11.355580
       4A    -11.353912     5A    -11.282133     6A    -11.278786
       7A    -11.256990     8A    -11.228244     9A     -1.396647
      10A     -1.394353    11A     -1.114841    12A     -1.070305
      13A     -0.954291    14A     -0.877958    15A     -0.795155
      16A     -0.756322    17A     -0.695599    18A     -0.684020
      19A     -0.646088    20A     -0.637580    21A     -0.629151
      22A     -0.574948    23A     -0.553836    24A     -0.543879
      25A     -0.536443    26A     -0.528791    27A     -0.502086
      28A     -0.449578    29A     -0.435591    30A     -0.404610

  @DF-RHF Final Energy:  -381.69712141246919

   => Energetics <=

    Nuclear Repulsion Energy =            330.9842017902594193
    One-Electron Energy =               -1175.2074399184105005
    Two-Electron Energy =                 462.5261167156818374
    Total Energy =                       -381.6971214124691869
  Basis Set: (AUG-CC-PVTZ AUX)
    Blend: AUG-CC-PVTZ-RI
    Molecular point group: c1

    Geometry (in Angstrom), charge = 0, multiplicity = 1:

       Center              X                  Y                   Z               Mass
    ------------   -----------------  -----------------  -----------------  -----------------
         O            1.185628676416    -1.325073104580    -0.013772366746    15.994914619570
         O           -3.787442323584    -0.178755104580    -0.033482366746    15.994914619570
         C            2.257988676416     0.828792895420     0.018020633254    12.000000000000
         C            3.586031676416     0.091924895420    -0.008895366746    12.000000000000
         C            1.066633676416    -0.100831104580     0.014358633254    12.000000000000
         C           -0.280969323584     0.541625895420     0.021313633254    12.000000000000
         C           -1.408507323584    -0.191046104580    -0.001460366746    12.000000000000
         C           -2.732958323584     0.448217895420    -0.009431366746    12.000000000000
         H            2.176870676416     1.474678895420     0.902567633254     1.007825032230
         H            2.158488676416     1.506766895420    -0.841967366746     1.007825032230
         H            3.679860676416    -0.561774104580     0.859510633254     1.007825032230
         H            3.661323676416    -0.532216104580    -0.900510366746     1.007825032230
         H            4.417653676416     0.800190895420    -0.005853366746     1.007825032230
         H           -0.333609323584     1.630989895420     0.038713633254     1.007825032230
         H           -1.360926323584    -1.277472104580    -0.019063366746     1.007825032230
         H           -2.733789123584     1.552283195420     0.312858933254     1.007825032230

  Basis Set: AUG-CC-PVTZ
    Blend: AUG-CC-PVTZ
  Basis Set: (AUG-CC-PVTZ AUX)
    Blend: AUG-CC-PVTZ-JKFIT
	 Reference Energy          =    -381.6971214124691869 [Eh]
	 Singles Energy            =      -0.0000000000000000 [Eh]
	 Same-Spin Energy          =      -0.3777422042687072 [Eh]
	 Opposite-Spin Energy      =      -1.2245687546122768 [Eh]
	 Correlation Energy        =      -1.6023109588809841 [Eh]
	 Total Energy              =    -383.2994323713501785 [Eh]

	 ================> DF-SCS-MP2 Energies <==================
	-----------------------------------------------------------
	 SCS Same-Spin Scale       =       0.3333333333333333 [-]
	 SCS Opposite-Spin Scale   =       1.2000000000000000 [-]
	 SCS Same-Spin Energy      =      -0.1259140680895691 [Eh]
	 SCS Opposite-Spin Energy  =      -1.4694825055347320 [Eh]
	 SCS Correlation Energy    =      -1.5953965736243010 [Eh]
	 SCS Total Energy          =    -383.2925179860935145 [Eh]
	-----------------------------------------------------------

  Dipole Moment: [D]
     X:     2.7364      Y:     3.4419      Z:     0.1965     Total:     4.4015

*** Psi4 exiting successfully. Buy a developer a beer!
