                               Psi4 1.4a2.dev612

  ==> Input File <==

--------------------------------------------------------------------------
#psi4
#
memory 32 gb

molecule  {
0 1
  O        1.1855920    -1.3251230    -0.0110750
  O       -3.7874790    -0.1788050    -0.0307850
  C        2.2579520     0.8287430     0.0207180
  C        3.5859950     0.0918750    -0.0061980
  C        1.0665970    -0.1008810     0.0170560
  C       -0.2810060     0.5415760     0.0240110
  C       -1.4085440    -0.1910960     0.0012370
  C       -2.7329950     0.4481680    -0.0067340
  H        2.1768340     1.4746290     0.9052650
  H        2.1584520     1.5067170    -0.8392700
  H        3.6798240    -0.5618240     0.8622080
  H        3.6612870    -0.5322660    -0.8978130
  H        4.4176170     0.8001410    -0.0031560
  H       -0.3336460     1.6309400     0.0414110
  H       -1.3645515    -1.2820492     0.2835784
  H       -2.7297600     1.5577740     0.0156350
units angstrom
no_reorient  #important for SAPT in psi4, default
symmetry c1  #important for SAPT in psi4, default
}

set PROPERTIES_ORIGIN ["COM"]
properties('MP2/aug-cc-pvtz', properties = ['dipole'])
--------------------------------------------------------------------------

    Molecular point group: c1
  Charge       = 0
  Multiplicity = 1
  Basis Set: AUG-CC-PVTZ
    Blend: AUG-CC-PVTZ
  Basis Set: (AUG-CC-PVTZ AUX)
    Blend: AUG-CC-PVTZ-JKFIT

    Orbital Energies [Eh]
    ---------------------

    Doubly Occupied:

       1A    -20.573947     2A    -20.564078     3A    -11.353902
       4A    -11.351360     5A    -11.283242     6A    -11.281289
       7A    -11.257073     8A    -11.228298     9A     -1.395487
      10A     -1.394081    11A     -1.114463    12A     -1.070208
      13A     -0.954586    14A     -0.879316    15A     -0.797053
      16A     -0.754946    17A     -0.695981    18A     -0.685869
      19A     -0.646229    20A     -0.636269    21A     -0.629038
      22A     -0.573220    23A     -0.549108    24A     -0.543857
      25A     -0.536158    26A     -0.528875    27A     -0.502002
      28A     -0.451556    29A     -0.435939    30A     -0.403278

  @DF-RHF Final Energy:  -381.69641271179626

   => Energetics <=

    Nuclear Repulsion Energy =            330.9680181561706149
    One-Electron Energy =               -1175.1874452560784903
    Two-Electron Energy =                 462.5230143881116192
    Total Energy =                       -381.6964127117962562
  Basis Set: (AUG-CC-PVTZ AUX)
    Blend: AUG-CC-PVTZ-RI
    Molecular point group: c1

    Geometry (in Angstrom), charge = 0, multiplicity = 1:

       Center              X                  Y                   Z               Mass
    ------------   -----------------  -----------------  -----------------  -----------------
         O            1.185624383472    -1.325082220230    -0.013772574512    15.994914619570
         O           -3.787446616528    -0.178764220230    -0.033482574512    15.994914619570
         C            2.257984383472     0.828783779770     0.018020425488    12.000000000000
         C            3.586027383472     0.091915779770    -0.008895574512    12.000000000000
         C            1.066629383472    -0.100840220230     0.014358425488    12.000000000000
         C           -0.280973616528     0.541616779770     0.021313425488    12.000000000000
         C           -1.408511616528    -0.191055220230    -0.001460574512    12.000000000000
         C           -2.732962616528     0.448208779770    -0.009431574512    12.000000000000
         H            2.176866383472     1.474669779770     0.902567425488     1.007825032230
         H            2.158484383472     1.506757779770    -0.841967574512     1.007825032230
         H            3.679856383472    -0.561783220230     0.859510425488     1.007825032230
         H            3.661319383472    -0.532225220230    -0.900510574512     1.007825032230
         H            4.417649383472     0.800181779770    -0.005853574512     1.007825032230
         H           -0.333613616528     1.630980779770     0.038713425488     1.007825032230
         H           -1.364519116528    -1.282008420230     0.280880825488     1.007825032230
         H           -2.729727616528     1.557814779770     0.012937425488     1.007825032230

  Basis Set: AUG-CC-PVTZ
    Blend: AUG-CC-PVTZ
  Basis Set: (AUG-CC-PVTZ AUX)
    Blend: AUG-CC-PVTZ-JKFIT
	 Reference Energy          =    -381.6964127117962562 [Eh]
	 Singles Energy            =      -0.0000000000000000 [Eh]
	 Same-Spin Energy          =      -0.3777363428262242 [Eh]
	 Opposite-Spin Energy      =      -1.2245557678918382 [Eh]
	 Correlation Energy        =      -1.6022921107180623 [Eh]
	 Total Energy              =    -383.2987048225143099 [Eh]

	 ================> DF-SCS-MP2 Energies <==================
	-----------------------------------------------------------
	 SCS Same-Spin Scale       =       0.3333333333333333 [-]
	 SCS Opposite-Spin Scale   =       1.2000000000000000 [-]
	 SCS Same-Spin Energy      =      -0.1259121142754080 [Eh]
	 SCS Opposite-Spin Energy  =      -1.4694669214702059 [Eh]
	 SCS Correlation Energy    =      -1.5953790357456139 [Eh]
	 SCS Total Energy          =    -383.2917917475418790 [Eh]
	-----------------------------------------------------------

  Dipole Moment: [D]
     X:     2.7469      Y:     3.5342      Z:     0.2878     Total:     4.4854

*** Psi4 exiting successfully. Buy a developer a beer!
