                               Psi4 1.4a2.dev612

  ==> Input File <==

--------------------------------------------------------------------------
#psi4
#
memory 32 gb

molecule  {
0 1
  O        1.1855920    -1.3251230    -0.0110750
  O       -3.7874790    -0.1788050    -0.0307850
  C        2.2579520     0.8287430     0.0207180
  C        3.5859950     0.0918750    -0.0061980
  C        1.0665970    -0.1008810     0.0170560
  C       -0.2810060     0.5415760     0.0240110
  C       -1.4085440    -0.1910960     0.0012370
  C       -2.7329950     0.4481680    -0.0067340
  H        2.1768340     1.4746290     0.9052650
  H        2.1584520     1.5067170    -0.8392700
  H        3.6798240    -0.5618240     0.8622080
  H        3.6612870    -0.5322660    -0.8978130
  H        4.4176170     0.8001410    -0.0031560
  H       -0.3336460     1.6309400     0.0414110
  H       -1.3609630    -1.2775220    -0.0163660
  H       -2.7304376     1.5568505     0.0656219
units angstrom
no_reorient  #important for SAPT in psi4, default
symmetry c1  #important for SAPT in psi4, default
}

set PROPERTIES_ORIGIN ["COM"]
properties('MP2/aug-cc-pvtz', properties = ['dipole'])
--------------------------------------------------------------------------

    Molecular point group: c1
  Charge       = 0
  Multiplicity = 1
  Basis Set: AUG-CC-PVTZ
    Blend: AUG-CC-PVTZ
  Basis Set: (AUG-CC-PVTZ AUX)
    Blend: AUG-CC-PVTZ-JKFIT

    Orbital Energies [Eh]
    ---------------------

    Doubly Occupied:

       1A    -20.574086     2A    -20.564059     3A    -11.353927
       4A    -11.351483     5A    -11.282211     6A    -11.277957
       7A    -11.257025     8A    -11.228265     9A     -1.395649
      10A     -1.394171    11A     -1.114906    12A     -1.070351
      13A     -0.954813    14A     -0.879171    15A     -0.801064
      16A     -0.756317    17A     -0.696611    18A     -0.685836
      19A     -0.646113    20A     -0.637211    21A     -0.629981
      22A     -0.573743    23A     -0.554681    24A     -0.543939
      25A     -0.536518    26A     -0.528839    27A     -0.502081
      28A     -0.451549    29A     -0.435805    30A     -0.404718

  @DF-RHF Final Energy:  -381.70282751186869

   => Energetics <=

    Nuclear Repulsion Energy =            331.1330048715213366
    One-Electron Energy =               -1175.5055064053876777
    Two-Electron Energy =                 462.6696740219977073
    Total Energy =                       -381.7028275118686906
  Basis Set: (AUG-CC-PVTZ AUX)
    Blend: AUG-CC-PVTZ-RI
    Molecular point group: c1

    Geometry (in Angstrom), charge = 0, multiplicity = 1:

       Center              X                  Y                   Z               Mass
    ------------   -----------------  -----------------  -----------------  -----------------
         O            1.185598202175    -1.325114632727    -0.011524399916    15.994914619570
         O           -3.787472797825    -0.178796632727    -0.031234399916    15.994914619570
         C            2.257958202175     0.828751367273     0.020268600084    12.000000000000
         C            3.586001202175     0.091883367273    -0.006647399916    12.000000000000
         C            1.066603202175    -0.100872632727     0.016606600084    12.000000000000
         C           -0.280999797825     0.541584367273     0.023561600084    12.000000000000
         C           -1.408537797825    -0.191087632727     0.000787600084    12.000000000000
         C           -2.732988797825     0.448176367273    -0.007183399916    12.000000000000
         H            2.176840202175     1.474637367273     0.904815600084     1.007825032230
         H            2.158458202175     1.506725367273    -0.839719399916     1.007825032230
         H            3.679830202175    -0.561815632727     0.861758600084     1.007825032230
         H            3.661293202175    -0.532257632727    -0.898262399916     1.007825032230
         H            4.417623202175     0.800149367273    -0.003605399916     1.007825032230
         H           -0.333639797825     1.630948367273     0.040961600084     1.007825032230
         H           -1.360956797825    -1.277513632727    -0.016815399916     1.007825032230
         H           -2.730431397825     1.556858867273     0.065172500084     1.007825032230

  Basis Set: AUG-CC-PVTZ
    Blend: AUG-CC-PVTZ
  Basis Set: (AUG-CC-PVTZ AUX)
    Blend: AUG-CC-PVTZ-JKFIT
	 Reference Energy          =    -381.7028275118686906 [Eh]
	 Singles Energy            =      -0.0000000000000000 [Eh]
	 Same-Spin Energy          =      -0.3774256536489999 [Eh]
	 Opposite-Spin Energy      =      -1.2238450840020538 [Eh]
	 Correlation Energy        =      -1.6012707376510538 [Eh]
	 Total Energy              =    -383.3040982495197682 [Eh]

	 ================> DF-SCS-MP2 Energies <==================
	-----------------------------------------------------------
	 SCS Same-Spin Scale       =       0.3333333333333333 [-]
	 SCS Opposite-Spin Scale   =       1.2000000000000000 [-]
	 SCS Same-Spin Energy      =      -0.1258085512163333 [Eh]
	 SCS Opposite-Spin Energy  =      -1.4686141008024645 [Eh]
	 SCS Correlation Energy    =      -1.5944226520187978 [Eh]
	 SCS Total Energy          =    -383.2972501638874974 [Eh]
	-----------------------------------------------------------

  Dipole Moment: [D]
     X:     2.7484      Y:     3.5110      Z:     0.1095     Total:     4.4602

*** Psi4 exiting successfully. Buy a developer a beer!
