                               Psi4 1.4a2.dev612

  ==> Input File <==

--------------------------------------------------------------------------
#psi4
#
memory 32 gb

molecule  {
0 1
  O        1.1855920    -1.3251230    -0.0110750
  O       -3.7874790    -0.1788050    -0.0307850
  C        2.2579520     0.8287430     0.0207180
  C        3.5859950     0.0918750    -0.0061980
  C        1.0665970    -0.1008810     0.0170560
  C       -0.2810060     0.5415760     0.0240110
  C       -1.4085440    -0.1910960     0.0012370
  C       -2.7329950     0.4481680    -0.0067340
  H        2.1768340     1.4746290     0.9052650
  H        2.1584520     1.5067170    -0.8392700
  H        3.6798240    -0.5618240     0.8622080
  H        3.6612870    -0.5322660    -0.8978130
  H        4.4176170     0.8001410    -0.0031560
  H       -0.3336460     1.6309400     0.0414110
  H       -1.3615611    -1.2782765     0.0336247
  H       -2.7297600     1.5577740     0.0156350
units angstrom
no_reorient  #important for SAPT in psi4, default
symmetry c1  #important for SAPT in psi4, default
}

set PROPERTIES_ORIGIN ["COM"]
properties('MP2/aug-cc-pvtz', properties = ['dipole'])
--------------------------------------------------------------------------

    Molecular point group: c1
  Charge       = 0
  Multiplicity = 1
  Basis Set: AUG-CC-PVTZ
    Blend: AUG-CC-PVTZ
  Basis Set: (AUG-CC-PVTZ AUX)
    Blend: AUG-CC-PVTZ-JKFIT

    Orbital Energies [Eh]
    ---------------------

    Doubly Occupied:

       1A    -20.574029     2A    -20.564056     3A    -11.353925
       4A    -11.351357     5A    -11.282235     6A    -11.278035
       7A    -11.257025     8A    -11.228264     9A     -1.395618
      10A     -1.394156    11A     -1.114896    12A     -1.070346
      13A     -0.954825    14A     -0.879216    15A     -0.801139
      16A     -0.756278    17A     -0.696629    18A     -0.685884
      19A     -0.646114    20A     -0.637172    21A     -0.629980
      22A     -0.573744    23A     -0.554528    24A     -0.543935
      25A     -0.536513    26A     -0.528839    27A     -0.502075
      28A     -0.451613    29A     -0.435811    30A     -0.404666

  @DF-RHF Final Energy:  -381.70283109464918

   => Energetics <=

    Nuclear Repulsion Energy =            331.1326098256226942
    One-Electron Energy =               -1175.5050791904020571
    Two-Electron Energy =                 462.6696382701301786
    Total Energy =                       -381.7028310946491843
  Basis Set: (AUG-CC-PVTZ AUX)
    Blend: AUG-CC-PVTZ-RI
    Molecular point group: c1

    Geometry (in Angstrom), charge = 0, multiplicity = 1:

       Center              X                  Y                   Z               Mass
    ------------   -----------------  -----------------  -----------------  -----------------
         O            1.185597487134    -1.325116152751    -0.011524434094    15.994914619570
         O           -3.787473512866    -0.178798152751    -0.031234434094    15.994914619570
         C            2.257957487134     0.828749847249     0.020268565906    12.000000000000
         C            3.586000487134     0.091881847249    -0.006647434094    12.000000000000
         C            1.066602487134    -0.100874152751     0.016606565906    12.000000000000
         C           -0.281000512866     0.541582847249     0.023561565906    12.000000000000
         C           -1.408538512866    -0.191089152751     0.000787565906    12.000000000000
         C           -2.732989512866     0.448174847249    -0.007183434094    12.000000000000
         H            2.176839487134     1.474635847249     0.904815565906     1.007825032230
         H            2.158457487134     1.506723847249    -0.839719434094     1.007825032230
         H            3.679829487134    -0.561817152751     0.861758565906     1.007825032230
         H            3.661292487134    -0.532259152751    -0.898262434094     1.007825032230
         H            4.417622487134     0.800147847249    -0.003605434094     1.007825032230
         H           -0.333640512866     1.630946847249     0.040961565906     1.007825032230
         H           -1.361555612866    -1.278269652751     0.033175265906     1.007825032230
         H           -2.729754512866     1.557780847249     0.015185565906     1.007825032230

  Basis Set: AUG-CC-PVTZ
    Blend: AUG-CC-PVTZ
  Basis Set: (AUG-CC-PVTZ AUX)
    Blend: AUG-CC-PVTZ-JKFIT
	 Reference Energy          =    -381.7028310946491843 [Eh]
	 Singles Energy            =      -0.0000000000000000 [Eh]
	 Same-Spin Energy          =      -0.3774239670336014 [Eh]
	 Opposite-Spin Energy      =      -1.2238420158522856 [Eh]
	 Correlation Energy        =      -1.6012659828858871 [Eh]
	 Total Energy              =    -383.3040970775350615 [Eh]

	 ================> DF-SCS-MP2 Energies <==================
	-----------------------------------------------------------
	 SCS Same-Spin Scale       =       0.3333333333333333 [-]
	 SCS Opposite-Spin Scale   =       1.2000000000000000 [-]
	 SCS Same-Spin Energy      =      -0.1258079890112005 [Eh]
	 SCS Opposite-Spin Energy  =      -1.4686104190227427 [Eh]
	 SCS Correlation Energy    =      -1.5944184080339432 [Eh]
	 SCS Total Energy          =    -383.2972495026831439 [Eh]
	-----------------------------------------------------------

  Dipole Moment: [D]
     X:     2.7485      Y:     3.5135      Z:     0.1234     Total:     4.4625

*** Psi4 exiting successfully. Buy a developer a beer!
