                               Psi4 1.4a2.dev612

  ==> Input File <==

--------------------------------------------------------------------------
#psi4
#
memory 32 gb

molecule  {
0 1
  O        1.1855920    -1.3251230    -0.0110750
  O       -3.7874790    -0.1788050    -0.0307850
  C        2.2579520     0.8287430     0.0207180
  C        3.5859950     0.0918750    -0.0061980
  C        1.0665970    -0.1008810     0.0170560
  C       -0.2810060     0.5415760     0.0240110
  C       -1.4085440    -0.1910960     0.0012370
  C       -2.7329950     0.4481680    -0.0067340
  H        2.1768340     1.4746290     0.9052650
  H        2.1584520     1.5067170    -0.8392700
  H        3.6798240    -0.5618240     0.8622080
  H        3.6612870    -0.5322660    -0.8978130
  H        4.4176170     0.8001410    -0.0031560
  H       -0.3336460     1.6309400     0.0414110
  H       -1.3609630    -1.2775220    -0.0163660
  H       -2.7317929     1.5550036     0.1655956
units angstrom
no_reorient  #important for SAPT in psi4, default
symmetry c1  #important for SAPT in psi4, default
}

set PROPERTIES_ORIGIN ["COM"]
properties('MP2/aug-cc-pvtz', properties = ['dipole'])
--------------------------------------------------------------------------

    Molecular point group: c1
  Charge       = 0
  Multiplicity = 1
  Basis Set: AUG-CC-PVTZ
    Blend: AUG-CC-PVTZ
  Basis Set: (AUG-CC-PVTZ AUX)
    Blend: AUG-CC-PVTZ-JKFIT

    Orbital Energies [Eh]
    ---------------------

    Doubly Occupied:

       1A    -20.574497     2A    -20.564048     3A    -11.353920
       4A    -11.352443     5A    -11.282185     6A    -11.278149
       7A    -11.257014     8A    -11.228258     9A     -1.395860
      10A     -1.394230    11A     -1.114884    12A     -1.070336
      13A     -0.954675    14A     -0.878853    15A     -0.799613
      16A     -0.756316    17A     -0.696327    18A     -0.685453
      19A     -0.646104    20A     -0.637293    21A     -0.629803
      22A     -0.574049    23A     -0.554446    24A     -0.543927
      25A     -0.536491    26A     -0.528825    27A     -0.502080
      28A     -0.451092    29A     -0.435758    30A     -0.404696

  @DF-RHF Final Energy:  -381.70159185112459

   => Energetics <=

    Nuclear Repulsion Energy =            331.0975354908788972
    One-Electron Energy =               -1175.4350040829003774
    Two-Electron Energy =                 462.6358767408968333
    Total Energy =                       -381.7015918511245900
  Basis Set: (AUG-CC-PVTZ AUX)
    Blend: AUG-CC-PVTZ-RI
    Molecular point group: c1

    Geometry (in Angstrom), charge = 0, multiplicity = 1:

       Center              X                  Y                   Z               Mass
    ------------   -----------------  -----------------  -----------------  -----------------
         O            1.185610392051    -1.325098021288    -0.012423586108    15.994914619570
         O           -3.787460607949    -0.178780021288    -0.032133586108    15.994914619570
         C            2.257970392051     0.828767978712     0.019369413892    12.000000000000
         C            3.586013392051     0.091899978712    -0.007546586108    12.000000000000
         C            1.066615392051    -0.100856021288     0.015707413892    12.000000000000
         C           -0.280987607949     0.541600978712     0.022662413892    12.000000000000
         C           -1.408525607949    -0.191071021288    -0.000111586108    12.000000000000
         C           -2.732976607949     0.448192978712    -0.008082586108    12.000000000000
         H            2.176852392051     1.474653978712     0.903916413892     1.007825032230
         H            2.158470392051     1.506741978712    -0.840618586108     1.007825032230
         H            3.679842392051    -0.561799021288     0.860859413892     1.007825032230
         H            3.661305392051    -0.532241021288    -0.899161586108     1.007825032230
         H            4.417635392051     0.800165978712    -0.004504586108     1.007825032230
         H           -0.333627607949     1.630964978712     0.040062413892     1.007825032230
         H           -1.360944607949    -1.277497021288    -0.017714586108     1.007825032230
         H           -2.731774507949     1.555028578712     0.164247013892     1.007825032230

  Basis Set: AUG-CC-PVTZ
    Blend: AUG-CC-PVTZ
  Basis Set: (AUG-CC-PVTZ AUX)
    Blend: AUG-CC-PVTZ-JKFIT
	 Reference Energy          =    -381.7015918511245900 [Eh]
	 Singles Energy            =      -0.0000000000000000 [Eh]
	 Same-Spin Energy          =      -0.3774986987103729 [Eh]
	 Opposite-Spin Energy      =      -1.2239975474414500 [Eh]
	 Correlation Energy        =      -1.6014962461518230 [Eh]
	 Total Energy              =    -383.3030880972764294 [Eh]

	 ================> DF-SCS-MP2 Energies <==================
	-----------------------------------------------------------
	 SCS Same-Spin Scale       =       0.3333333333333333 [-]
	 SCS Opposite-Spin Scale   =       1.2000000000000000 [-]
	 SCS Same-Spin Energy      =      -0.1258328995701243 [Eh]
	 SCS Opposite-Spin Energy  =      -1.4687970569297399 [Eh]
	 SCS Correlation Energy    =      -1.5946299564998643 [Eh]
	 SCS Total Energy          =    -383.2962218076244767 [Eh]
	-----------------------------------------------------------

  Dipole Moment: [D]
     X:     2.7452      Y:     3.4948      Z:     0.1470     Total:     4.4465

*** Psi4 exiting successfully. Buy a developer a beer!
