                               Psi4 1.3.2 release

  ==> Input File <==

--------------------------------------------------------------------------
#psi4
#
memory 32 gb

molecule  {
0 1
  O        1.1855920    -1.3251230    -0.0110750
  O       -3.7874790    -0.1788050    -0.0307850
  C        2.2579520     0.8287430     0.0207180
  C        3.5859950     0.0918750    -0.0061980
  C        1.0665970    -0.1008810     0.0170560
  C       -0.2808488     0.5407598     0.0740041
  C       -1.4085440    -0.1910960     0.0012370
  C       -2.7329950     0.4481680    -0.0067340
  H        2.1768340     1.4746290     0.9052650
  H        2.1584520     1.5067170    -0.8392700
  H        3.6798240    -0.5618240     0.8622080
  H        3.6612870    -0.5322660    -0.8978130
  H        4.4176170     0.8001410    -0.0031560
  H       -0.3336460     1.6309400     0.0414110
  H       -1.3609630    -1.2775220    -0.0163660
  H       -2.7297600     1.5577740     0.0156350
units angstrom
no_reorient  #important for SAPT in psi4, default
symmetry c1  #important for SAPT in psi4, default
}

set PROPERTIES_ORIGIN ["COM"]
properties('MP2/aug-cc-pvtz', properties = ['dipole'])
--------------------------------------------------------------------------

    Molecular point group: c1
  Charge       = 0
  Multiplicity = 1
  Basis Set: AUG-CC-PVTZ
    Blend: AUG-CC-PVTZ
  Basis Set: (AUG-CC-PVTZ AUX)
    Blend: AUG-CC-PVTZ-JKFIT

    Orbital Energies [Eh]
    ---------------------

    Doubly Occupied:

       1A    -20.574192     2A    -20.563961     3A    -11.353984
       4A    -11.351467     5A    -11.282477     6A    -11.278385
       7A    -11.256999     8A    -11.228241     9A     -1.395706
      10A     -1.394137    11A     -1.114636    12A     -1.070283
      13A     -0.954765    14A     -0.879204    15A     -0.801228
      16A     -0.756095    17A     -0.696488    18A     -0.685655
      19A     -0.646074    20A     -0.637224    21A     -0.629979
      22A     -0.573488    23A     -0.554668    24A     -0.543920
      25A     -0.536493    26A     -0.528786    27A     -0.502043
      28A     -0.451701    29A     -0.435757    30A     -0.404540

  @DF-RHF Final Energy:  -381.70231429313401

   => Energetics <=

    Nuclear Repulsion Energy =            331.1022041367628503
    One-Electron Energy =               -1175.4438886616819673
    Two-Electron Energy =                 462.6393702317851648
    Total Energy =                       -381.7023142931340089
  Basis Set: (AUG-CC-PVTZ AUX)
    Blend: AUG-CC-PVTZ-RI
    Molecular point group: c1

    Geometry (in Angstrom), charge = 0, multiplicity = 1:

       Center              X                  Y                   Z               Mass
    ------------   -----------------  -----------------  -----------------  -----------------
         O            1.185575272710    -1.325035529814    -0.016428703672    15.994914619570
         O           -3.787495727290    -0.178717529814    -0.036138703672    15.994914619570
         C            2.257935272710     0.828830470186     0.015364296328    12.000000000000
         C            3.585978272710     0.091962470186    -0.011551703672    12.000000000000
         C            1.066580272710    -0.100793529814     0.011702296328    12.000000000000
         C           -0.280865527290     0.540847270186     0.068650396328    12.000000000000
         C           -1.408560727290    -0.191008529814    -0.004116703672    12.000000000000
         C           -2.733011727290     0.448255470186    -0.012087703672    12.000000000000
         H            2.176817272710     1.474716470186     0.899911296328     1.007825032230
         H            2.158435272710     1.506804470186    -0.844623703672     1.007825032230
         H            3.679807272710    -0.561736529814     0.856854296328     1.007825032230
         H            3.661270272710    -0.532178529814    -0.903166703672     1.007825032230
         H            4.417600272710     0.800228470186    -0.008509703672     1.007825032230
         H           -0.333662727290     1.631027470186     0.036057296328     1.007825032230
         H           -1.360979727290    -1.277434529814    -0.021719703672     1.007825032230
         H           -2.729776727290     1.557861470186     0.010281296328     1.007825032230

  Basis Set: AUG-CC-PVTZ
    Blend: AUG-CC-PVTZ
  Basis Set: (AUG-CC-PVTZ AUX)
    Blend: AUG-CC-PVTZ-JKFIT
	 Reference Energy          =    -381.7023142931340089 [Eh]
	 Singles Energy            =      -0.0000000000000000 [Eh]
	 Same-Spin Energy          =      -0.3774603621658488 [Eh]
	 Opposite-Spin Energy      =      -1.2239191476005078 [Eh]
	 Correlation Energy        =      -1.6013795097663566 [Eh]
	 Total Energy              =    -383.3036938029003409 [Eh]

	 ================> DF-SCS-MP2 Energies <==================
	-----------------------------------------------------------
	 SCS Same-Spin Scale       =       0.3333333333333333 [-]
	 SCS Opposite-Spin Scale   =       1.2000000000000000 [-]
	 SCS Same-Spin Energy      =      -0.1258201207219496 [Eh]
	 SCS Opposite-Spin Energy  =      -1.4687029771206093 [Eh]
	 SCS Correlation Energy    =      -1.5945230978425589 [Eh]
	 SCS Total Energy          =    -383.2968373909765774 [Eh]
	-----------------------------------------------------------

  Dipole Moment: [D]
     X:     2.7450      Y:     3.5112      Z:     0.0623     Total:     4.4573

*** Psi4 exiting successfully. Buy a developer a beer!
