                               Psi4 1.4a2.dev612

  ==> Input File <==

--------------------------------------------------------------------------
#psi4
#
memory 32 gb

molecule  {
0 1
  O        1.1855920    -1.3251230    -0.0110750
  O       -3.7874790    -0.1788050    -0.0307850
  C        2.2579520     0.8287430     0.0207180
  C        3.5859950     0.0918750    -0.0061980
  C        1.0665970    -0.1008810     0.0170560
  C       -0.2810060     0.5415760     0.0240110
  C       -1.4085440    -0.1910960     0.0012370
  C       -2.7329950     0.4481680    -0.0067340
  H        2.1768340     1.4746290     0.9052650
  H        2.1584520     1.5067170    -0.8392700
  H        3.6798240    -0.5618240     0.8622080
  H        3.6612870    -0.5322660    -0.8978130
  H        4.4176170     0.8001410    -0.0031560
  H       -0.3333605     1.6318738    -0.0085795
  H       -1.3609630    -1.2775220    -0.0163660
  H       -2.7297600     1.5577740     0.0156350
units angstrom
no_reorient  #important for SAPT in psi4, default
symmetry c1  #important for SAPT in psi4, default
}

set PROPERTIES_ORIGIN ["COM"]
properties('MP2/aug-cc-pvtz', properties = ['dipole'])
--------------------------------------------------------------------------

    Molecular point group: c1
  Charge       = 0
  Multiplicity = 1
  Basis Set: AUG-CC-PVTZ
    Blend: AUG-CC-PVTZ
  Basis Set: (AUG-CC-PVTZ AUX)
    Blend: AUG-CC-PVTZ-JKFIT

    Orbital Energies [Eh]
    ---------------------

    Doubly Occupied:

       1A    -20.574046     2A    -20.564072     3A    -11.353937
       4A    -11.351364     5A    -11.282325     6A    -11.277973
       7A    -11.257021     8A    -11.228262     9A     -1.395635
      10A     -1.394172    11A     -1.114884    12A     -1.070351
      13A     -0.954817    14A     -0.879204    15A     -0.801212
      16A     -0.756230    17A     -0.696573    18A     -0.685841
      19A     -0.646109    20A     -0.637211    21A     -0.630006
      22A     -0.573599    23A     -0.554694    24A     -0.543920
      25A     -0.536520    26A     -0.528839    27A     -0.502084
      28A     -0.451623    29A     -0.435834    30A     -0.404693

  @DF-RHF Final Energy:  -381.70284013348015

   => Energetics <=

    Nuclear Repulsion Energy =            331.1334770054768910
    One-Electron Energy =               -1175.5065288294113088
    Two-Electron Energy =                 462.6702116904543232
    Total Energy =                       -381.7028401334801515
  Basis Set: (AUG-CC-PVTZ AUX)
    Blend: AUG-CC-PVTZ-RI
    Molecular point group: c1

    Geometry (in Angstrom), charge = 0, multiplicity = 1:

       Center              X                  Y                   Z               Mass
    ------------   -----------------  -----------------  -----------------  -----------------
         O            1.185589539835    -1.325131337706    -0.010625180445    15.994914619570
         O           -3.787481460165    -0.178813337706    -0.030335180445    15.994914619570
         C            2.257949539835     0.828734662294     0.021167819555    12.000000000000
         C            3.585992539835     0.091866662294    -0.005748180445    12.000000000000
         C            1.066594539835    -0.100889337706     0.017505819555    12.000000000000
         C           -0.281008460165     0.541567662294     0.024460819555    12.000000000000
         C           -1.408546460165    -0.191104337706     0.001686819555    12.000000000000
         C           -2.732997460165     0.448159662294    -0.006284180445    12.000000000000
         H            2.176831539835     1.474620662294     0.905714819555     1.007825032230
         H            2.158449539835     1.506708662294    -0.838820180445     1.007825032230
         H            3.679821539835    -0.561832337706     0.862657819555     1.007825032230
         H            3.661284539835    -0.532274337706    -0.897363180445     1.007825032230
         H            4.417614539835     0.800132662294    -0.002706180445     1.007825032230
         H           -0.333362960165     1.631865462294    -0.008129680445     1.007825032230
         H           -1.360965460165    -1.277530337706    -0.015916180445     1.007825032230
         H           -2.729762460165     1.557765662294     0.016084819555     1.007825032230

  Basis Set: AUG-CC-PVTZ
    Blend: AUG-CC-PVTZ
  Basis Set: (AUG-CC-PVTZ AUX)
    Blend: AUG-CC-PVTZ-JKFIT
	 Reference Energy          =    -381.7028401334801515 [Eh]
	 Singles Energy            =      -0.0000000000000000 [Eh]
	 Same-Spin Energy          =      -0.3774240397530645 [Eh]
	 Opposite-Spin Energy      =      -1.2238416365311484 [Eh]
	 Correlation Energy        =      -1.6012656762842128 [Eh]
	 Total Energy              =    -383.3041058097643372 [Eh]

	 ================> DF-SCS-MP2 Energies <==================
	-----------------------------------------------------------
	 SCS Same-Spin Scale       =       0.3333333333333333 [-]
	 SCS Opposite-Spin Scale   =       1.2000000000000000 [-]
	 SCS Same-Spin Energy      =      -0.1258080132510215 [Eh]
	 SCS Opposite-Spin Energy  =      -1.4686099638373780 [Eh]
	 SCS Correlation Energy    =      -1.5944179770883995 [Eh]
	 SCS Total Energy          =    -383.2972581105685776 [Eh]
	-----------------------------------------------------------

  Dipole Moment: [D]
     X:     2.7491      Y:     3.5124      Z:     0.0583     Total:     4.4607

*** Psi4 exiting successfully. Buy a developer a beer!
