                               Psi4 1.4a2.dev612

  ==> Input File <==

--------------------------------------------------------------------------
#psi4
#
memory 32 gb

molecule  {
0 1
  O        1.1855920    -1.3251230    -0.0110750
  O       -3.7874790    -0.1788050    -0.0307850
  C        2.2579520     0.8287430     0.0207180
  C        3.5859950     0.0918750    -0.0061980
  C        1.0665970    -0.1008810     0.0170560
  C       -0.2810060     0.5415760     0.0240110
  C       -1.4085440    -0.1910960     0.0012370
  C       -2.7329950     0.4481680    -0.0067340
  H        2.1768340     1.4746290     0.9052650
  H        2.1584520     1.5067170    -0.8392700
  H        3.6798240    -0.5618240     0.8622080
  H        3.6612870    -0.5322660    -0.8978130
  H        4.4176170     0.8001410    -0.0031560
  H       -0.3336460     1.6309400     0.0414110
  H       -1.3621592    -1.2790311     0.0836155
  H       -2.7297600     1.5577740     0.0156350
units angstrom
no_reorient  #important for SAPT in psi4, default
symmetry c1  #important for SAPT in psi4, default
}

set PROPERTIES_ORIGIN ["COM"]
properties('MP2/aug-cc-pvtz', properties = ['dipole'])
--------------------------------------------------------------------------

    Molecular point group: c1
  Charge       = 0
  Multiplicity = 1
  Basis Set: AUG-CC-PVTZ
    Blend: AUG-CC-PVTZ
  Basis Set: (AUG-CC-PVTZ AUX)
    Blend: AUG-CC-PVTZ-JKFIT

    Orbital Energies [Eh]
    ---------------------

    Doubly Occupied:

       1A    -20.574023     2A    -20.564053     3A    -11.353920
       4A    -11.351357     5A    -11.282306     6A    -11.278338
       7A    -11.257026     8A    -11.228265     9A     -1.395606
      10A     -1.394147    11A     -1.114855    12A     -1.070331
      13A     -0.954801    14A     -0.879223    15A     -0.800754
      16A     -0.756162    17A     -0.696567    18A     -0.685881
      19A     -0.646122    20A     -0.637080    21A     -0.629906
      22A     -0.573755    23A     -0.554018    24A     -0.543932
      25A     -0.536487    26A     -0.528840    27A     -0.502066
      28A     -0.451612    29A     -0.435820    30A     -0.404532

  @DF-RHF Final Energy:  -381.70232782599226

   => Energetics <=

    Nuclear Repulsion Energy =            331.1177621318435058
    One-Electron Energy =               -1175.4766086410641037
    Two-Electron Energy =                 462.6565186832283416
    Total Energy =                       -381.7023278259922563
  Basis Set: (AUG-CC-PVTZ AUX)
    Blend: AUG-CC-PVTZ-RI
    Molecular point group: c1

    Geometry (in Angstrom), charge = 0, multiplicity = 1:

       Center              X                  Y                   Z               Mass
    ------------   -----------------  -----------------  -----------------  -----------------
         O            1.185602866581    -1.325109365707    -0.011974062717    15.994914619570
         O           -3.787468133419    -0.178791365707    -0.031684062717    15.994914619570
         C            2.257962866581     0.828756634293     0.019818937283    12.000000000000
         C            3.586005866581     0.091888634293    -0.007097062717    12.000000000000
         C            1.066607866581    -0.100867365707     0.016156937283    12.000000000000
         C           -0.280995133419     0.541589634293     0.023111937283    12.000000000000
         C           -1.408533133419    -0.191082365707     0.000337937283    12.000000000000
         C           -2.732984133419     0.448181634293    -0.007633062717    12.000000000000
         H            2.176844866581     1.474642634293     0.904365937283     1.007825032230
         H            2.158462866581     1.506730634293    -0.840169062717     1.007825032230
         H            3.679834866581    -0.561810365707     0.861308937283     1.007825032230
         H            3.661297866581    -0.532252365707    -0.898712062717     1.007825032230
         H            4.417627866581     0.800154634293    -0.004055062717     1.007825032230
         H           -0.333635133419     1.630953634293     0.040511937283     1.007825032230
         H           -1.362148333419    -1.279017465707     0.082716437283     1.007825032230
         H           -2.729749133419     1.557787634293     0.014735937283     1.007825032230

  Basis Set: AUG-CC-PVTZ
    Blend: AUG-CC-PVTZ
  Basis Set: (AUG-CC-PVTZ AUX)
    Blend: AUG-CC-PVTZ-JKFIT
	 Reference Energy          =    -381.7023278259922563 [Eh]
	 Singles Energy            =      -0.0000000000000000 [Eh]
	 Same-Spin Energy          =      -0.3774505206819749 [Eh]
	 Opposite-Spin Energy      =      -1.2238960267615475 [Eh]
	 Correlation Energy        =      -1.6013465474435225 [Eh]
	 Total Energy              =    -383.3036743734357970 [Eh]

	 ================> DF-SCS-MP2 Energies <==================
	-----------------------------------------------------------
	 SCS Same-Spin Scale       =       0.3333333333333333 [-]
	 SCS Opposite-Spin Scale   =       1.2000000000000000 [-]
	 SCS Same-Spin Energy      =      -0.1258168402273250 [Eh]
	 SCS Opposite-Spin Energy  =      -1.4686752321138570 [Eh]
	 SCS Correlation Energy    =      -1.5944920723411820 [Eh]
	 SCS Total Energy          =    -383.2968198983334105 [Eh]
	-----------------------------------------------------------

  Dipole Moment: [D]
     X:     2.7480      Y:     3.5149      Z:     0.1566     Total:     4.4644

*** Psi4 exiting successfully. Buy a developer a beer!
