                               Psi4 1.4a2.dev612

  ==> Input File <==

--------------------------------------------------------------------------
#psi4
#
memory 32 gb

molecule  {
0 1
  O        1.1855920    -1.3251230    -0.0110750
  O       -3.7874790    -0.1788050    -0.0307850
  C        2.2579520     0.8287430     0.0207180
  C        3.5859950     0.0918750    -0.0061980
  C        1.0665970    -0.1008810     0.0170560
  C       -0.2810060     0.5415760     0.0240110
  C       -1.4085440    -0.1910960     0.0012370
  C       -2.7329950     0.4481680    -0.0067340
  H        2.1768340     1.4746290     0.9052650
  H        2.1584520     1.5067170    -0.8392700
  H        3.6798240    -0.5618240     0.8622080
  H        3.6612870    -0.5322660    -0.8978130
  H        4.4176170     0.8001410    -0.0031560
  H       -0.3336460     1.6309400     0.0414110
  H       -1.3609630    -1.2775220    -0.0163660
  H       -2.7311153     1.5559271     0.1156088
units angstrom
no_reorient  #important for SAPT in psi4, default
symmetry c1  #important for SAPT in psi4, default
}

set PROPERTIES_ORIGIN ["COM"]
properties('MP2/aug-cc-pvtz', properties = ['dipole'])
--------------------------------------------------------------------------

    Molecular point group: c1
  Charge       = 0
  Multiplicity = 1
  Basis Set: AUG-CC-PVTZ
    Blend: AUG-CC-PVTZ
  Basis Set: (AUG-CC-PVTZ AUX)
    Blend: AUG-CC-PVTZ-JKFIT

    Orbital Energies [Eh]
    ---------------------

    Doubly Occupied:

       1A    -20.574242     2A    -20.564055     3A    -11.353924
       4A    -11.351846     5A    -11.282201     6A    -11.278029
       7A    -11.257021     8A    -11.228262     9A     -1.395727
      10A     -1.394195    11A     -1.114897    12A     -1.070345
      13A     -0.954760    14A     -0.879048    15A     -0.800510
      16A     -0.756316    17A     -0.696500    18A     -0.685694
      19A     -0.646109    20A     -0.637242    21A     -0.629915
      22A     -0.573863    23A     -0.554586    24A     -0.543935
      25A     -0.536506    26A     -0.528833    27A     -0.502081
      28A     -0.451376    29A     -0.435787    30A     -0.404709

  @DF-RHF Final Energy:  -381.70236446122021

   => Energetics <=

    Nuclear Repulsion Energy =            331.1194986295536182
    One-Electron Energy =               -1175.4787006902672601
    Two-Electron Energy =                 462.6568375994934286
    Total Energy =                       -381.7023644612202133
  Basis Set: (AUG-CC-PVTZ AUX)
    Blend: AUG-CC-PVTZ-RI
    Molecular point group: c1

    Geometry (in Angstrom), charge = 0, multiplicity = 1:

       Center              X                  Y                   Z               Mass
    ------------   -----------------  -----------------  -----------------  -----------------
         O            1.185604297563    -1.325106327457    -0.011973993462    15.994914619570
         O           -3.787466702437    -0.178788327457    -0.031683993462    15.994914619570
         C            2.257964297563     0.828759672543     0.019819006538    12.000000000000
         C            3.586007297563     0.091891672543    -0.007096993462    12.000000000000
         C            1.066609297563    -0.100864327457     0.016157006538    12.000000000000
         C           -0.280993702437     0.541592672543     0.023112006538    12.000000000000
         C           -1.408531702437    -0.191079327457     0.000338006538    12.000000000000
         C           -2.732982702437     0.448184672543    -0.007632993462    12.000000000000
         H            2.176846297563     1.474645672543     0.904366006538     1.007825032230
         H            2.158464297563     1.506733672543    -0.840168993462     1.007825032230
         H            3.679836297563    -0.561807327457     0.861309006538     1.007825032230
         H            3.661299297563    -0.532249327457    -0.898711993462     1.007825032230
         H            4.417629297563     0.800157672543    -0.004054993462     1.007825032230
         H           -0.333633702437     1.630956672543     0.040512006538     1.007825032230
         H           -1.360950702437    -1.277505327457    -0.017264993462     1.007825032230
         H           -2.731103002437     1.555943772543     0.114709806538     1.007825032230

  Basis Set: AUG-CC-PVTZ
    Blend: AUG-CC-PVTZ
  Basis Set: (AUG-CC-PVTZ AUX)
    Blend: AUG-CC-PVTZ-JKFIT
	 Reference Energy          =    -381.7023644612202133 [Eh]
	 Singles Energy            =      -0.0000000000000000 [Eh]
	 Same-Spin Energy          =      -0.3774532783795420 [Eh]
	 Opposite-Spin Energy      =      -1.2239011579196037 [Eh]
	 Correlation Energy        =      -1.6013544362991456 [Eh]
	 Total Energy              =    -383.3037188975193317 [Eh]

	 ================> DF-SCS-MP2 Energies <==================
	-----------------------------------------------------------
	 SCS Same-Spin Scale       =       0.3333333333333333 [-]
	 SCS Opposite-Spin Scale   =       1.2000000000000000 [-]
	 SCS Same-Spin Energy      =      -0.1258177594598473 [Eh]
	 SCS Opposite-Spin Energy  =      -1.4686813895035244 [Eh]
	 SCS Correlation Energy    =      -1.5944991489633717 [Eh]
	 SCS Total Energy          =    -383.2968636101836069 [Eh]
	-----------------------------------------------------------

  Dipole Moment: [D]
     X:     2.7471      Y:     3.5048      Z:     0.1285     Total:     4.4550

*** Psi4 exiting successfully. Buy a developer a beer!
