                               Psi4 1.4a2.dev612

  ==> Input File <==

--------------------------------------------------------------------------
#psi4
#
memory 32 gb

molecule  {
0 1
  O        1.1855920    -1.3251230    -0.0110750
  O       -3.7874790    -0.1788050    -0.0307850
  C        2.2579520     0.8287430     0.0207180
  C        3.5859950     0.0918750    -0.0061980
  C        1.0665970    -0.1008810     0.0170560
  C       -0.2810060     0.5415760     0.0240110
  C       -1.4085440    -0.1910960     0.0012370
  C       -2.7329950     0.4481680    -0.0067340
  H        2.1768340     1.4746290     0.9052650
  H        2.1584520     1.5067170    -0.8392700
  H        3.6798240    -0.5618240     0.8622080
  H        3.6612870    -0.5322660    -0.8978130
  H        4.4176170     0.8001410    -0.0031560
  H       -0.3319332     1.6365430    -0.2585318
  H       -1.3609630    -1.2775220    -0.0163660
  H       -2.7297600     1.5577740     0.0156350
units angstrom
no_reorient  #important for SAPT in psi4, default
symmetry c1  #important for SAPT in psi4, default
}

set PROPERTIES_ORIGIN ["COM"]
properties('MP2/aug-cc-pvtz', properties = ['dipole'])
--------------------------------------------------------------------------

    Molecular point group: c1
  Charge       = 0
  Multiplicity = 1
  Basis Set: AUG-CC-PVTZ
    Blend: AUG-CC-PVTZ
  Basis Set: (AUG-CC-PVTZ AUX)
    Blend: AUG-CC-PVTZ-JKFIT

    Orbital Energies [Eh]
    ---------------------

    Doubly Occupied:

       1A    -20.574542     2A    -20.564296     3A    -11.354036
       4A    -11.351570     5A    -11.285864     6A    -11.279226
       7A    -11.256754     8A    -11.228093     9A     -1.396001
      10A     -1.394422    11A     -1.114077    12A     -1.070237
      13A     -0.954334    14A     -0.878954    15A     -0.799839
      16A     -0.753639    17A     -0.694514    18A     -0.683972
      19A     -0.645948    20A     -0.637481    21A     -0.630049
      22A     -0.571841    23A     -0.552808    24A     -0.543255
      25A     -0.536323    26A     -0.528624    27A     -0.501963
      28A     -0.451963    29A     -0.436389    30A     -0.403500

  @DF-RHF Final Energy:  -381.69676350487822

   => Energetics <=

    Nuclear Repulsion Energy =            330.9781486766743797
    One-Electron Energy =               -1175.2007911899222563
    Two-Electron Energy =                 462.5258790083695999
    Total Energy =                       -381.6967635048782199
  Basis Set: (AUG-CC-PVTZ AUX)
    Blend: AUG-CC-PVTZ-RI
    Molecular point group: c1

    Geometry (in Angstrom), charge = 0, multiplicity = 1:

       Center              X                  Y                   Z               Mass
    ------------   -----------------  -----------------  -----------------  -----------------
         O            1.185576702374    -1.325173333552    -0.008377052618    15.994914619570
         O           -3.787494297626    -0.178855333552    -0.028087052618    15.994914619570
         C            2.257936702374     0.828692666448     0.023415947382    12.000000000000
         C            3.585979702374     0.091824666448    -0.003500052618    12.000000000000
         C            1.066581702374    -0.100931333552     0.019753947382    12.000000000000
         C           -0.281021297626     0.541525666448     0.026708947382    12.000000000000
         C           -1.408559297626    -0.191146333552     0.003934947382    12.000000000000
         C           -2.733010297626     0.448117666448    -0.004036052618    12.000000000000
         H            2.176818702374     1.474578666448     0.907962947382     1.007825032230
         H            2.158436702374     1.506666666448    -0.836572052618     1.007825032230
         H            3.679808702374    -0.561874333552     0.864905947382     1.007825032230
         H            3.661271702374    -0.532316333552    -0.895115052618     1.007825032230
         H            4.417601702374     0.800090666448    -0.000458052618     1.007825032230
         H           -0.331948497626     1.636492666448    -0.255833852618     1.007825032230
         H           -1.360978297626    -1.277572333552    -0.013668052618     1.007825032230
         H           -2.729775297626     1.557723666448     0.018332947382     1.007825032230

  Basis Set: AUG-CC-PVTZ
    Blend: AUG-CC-PVTZ
  Basis Set: (AUG-CC-PVTZ AUX)
    Blend: AUG-CC-PVTZ-JKFIT
	 Reference Energy          =    -381.6967635048782199 [Eh]
	 Singles Energy            =      -0.0000000000000000 [Eh]
	 Same-Spin Energy          =      -0.3776830362845308 [Eh]
	 Opposite-Spin Energy      =      -1.2244816629754220 [Eh]
	 Correlation Energy        =      -1.6021646992599528 [Eh]
	 Total Energy              =    -383.2989282041381784 [Eh]

	 ================> DF-SCS-MP2 Energies <==================
	-----------------------------------------------------------
	 SCS Same-Spin Scale       =       0.3333333333333333 [-]
	 SCS Opposite-Spin Scale   =       1.2000000000000000 [-]
	 SCS Same-Spin Energy      =      -0.1258943454281769 [Eh]
	 SCS Opposite-Spin Energy  =      -1.4693779955705064 [Eh]
	 SCS Correlation Energy    =      -1.5952723409986833 [Eh]
	 SCS Total Energy          =    -383.2920358458769101 [Eh]
	-----------------------------------------------------------

  Dipole Moment: [D]
     X:     2.7433      Y:     3.4688      Z:    -0.0968     Total:     4.4235

*** Psi4 exiting successfully. Buy a developer a beer!
