                               Psi4 1.4a2.dev612

  ==> Input File <==

--------------------------------------------------------------------------
#psi4
#
memory 32 gb

molecule  {
0 1
  O        1.1855920    -1.3251230    -0.0110750
  O       -3.7874790    -0.1788050    -0.0307850
  C        2.2579520     0.8287430     0.0207180
  C        3.5859950     0.0918750    -0.0061980
  C        1.0665970    -0.1008810     0.0170560
  C       -0.2810060     0.5415760     0.0240110
  C       -1.4085440    -0.1910960     0.0012370
  C       -2.7329950     0.4481680    -0.0067340
  H        2.1768340     1.4746290     0.9052650
  H        2.1584520     1.5067170    -0.8392700
  H        3.6798240    -0.5618240     0.8622080
  H        3.6612870    -0.5322660    -0.8978130
  H        4.4176170     0.8001410    -0.0031560
  H       -0.3336460     1.6309400     0.0414110
  H       -1.3609630    -1.2775220    -0.0163660
  H       -2.7331481     1.5531567     0.2655694
units angstrom
no_reorient  #important for SAPT in psi4, default
symmetry c1  #important for SAPT in psi4, default
}

set PROPERTIES_ORIGIN ["COM"]
properties('MP2/aug-cc-pvtz', properties = ['dipole'])
--------------------------------------------------------------------------

    Molecular point group: c1
  Charge       = 0
  Multiplicity = 1
  Basis Set: AUG-CC-PVTZ
    Blend: AUG-CC-PVTZ
  Basis Set: (AUG-CC-PVTZ AUX)
    Blend: AUG-CC-PVTZ-JKFIT

    Orbital Energies [Eh]
    ---------------------

    Doubly Occupied:

       1A    -20.575304     2A    -20.564036     3A    -11.354318
       4A    -11.353913     5A    -11.282148     6A    -11.278528
       7A    -11.256998     8A    -11.228248     9A     -1.396315
      10A     -1.394312    11A     -1.114853    12A     -1.070315
      13A     -0.954434    14A     -0.878294    15A     -0.796899
      16A     -0.756318    17A     -0.695856    18A     -0.684628
      19A     -0.646093    20A     -0.637461    21A     -0.629426
      22A     -0.574598    23A     -0.554060    24A     -0.543898
      25A     -0.536457    26A     -0.528803    27A     -0.502082
      28A     -0.450191    29A     -0.435663    30A     -0.404649

  @DF-RHF Final Energy:  -381.69900465245712

   => Energetics <=

    Nuclear Repulsion Energy =            331.0294689245942550
    One-Electron Energy =               -1175.2987483239244284
    Two-Electron Energy =                 462.5702747468729967
    Total Energy =                       -381.6990046524571198
  Basis Set: (AUG-CC-PVTZ AUX)
    Blend: AUG-CC-PVTZ-RI
    Molecular point group: c1

    Geometry (in Angstrom), charge = 0, multiplicity = 1:

       Center              X                  Y                   Z               Mass
    ------------   -----------------  -----------------  -----------------  -----------------
         O            1.185622581028    -1.325081409850    -0.013322773200    15.994914619570
         O           -3.787448418972    -0.178763409850    -0.033032773200    15.994914619570
         C            2.257982581028     0.828784590150     0.018470226800    12.000000000000
         C            3.586025581028     0.091916590150    -0.008445773200    12.000000000000
         C            1.066627581028    -0.100839409850     0.014808226800    12.000000000000
         C           -0.280975418972     0.541617590150     0.021763226800    12.000000000000
         C           -1.408513418972    -0.191054409850    -0.001010773200    12.000000000000
         C           -2.732964418972     0.448209590150    -0.008981773200    12.000000000000
         H            2.176864581028     1.474670590150     0.903017226800     1.007825032230
         H            2.158482581028     1.506758590150    -0.841517773200     1.007825032230
         H            3.679854581028    -0.561782409850     0.859960226800     1.007825032230
         H            3.661317581028    -0.532224409850    -0.900060773200     1.007825032230
         H            4.417647581028     0.800182590150    -0.005403773200     1.007825032230
         H           -0.333615418972     1.630981590150     0.039163226800     1.007825032230
         H           -1.360932418972    -1.277480409850    -0.018613773200     1.007825032230
         H           -2.733117518972     1.553198290150     0.263321626800     1.007825032230

  Basis Set: AUG-CC-PVTZ
    Blend: AUG-CC-PVTZ
  Basis Set: (AUG-CC-PVTZ AUX)
    Blend: AUG-CC-PVTZ-JKFIT
	 Reference Energy          =    -381.6990046524571198 [Eh]
	 Singles Energy            =      -0.0000000000000000 [Eh]
	 Same-Spin Energy          =      -0.3776431843888738 [Eh]
	 Opposite-Spin Energy      =      -1.2243280137393500 [Eh]
	 Correlation Energy        =      -1.6019711981282239 [Eh]
	 Total Energy              =    -383.3009758505853597 [Eh]

	 ================> DF-SCS-MP2 Energies <==================
	-----------------------------------------------------------
	 SCS Same-Spin Scale       =       0.3333333333333333 [-]
	 SCS Opposite-Spin Scale   =       1.2000000000000000 [-]
	 SCS Same-Spin Energy      =      -0.1258810614629579 [Eh]
	 SCS Opposite-Spin Energy  =      -1.4691936164872199 [Eh]
	 SCS Correlation Energy    =      -1.5950746779501779 [Eh]
	 SCS Total Energy          =    -383.2940793304072713 [Eh]
	-----------------------------------------------------------

  Dipole Moment: [D]
     X:     2.7397      Y:     3.4634      Z:     0.1812     Total:     4.4197

*** Psi4 exiting successfully. Buy a developer a beer!
