                               Psi4 1.3.2 release

  ==> Input File <==

--------------------------------------------------------------------------
#psi4
#
memory 32 gb

molecule  {
0 1
  O        1.1855920    -1.3251230    -0.0110750
  O       -3.7874790    -0.1788050    -0.0307850
  C        2.2579520     0.8287430     0.0207180
  C        3.5859950     0.0918750    -0.0061980
  C        1.0665970    -0.1008810     0.0170560
  C       -0.2805345     0.5391274     0.1739903
  C       -1.4085440    -0.1910960     0.0012370
  C       -2.7329950     0.4481680    -0.0067340
  H        2.1768340     1.4746290     0.9052650
  H        2.1584520     1.5067170    -0.8392700
  H        3.6798240    -0.5618240     0.8622080
  H        3.6612870    -0.5322660    -0.8978130
  H        4.4176170     0.8001410    -0.0031560
  H       -0.3336460     1.6309400     0.0414110
  H       -1.3609630    -1.2775220    -0.0163660
  H       -2.7297600     1.5577740     0.0156350
units angstrom
no_reorient  #important for SAPT in psi4, default
symmetry c1  #important for SAPT in psi4, default
}

set PROPERTIES_ORIGIN ["COM"]
properties('MP2/aug-cc-pvtz', properties = ['dipole'])
--------------------------------------------------------------------------

    Molecular point group: c1
  Charge       = 0
  Multiplicity = 1
  Basis Set: AUG-CC-PVTZ
    Blend: AUG-CC-PVTZ
  Basis Set: (AUG-CC-PVTZ AUX)
    Blend: AUG-CC-PVTZ-JKFIT

    Orbital Energies [Eh]
    ---------------------

    Doubly Occupied:

       1A    -20.575195     2A    -20.563461     3A    -11.354420
       4A    -11.352110     5A    -11.284146     6A    -11.281179
       7A    -11.256832     8A    -11.228099     9A     -1.396385
      10A     -1.393855    11A     -1.112916    12A     -1.069867
      13A     -0.953937    14A     -0.879039    15A     -0.800925
      16A     -0.754399    17A     -0.695184    18A     -0.684027
      19A     -0.645794    20A     -0.637351    21A     -0.629649
      22A     -0.572132    23A     -0.554034    24A     -0.544024
      25A     -0.536089    26A     -0.528327    27A     -0.501777
      28A     -0.452292    29A     -0.435052    30A     -0.403686

  @DF-RHF Final Energy:  -381.69671643250831

   => Energetics <=

    Nuclear Repulsion Energy =            330.8676986792656294
    One-Electron Energy =               -1174.9764691316963763
    Two-Electron Energy =                 462.4120540199223797
    Total Energy =                       -381.6967164325083104
  Basis Set: (AUG-CC-PVTZ AUX)
    Blend: AUG-CC-PVTZ-RI
    Molecular point group: c1

    Geometry (in Angstrom), charge = 0, multiplicity = 1:

       Center              X                  Y                   Z               Mass
    ------------   -----------------  -----------------  -----------------  -----------------
         O            1.185541613467    -1.324860711650    -0.027136498277    15.994914619570
         O           -3.787529386533    -0.178542711650    -0.046846498277    15.994914619570
         C            2.257901613467     0.829005288350     0.004656501723    12.000000000000
         C            3.585944613467     0.092137288350    -0.022259498277    12.000000000000
         C            1.066546613467    -0.100618711650     0.000994501723    12.000000000000
         C           -0.280584886533     0.539389688350     0.157928801723    12.000000000000
         C           -1.408594386533    -0.190833711650    -0.014824498277    12.000000000000
         C           -2.733045386533     0.448430288350    -0.022795498277    12.000000000000
         H            2.176783613467     1.474891288350     0.889203501723     1.007825032230
         H            2.158401613467     1.506979288350    -0.855331498277     1.007825032230
         H            3.679773613467    -0.561561711650     0.846146501723     1.007825032230
         H            3.661236613467    -0.532003711650    -0.913874498277     1.007825032230
         H            4.417566613467     0.800403288350    -0.019217498277     1.007825032230
         H           -0.333696386533     1.631202288350     0.025349501723     1.007825032230
         H           -1.361013386533    -1.277259711650    -0.032427498277     1.007825032230
         H           -2.729810386533     1.558036288350    -0.000426498277     1.007825032230

  Basis Set: AUG-CC-PVTZ
    Blend: AUG-CC-PVTZ
  Basis Set: (AUG-CC-PVTZ AUX)
    Blend: AUG-CC-PVTZ-JKFIT
	 Reference Energy          =    -381.6967164325083104 [Eh]
	 Singles Energy            =      -0.0000000000000000 [Eh]
	 Same-Spin Energy          =      -0.3777827966175186 [Eh]
	 Opposite-Spin Energy      =      -1.2247054730807720 [Eh]
	 Correlation Energy        =      -1.6024882696982905 [Eh]
	 Total Energy              =    -383.2992047022066231 [Eh]

	 ================> DF-SCS-MP2 Energies <==================
	-----------------------------------------------------------
	 SCS Same-Spin Scale       =       0.3333333333333333 [-]
	 SCS Opposite-Spin Scale   =       1.2000000000000000 [-]
	 SCS Same-Spin Energy      =      -0.1259275988725062 [Eh]
	 SCS Opposite-Spin Energy  =      -1.4696465676969264 [Eh]
	 SCS Correlation Energy    =      -1.5955741665694325 [Eh]
	 SCS Total Energy          =    -383.2922905990777167 [Eh]
	-----------------------------------------------------------

  Dipole Moment: [D]
     X:     2.7221      Y:     3.4889      Z:     0.0046     Total:     4.4252

*** Psi4 exiting successfully. Buy a developer a beer!
