                               Psi4 1.4a2.dev612

  ==> Input File <==

--------------------------------------------------------------------------
#psi4
#
memory 32 gb

molecule  {
0 1
  O        1.1855920    -1.3251230    -0.0110750
  O       -3.7874790    -0.1788050    -0.0307850
  C        2.2579520     0.8287430     0.0207180
  C        3.5859950     0.0918750    -0.0061980
  C        1.0665970    -0.1008810     0.0170560
  C       -0.2810060     0.5415760     0.0240110
  C       -1.4085440    -0.1910960     0.0012370
  C       -2.7329950     0.4481680    -0.0067340
  H        2.1768340     1.4746290     0.9052650
  H        2.1584520     1.5067170    -0.8392700
  H        3.6798240    -0.5618240     0.8622080
  H        3.6612870    -0.5322660    -0.8978130
  H        4.4176170     0.8001410    -0.0031560
  H       -0.3325042     1.6346753    -0.1585509
  H       -1.3609630    -1.2775220    -0.0163660
  H       -2.7297600     1.5577740     0.0156350
units angstrom
no_reorient  #important for SAPT in psi4, default
symmetry c1  #important for SAPT in psi4, default
}

set PROPERTIES_ORIGIN ["COM"]
properties('MP2/aug-cc-pvtz', properties = ['dipole'])
--------------------------------------------------------------------------

    Molecular point group: c1
  Charge       = 0
  Multiplicity = 1
  Basis Set: AUG-CC-PVTZ
    Blend: AUG-CC-PVTZ
  Basis Set: (AUG-CC-PVTZ AUX)
    Blend: AUG-CC-PVTZ-JKFIT

    Orbital Energies [Eh]
    ---------------------

    Doubly Occupied:

       1A    -20.574264     2A    -20.564170     3A    -11.353979
       4A    -11.351454     5A    -11.283871     6A    -11.278523
       7A    -11.256906     8A    -11.228189     9A     -1.395794
      10A     -1.394283    11A     -1.114516    12A     -1.070302
      13A     -0.954596    14A     -0.879086    15A     -0.800557
      16A     -0.755042    17A     -0.695562    18A     -0.685130
      19A     -0.646036    20A     -0.637328    21A     -0.630025
      22A     -0.572800    23A     -0.553900    24A     -0.543658
      25A     -0.536453    26A     -0.528750    27A     -0.502035
      28A     -0.451774    29A     -0.436084    30A     -0.404169

  @DF-RHF Final Energy:  -381.70037853822288

   => Energetics <=

    Nuclear Repulsion Energy =            331.0656510074796302
    One-Electron Energy =               -1175.3735817467829747
    Two-Electron Energy =                 462.6075522010805230
    Total Energy =                       -381.7003785382228784
  Basis Set: (AUG-CC-PVTZ AUX)
    Blend: AUG-CC-PVTZ-RI
    Molecular point group: c1

    Geometry (in Angstrom), charge = 0, multiplicity = 1:

       Center              X                  Y                   Z               Mass
    ------------   -----------------  -----------------  -----------------  -----------------
         O            1.185581838078    -1.325156535034    -0.009276303569    15.994914619570
         O           -3.787489161922    -0.178838535034    -0.028986303569    15.994914619570
         C            2.257941838078     0.828709464966     0.022516696431    12.000000000000
         C            3.585984838078     0.091841464966    -0.004399303569    12.000000000000
         C            1.066586838078    -0.100914535034     0.018854696431    12.000000000000
         C           -0.281016161922     0.541542464966     0.025809696431    12.000000000000
         C           -1.408554161922    -0.191129535034     0.003035696431    12.000000000000
         C           -2.733005161922     0.448134464966    -0.004935303569    12.000000000000
         H            2.176823838078     1.474595464966     0.907063696431     1.007825032230
         H            2.158441838078     1.506683464966    -0.837471303569     1.007825032230
         H            3.679813838078    -0.561857535034     0.864006696431     1.007825032230
         H            3.661276838078    -0.532299535034    -0.896014303569     1.007825032230
         H            4.417606838078     0.800107464966    -0.001357303569     1.007825032230
         H           -0.332514361922     1.634641764966    -0.156752203569     1.007825032230
         H           -1.360973161922    -1.277555535034    -0.014567303569     1.007825032230
         H           -2.729770161922     1.557740464966     0.017433696431     1.007825032230

  Basis Set: AUG-CC-PVTZ
    Blend: AUG-CC-PVTZ
  Basis Set: (AUG-CC-PVTZ AUX)
    Blend: AUG-CC-PVTZ-JKFIT
	 Reference Energy          =    -381.7003785382228784 [Eh]
	 Singles Energy            =      -0.0000000000000000 [Eh]
	 Same-Spin Energy          =      -0.3775372064971921 [Eh]
	 Opposite-Spin Energy      =      -1.2240965488214590 [Eh]
	 Correlation Energy        =      -1.6016337553186513 [Eh]
	 Total Energy              =    -383.3020122935415088 [Eh]

	 ================> DF-SCS-MP2 Energies <==================
	-----------------------------------------------------------
	 SCS Same-Spin Scale       =       0.3333333333333333 [-]
	 SCS Opposite-Spin Scale   =       1.2000000000000000 [-]
	 SCS Same-Spin Energy      =      -0.1258457354990640 [Eh]
	 SCS Opposite-Spin Energy  =      -1.4689158585857507 [Eh]
	 SCS Correlation Energy    =      -1.5947615940848148 [Eh]
	 SCS Total Energy          =    -383.2951401323076652 [Eh]
	-----------------------------------------------------------

  Dipole Moment: [D]
     X:     2.7467      Y:     3.4937      Z:    -0.0359     Total:     4.4443

*** Psi4 exiting successfully. Buy a developer a beer!
