                               Psi4 1.4a2.dev612

  ==> Input File <==

--------------------------------------------------------------------------
#psi4
#
memory 32 gb

molecule  {
0 1
  O        1.1855920    -1.3251230    -0.0110750
  O       -3.7874790    -0.1788050    -0.0307850
  C        2.2579520     0.8287430     0.0207180
  C        3.5859950     0.0918750    -0.0061980
  C        1.0665970    -0.1008810     0.0170560
  C       -0.2810060     0.5415760     0.0240110
  C       -1.4085440    -0.1910960     0.0012370
  C       -2.7329950     0.4481680    -0.0067340
  H        2.1768340     1.4746290     0.9052650
  H        2.1584520     1.5067170    -0.8392700
  H        3.6798240    -0.5618240     0.8622080
  H        3.6612870    -0.5322660    -0.8978130
  H        4.4176170     0.8001410    -0.0031560
  H       -0.3330751     1.6328077    -0.0585699
  H       -1.3609630    -1.2775220    -0.0163660
  H       -2.7297600     1.5577740     0.0156350
units angstrom
no_reorient  #important for SAPT in psi4, default
symmetry c1  #important for SAPT in psi4, default
}

set PROPERTIES_ORIGIN ["COM"]
properties('MP2/aug-cc-pvtz', properties = ['dipole'])
--------------------------------------------------------------------------

    Molecular point group: c1
  Charge       = 0
  Multiplicity = 1
  Basis Set: AUG-CC-PVTZ
    Blend: AUG-CC-PVTZ
  Basis Set: (AUG-CC-PVTZ AUX)
    Blend: AUG-CC-PVTZ-JKFIT

    Orbital Energies [Eh]
    ---------------------

    Doubly Occupied:

       1A    -20.574092     2A    -20.564093     3A    -11.353947
       4A    -11.351382     5A    -11.282640     6A    -11.278085
       7A    -11.256999     8A    -11.228248     9A     -1.395668
      10A     -1.394196    11A     -1.114808    12A     -1.070342
      13A     -0.954771    14A     -0.879179    15A     -0.801071
      16A     -0.755981    17A     -0.696354    18A     -0.685709
      19A     -0.646094    20A     -0.637236    21A     -0.630010
      22A     -0.573419    23A     -0.554546    24A     -0.543870
      25A     -0.536508    26A     -0.528823    27A     -0.502076
      28A     -0.451656    29A     -0.435887    30A     -0.404589

  @DF-RHF Final Energy:  -381.70236623637118

   => Energetics <=

    Nuclear Repulsion Energy =            331.1198271639023005
    One-Electron Energy =               -1175.4798306926577425
    Two-Electron Energy =                 462.6576372923842655
    Total Energy =                       -381.7023662363711765
  Basis Set: (AUG-CC-PVTZ AUX)
    Blend: AUG-CC-PVTZ-RI
    Molecular point group: c1

    Geometry (in Angstrom), charge = 0, multiplicity = 1:

       Center              X                  Y                   Z               Mass
    ------------   -----------------  -----------------  -----------------  -----------------
         O            1.185586972882    -1.325139737415    -0.010175555419    15.994914619570
         O           -3.787484027118    -0.178821737415    -0.029885555419    15.994914619570
         C            2.257946972882     0.828726262585     0.021617444581    12.000000000000
         C            3.585989972882     0.091858262585    -0.005298555419    12.000000000000
         C            1.066591972882    -0.100897737415     0.017955444581    12.000000000000
         C           -0.281011027118     0.541559262585     0.024910444581    12.000000000000
         C           -1.408549027118    -0.191112737415     0.002136444581    12.000000000000
         C           -2.733000027118     0.448151262585    -0.005834555419    12.000000000000
         H            2.176828972882     1.474612262585     0.906164444581     1.007825032230
         H            2.158446972882     1.506700262585    -0.838370555419     1.007825032230
         H            3.679818972882    -0.561840737415     0.863107444581     1.007825032230
         H            3.661281972882    -0.532282737415    -0.896913555419     1.007825032230
         H            4.417611972882     0.800124262585    -0.002256555419     1.007825032230
         H           -0.333080127118     1.632790962585    -0.057670455419     1.007825032230
         H           -1.360968027118    -1.277538737415    -0.015466555419     1.007825032230
         H           -2.729765027118     1.557757262585     0.016534444581     1.007825032230

  Basis Set: AUG-CC-PVTZ
    Blend: AUG-CC-PVTZ
  Basis Set: (AUG-CC-PVTZ AUX)
    Blend: AUG-CC-PVTZ-JKFIT
	 Reference Energy          =    -381.7023662363711765 [Eh]
	 Singles Energy            =      -0.0000000000000000 [Eh]
	 Same-Spin Energy          =      -0.3774471758084323 [Eh]
	 Opposite-Spin Energy      =      -1.2238889926581438 [Eh]
	 Correlation Energy        =      -1.6013361684665761 [Eh]
	 Total Energy              =    -383.3037024048377361 [Eh]

	 ================> DF-SCS-MP2 Energies <==================
	-----------------------------------------------------------
	 SCS Same-Spin Scale       =       0.3333333333333333 [-]
	 SCS Opposite-Spin Scale   =       1.2000000000000000 [-]
	 SCS Same-Spin Energy      =      -0.1258157252694774 [Eh]
	 SCS Opposite-Spin Energy  =      -1.4686667911897724 [Eh]
	 SCS Correlation Energy    =      -1.5944825164592498 [Eh]
	 SCS Total Energy          =    -383.2968487528304422 [Eh]
	-----------------------------------------------------------

  Dipole Moment: [D]
     X:     2.7487      Y:     3.5087      Z:     0.0267     Total:     4.4573

*** Psi4 exiting successfully. Buy a developer a beer!
