                               Psi4 1.4a2.dev612

  ==> Input File <==

--------------------------------------------------------------------------
#psi4
#
memory 32 gb

molecule  {
0 1
  O        1.1855920    -1.3251230    -0.0110750
  O       -3.7874790    -0.1788050    -0.0307850
  C        2.2579520     0.8287430     0.0207180
  C        3.5859950     0.0918750    -0.0061980
  C        1.0665970    -0.1008810     0.0170560
  C       -0.2810060     0.5415760     0.0240110
  C       -1.4085440    -0.1910960     0.0012370
  C       -2.7329950     0.4481680    -0.0067340
  H        2.1768340     1.4746290     0.9052650
  H        2.1584520     1.5067170    -0.8392700
  H        3.6798240    -0.5618240     0.8622080
  H        3.6612870    -0.5322660    -0.8978130
  H        4.4176170     0.8001410    -0.0031560
  H       -0.3336460     1.6309400     0.0414110
  H       -1.3627572    -1.2797856     0.1336062
  H       -2.7297600     1.5577740     0.0156350
units angstrom
no_reorient  #important for SAPT in psi4, default
symmetry c1  #important for SAPT in psi4, default
}

set PROPERTIES_ORIGIN ["COM"]
properties('MP2/aug-cc-pvtz', properties = ['dipole'])
--------------------------------------------------------------------------

    Molecular point group: c1
  Charge       = 0
  Multiplicity = 1
  Basis Set: AUG-CC-PVTZ
    Blend: AUG-CC-PVTZ
  Basis Set: (AUG-CC-PVTZ AUX)
    Blend: AUG-CC-PVTZ-JKFIT

    Orbital Energies [Eh]
    ---------------------

    Doubly Occupied:

       1A    -20.574013     2A    -20.564054     3A    -11.353916
       4A    -11.351356     5A    -11.282430     6A    -11.278834
       7A    -11.257032     8A    -11.228268     9A     -1.395587
      10A     -1.394135    11A     -1.114788    12A     -1.070309
      13A     -0.954764    14A     -0.879237    15A     -0.800123
      16A     -0.755970    17A     -0.696467    18A     -0.685878
      19A     -0.646139    20A     -0.636932    21A     -0.629777
      22A     -0.573719    23A     -0.553203    24A     -0.543927
      25A     -0.536444    26A     -0.528844    27A     -0.502054
      28A     -0.451606    29A     -0.435837    30A     -0.404323

  @DF-RHF Final Energy:  -381.70146885254547

   => Energetics <=

    Nuclear Repulsion Energy =            331.0935222483130929
    One-Electron Energy =               -1175.4300461036586967
    Two-Electron Energy =                 462.6350550028001294
    Total Energy =                       -381.7014688525454744
  Basis Set: (AUG-CC-PVTZ AUX)
    Blend: AUG-CC-PVTZ-RI
    Molecular point group: c1

    Geometry (in Angstrom), charge = 0, multiplicity = 1:

       Center              X                  Y                   Z               Mass
    ------------   -----------------  -----------------  -----------------  -----------------
         O            1.185608245129    -1.325102579563    -0.012423690441    15.994914619570
         O           -3.787462754871    -0.178784579563    -0.032133690441    15.994914619570
         C            2.257968245129     0.828763420437     0.019369309559    12.000000000000
         C            3.586011245129     0.091895420437    -0.007546690441    12.000000000000
         C            1.066613245129    -0.100860579563     0.015707309559    12.000000000000
         C           -0.280989754871     0.541596420437     0.022662309559    12.000000000000
         C           -1.408527754871    -0.191075579563    -0.000111690441    12.000000000000
         C           -2.732978754871     0.448188420437    -0.008082690441    12.000000000000
         H            2.176850245129     1.474649420437     0.903916309559     1.007825032230
         H            2.158468245129     1.506737420437    -0.840618690441     1.007825032230
         H            3.679840245129    -0.561803579563     0.860859309559     1.007825032230
         H            3.661303245129    -0.532245579563    -0.899161690441     1.007825032230
         H            4.417633245129     0.800161420437    -0.004504690441     1.007825032230
         H           -0.333629754871     1.630960420437     0.040062309559     1.007825032230
         H           -1.362740954871    -1.279765179563     0.132257509559     1.007825032230
         H           -2.729743754871     1.557794420437     0.014286309559     1.007825032230

  Basis Set: AUG-CC-PVTZ
    Blend: AUG-CC-PVTZ
  Basis Set: (AUG-CC-PVTZ AUX)
    Blend: AUG-CC-PVTZ-JKFIT
	 Reference Energy          =    -381.7014688525454744 [Eh]
	 Singles Energy            =      -0.0000000000000000 [Eh]
	 Same-Spin Energy          =      -0.3774953264667650 [Eh]
	 Opposite-Spin Energy      =      -1.2239910566792882 [Eh]
	 Correlation Energy        =      -1.6014863831460531 [Eh]
	 Total Energy              =    -383.3029552356915133 [Eh]

	 ================> DF-SCS-MP2 Energies <==================
	-----------------------------------------------------------
	 SCS Same-Spin Scale       =       0.3333333333333333 [-]
	 SCS Opposite-Spin Scale   =       1.2000000000000000 [-]
	 SCS Same-Spin Energy      =      -0.1258317754889217 [Eh]
	 SCS Opposite-Spin Energy  =      -1.4687892680151458 [Eh]
	 SCS Correlation Energy    =      -1.5946210435040675 [Eh]
	 SCS Total Energy          =    -383.2960898960495228 [Eh]
	-----------------------------------------------------------

  Dipole Moment: [D]
     X:     2.7476      Y:     3.5177      Z:     0.1897     Total:     4.4676

*** Psi4 exiting successfully. Buy a developer a beer!
