                               Psi4 1.4a2.dev612

  ==> Input File <==

--------------------------------------------------------------------------
#psi4
#
memory 32 gb

molecule  {
0 1
  O        1.1855920    -1.3251230    -0.0110750
  O       -3.7874790    -0.1788050    -0.0307850
  C        2.2579520     0.8287430     0.0207180
  C        3.5859950     0.0918750    -0.0061980
  C        1.0665970    -0.1008810     0.0170560
  C       -0.2810060     0.5415760     0.0240110
  C       -1.4085440    -0.1910960     0.0012370
  C       -2.7329950     0.4481680    -0.0067340
  H        2.1768340     1.4746290     0.9052650
  H        2.1584520     1.5067170    -0.8392700
  H        3.6798240    -0.5618240     0.8622080
  H        3.6612870    -0.5322660    -0.8978130
  H        4.4176170     0.8001410    -0.0031560
  H       -0.3336460     1.6309400     0.0414110
  H       -1.3639534    -1.2812947     0.2335876
  H       -2.7297600     1.5577740     0.0156350
units angstrom
no_reorient  #important for SAPT in psi4, default
symmetry c1  #important for SAPT in psi4, default
}

set PROPERTIES_ORIGIN ["COM"]
properties('MP2/aug-cc-pvtz', properties = ['dipole'])
--------------------------------------------------------------------------

    Molecular point group: c1
  Charge       = 0
  Multiplicity = 1
  Basis Set: AUG-CC-PVTZ
    Blend: AUG-CC-PVTZ
  Basis Set: (AUG-CC-PVTZ AUX)
    Blend: AUG-CC-PVTZ-JKFIT

    Orbital Energies [Eh]
    ---------------------

    Doubly Occupied:

       1A    -20.573974     2A    -20.564067     3A    -11.353907
       4A    -11.351356     5A    -11.282870     6A    -11.280348
       7A    -11.257055     8A    -11.228285     9A     -1.395527
      10A     -1.394102    11A     -1.114589    12A     -1.070247
      13A     -0.954654    14A     -0.879283    15A     -0.798235
      16A     -0.755360    17A     -0.696170    18A     -0.685872
      19A     -0.646194    20A     -0.636512    21A     -0.629346
      22A     -0.573461    23A     -0.550724    24A     -0.543899
      25A     -0.536290    26A     -0.528862    27A     -0.502023
      28A     -0.451579    29A     -0.435898    30A     -0.403691

  @DF-RHF Final Energy:  -381.69855180898128

   => Energetics <=

    Nuclear Repulsion Energy =            331.0181958247488865
    One-Electron Energy =               -1175.2847385846873749
    Two-Electron Energy =                 462.5679909509572099
    Total Energy =                       -381.6985518089812786
  Basis Set: (AUG-CC-PVTZ AUX)
    Blend: AUG-CC-PVTZ-RI
    Molecular point group: c1

    Geometry (in Angstrom), charge = 0, multiplicity = 1:

       Center              X                  Y                   Z               Mass
    ------------   -----------------  -----------------  -----------------  -----------------
         O            1.185619004024    -1.325089006374    -0.013322945889    15.994914619570
         O           -3.787451995976    -0.178771006374    -0.033032945889    15.994914619570
         C            2.257979004024     0.828776993626     0.018470054111    12.000000000000
         C            3.586022004024     0.091908993626    -0.008445945889    12.000000000000
         C            1.066624004024    -0.100847006374     0.014808054111    12.000000000000
         C           -0.280978995976     0.541609993626     0.021763054111    12.000000000000
         C           -1.408516995976    -0.191062006374    -0.001010945889    12.000000000000
         C           -2.732967995976     0.448201993626    -0.008981945889    12.000000000000
         H            2.176861004024     1.474662993626     0.903017054111     1.007825032230
         H            2.158479004024     1.506750993626    -0.841517945889     1.007825032230
         H            3.679851004024    -0.561790006374     0.859960054111     1.007825032230
         H            3.661314004024    -0.532232006374    -0.900060945889     1.007825032230
         H            4.417644004024     0.800174993626    -0.005403945889     1.007825032230
         H           -0.333618995976     1.630973993626     0.039163054111     1.007825032230
         H           -1.363926395976    -1.281260706374     0.231339654111     1.007825032230
         H           -2.729732995976     1.557807993626     0.013387054111     1.007825032230

  Basis Set: AUG-CC-PVTZ
    Blend: AUG-CC-PVTZ
  Basis Set: (AUG-CC-PVTZ AUX)
    Blend: AUG-CC-PVTZ-JKFIT
	 Reference Energy          =    -381.6985518089812786 [Eh]
	 Singles Energy            =      -0.0000000000000000 [Eh]
	 Same-Spin Energy          =      -0.3776387095396304 [Eh]
	 Opposite-Spin Energy      =      -1.2243185016526126 [Eh]
	 Correlation Energy        =      -1.6019572111922429 [Eh]
	 Total Energy              =    -383.3005090201735356 [Eh]

	 ================> DF-SCS-MP2 Energies <==================
	-----------------------------------------------------------
	 SCS Same-Spin Scale       =       0.3333333333333333 [-]
	 SCS Opposite-Spin Scale   =       1.2000000000000000 [-]
	 SCS Same-Spin Energy      =      -0.1258795698465434 [Eh]
	 SCS Opposite-Spin Energy  =      -1.4691822019831351 [Eh]
	 SCS Correlation Energy    =      -1.5950617718296785 [Eh]
	 SCS Total Energy          =    -383.2936135808109839 [Eh]
	-----------------------------------------------------------

  Dipole Moment: [D]
     X:     2.7471      Y:     3.5273      Z:     0.2554     Total:     4.4781

*** Psi4 exiting successfully. Buy a developer a beer!
