                               Psi4 1.4a2.dev612

  ==> Input File <==

--------------------------------------------------------------------------
#psi4
#
memory 32 gb

molecule  {
0 1
  O        1.1855920    -1.3251230    -0.0110750
  O       -3.7874790    -0.1788050    -0.0307850
  C        2.2579520     0.8287430     0.0207180
  C        3.5859950     0.0918750    -0.0061980
  C        1.0665970    -0.1008810     0.0170560
  C       -0.2810060     0.5415760     0.0240110
  C       -1.4085440    -0.1910960     0.0012370
  C       -2.7329950     0.4481680    -0.0067340
  H        2.1768340     1.4746290     0.9052650
  H        2.1584520     1.5067170    -0.8392700
  H        3.6798240    -0.5618240     0.8622080
  H        3.6612870    -0.5322660    -0.8978130
  H        4.4176170     0.8001410    -0.0031560
  H       -0.3336460     1.6309400     0.0414110
  H       -1.3633553    -1.2805401     0.1835969
  H       -2.7297600     1.5577740     0.0156350
units angstrom
no_reorient  #important for SAPT in psi4, default
symmetry c1  #important for SAPT in psi4, default
}

set PROPERTIES_ORIGIN ["COM"]
properties('MP2/aug-cc-pvtz', properties = ['dipole'])
--------------------------------------------------------------------------

    Molecular point group: c1
  Charge       = 0
  Multiplicity = 1
  Basis Set: AUG-CC-PVTZ
    Blend: AUG-CC-PVTZ
  Basis Set: (AUG-CC-PVTZ AUX)
    Blend: AUG-CC-PVTZ-JKFIT

    Orbital Energies [Eh]
    ---------------------

    Doubly Occupied:

       1A    -20.573996     2A    -20.564059     3A    -11.353911
       4A    -11.351356     5A    -11.282613     6A    -11.279512
       7A    -11.257041     8A    -11.228275     9A     -1.395560
      10A     -1.394120    11A     -1.114699    12A     -1.070281
      13A     -0.954714    14A     -0.879257    15A     -0.799272
      16A     -0.755702    17A     -0.696334    18A     -0.685875
      19A     -0.646164    20A     -0.636738    21A     -0.629592
      22A     -0.573624    23A     -0.552099    24A     -0.543918
      25A     -0.536381    26A     -0.528851    27A     -0.502040
      28A     -0.451595    29A     -0.435864    30A     -0.404041

  @DF-RHF Final Energy:  -381.70022310432813

   => Energetics <=

    Nuclear Repulsion Energy =            331.0601965839609306
    One-Electron Energy =               -1175.3658723520043168
    Two-Electron Energy =                 462.6054526637151980
    Total Energy =                       -381.7002231043281313
  Basis Set: (AUG-CC-PVTZ AUX)
    Blend: AUG-CC-PVTZ-RI
    Molecular point group: c1

    Geometry (in Angstrom), charge = 0, multiplicity = 1:

       Center              X                  Y                   Z               Mass
    ------------   -----------------  -----------------  -----------------  -----------------
         O            1.185613624577    -1.325095793418    -0.012873318165    15.994914619570
         O           -3.787457375423    -0.178777793418    -0.032583318165    15.994914619570
         C            2.257973624577     0.828770206582     0.018919681835    12.000000000000
         C            3.586016624577     0.091902206582    -0.007996318165    12.000000000000
         C            1.066618624577    -0.100853793418     0.015257681835    12.000000000000
         C           -0.280984375423     0.541603206582     0.022212681835    12.000000000000
         C           -1.408522375423    -0.191068793418    -0.000561318165    12.000000000000
         C           -2.732973375423     0.448195206582    -0.008532318165    12.000000000000
         H            2.176855624577     1.474656206582     0.903466681835     1.007825032230
         H            2.158473624577     1.506744206582    -0.841068318165     1.007825032230
         H            3.679845624577    -0.561796793418     0.860409681835     1.007825032230
         H            3.661308624577    -0.532238793418    -0.899611318165     1.007825032230
         H            4.417638624577     0.800168206582    -0.004954318165     1.007825032230
         H           -0.333624375423     1.630967206582     0.039612681835     1.007825032230
         H           -1.363333675423    -1.280512893418     0.181798581835     1.007825032230
         H           -2.729738375423     1.557801206582     0.013836681835     1.007825032230

  Basis Set: AUG-CC-PVTZ
    Blend: AUG-CC-PVTZ
  Basis Set: (AUG-CC-PVTZ AUX)
    Blend: AUG-CC-PVTZ-JKFIT
	 Reference Energy          =    -381.7002231043281313 [Eh]
	 Singles Energy            =      -0.0000000000000000 [Eh]
	 Same-Spin Energy          =      -0.3775581835382524 [Eh]
	 Opposite-Spin Energy      =      -1.2241308856518696 [Eh]
	 Correlation Energy        =      -1.6016890691901220 [Eh]
	 Total Energy              =    -383.3019121735182466 [Eh]

	 ================> DF-SCS-MP2 Energies <==================
	-----------------------------------------------------------
	 SCS Same-Spin Scale       =       0.3333333333333333 [-]
	 SCS Opposite-Spin Scale   =       1.2000000000000000 [-]
	 SCS Same-Spin Energy      =      -0.1258527278460841 [Eh]
	 SCS Opposite-Spin Energy  =      -1.4689570627822435 [Eh]
	 SCS Correlation Energy    =      -1.5948097906283276 [Eh]
	 SCS Total Energy          =    -383.2950328949564778 [Eh]
	-----------------------------------------------------------

  Dipole Moment: [D]
     X:     2.7473      Y:     3.5218      Z:     0.2226     Total:     4.4722

*** Psi4 exiting successfully. Buy a developer a beer!
