                               Psi4 1.3.2 release

  ==> Input File <==

--------------------------------------------------------------------------
#psi4
#
memory 32 gb

molecule  {
0 1
  O        1.1855920    -1.3251230    -0.0110750
  O       -3.7874790    -0.1788050    -0.0307850
  C        2.2579520     0.8287430     0.0207180
  C        3.5859950     0.0918750    -0.0061980
  C        1.0665970    -0.1008810     0.0170560
  C       -0.2802202     0.5374951     0.2739765
  C       -1.4085440    -0.1910960     0.0012370
  C       -2.7329950     0.4481680    -0.0067340
  H        2.1768340     1.4746290     0.9052650
  H        2.1584520     1.5067170    -0.8392700
  H        3.6798240    -0.5618240     0.8622080
  H        3.6612870    -0.5322660    -0.8978130
  H        4.4176170     0.8001410    -0.0031560
  H       -0.3336460     1.6309400     0.0414110
  H       -1.3609630    -1.2775220    -0.0163660
  H       -2.7297600     1.5577740     0.0156350
units angstrom
no_reorient  #important for SAPT in psi4, default
symmetry c1  #important for SAPT in psi4, default
}

set PROPERTIES_ORIGIN ["COM"]
properties('MP2/aug-cc-pvtz', properties = ['dipole'])
--------------------------------------------------------------------------

    Molecular point group: c1
  Charge       = 0
  Multiplicity = 1
  Basis Set: AUG-CC-PVTZ
    Blend: AUG-CC-PVTZ
  Basis Set: (AUG-CC-PVTZ AUX)
    Blend: AUG-CC-PVTZ-JKFIT

    Orbital Energies [Eh]
    ---------------------

    Doubly Occupied:

       1A    -20.577105     2A    -20.562663     3A    -11.355268
       4A    -11.353318     5A    -11.287513     6A    -11.286068
       7A    -11.256539     8A    -11.227850     9A     -1.397905
      10A     -1.393175    11A     -1.109681    12A     -1.069119
      13A     -0.952264    14A     -0.878656    15A     -0.800496
      16A     -0.751345    17A     -0.692815    18A     -0.681010
      19A     -0.645338    20A     -0.637553    21A     -0.628851
      22A     -0.569536    23A     -0.552651    24A     -0.544155
      25A     -0.535283    26A     -0.527416    27A     -0.501284
      28A     -0.453553    29A     -0.433446    30A     -0.402273

  @DF-RHF Final Energy:  -381.68527177883550

   => Energetics <=

    Nuclear Repulsion Energy =            330.4239965474132532
    One-Electron Energy =               -1174.0902778860418039
    Two-Electron Energy =                 461.9810095597930513
    Total Energy =                       -381.6852717788354994
  Basis Set: (AUG-CC-PVTZ AUX)
    Blend: AUG-CC-PVTZ-RI
    Molecular point group: c1

    Geometry (in Angstrom), charge = 0, multiplicity = 1:

       Center              X                  Y                   Z               Mass
    ------------   -----------------  -----------------  -----------------  -----------------
         O            1.185507954223    -1.324685904195    -0.037844292881    15.994914619570
         O           -3.787563045777    -0.178367904195    -0.057554292881    15.994914619570
         C            2.257867954223     0.829180095805    -0.006051292881    12.000000000000
         C            3.585910954223     0.092312095805    -0.032967292881    12.000000000000
         C            1.066512954223    -0.100443904195    -0.009713292881    12.000000000000
         C           -0.280304245777     0.537932195805     0.247207207119    12.000000000000
         C           -1.408628045777    -0.190658904195    -0.025532292881    12.000000000000
         C           -2.733079045777     0.448605095805    -0.033503292881    12.000000000000
         H            2.176749954223     1.475066095805     0.878495707119     1.007825032230
         H            2.158367954223     1.507154095805    -0.866039292881     1.007825032230
         H            3.679739954223    -0.561386904195     0.835438707119     1.007825032230
         H            3.661202954223    -0.531828904195    -0.924582292881     1.007825032230
         H            4.417532954223     0.800578095805    -0.029925292881     1.007825032230
         H           -0.333730045777     1.631377095805     0.014641707119     1.007825032230
         H           -1.361047045777    -1.277084904195    -0.043135292881     1.007825032230
         H           -2.729844045777     1.558211095805    -0.011134292881     1.007825032230

  Basis Set: AUG-CC-PVTZ
    Blend: AUG-CC-PVTZ
  Basis Set: (AUG-CC-PVTZ AUX)
    Blend: AUG-CC-PVTZ-JKFIT
	 Reference Energy          =    -381.6852717788354994 [Eh]
	 Singles Energy            =      -0.0000000000000000 [Eh]
	 Same-Spin Energy          =      -0.3784167620140992 [Eh]
	 Opposite-Spin Energy      =      -1.2264183756135592 [Eh]
	 Correlation Energy        =      -1.6048351376276584 [Eh]
	 Total Energy              =    -383.2901069164631735 [Eh]

	 ================> DF-SCS-MP2 Energies <==================
	-----------------------------------------------------------
	 SCS Same-Spin Scale       =       0.3333333333333333 [-]
	 SCS Opposite-Spin Scale   =       1.2000000000000000 [-]
	 SCS Same-Spin Energy      =      -0.1261389206713664 [Eh]
	 SCS Opposite-Spin Energy  =      -1.4717020507362710 [Eh]
	 SCS Correlation Energy    =      -1.5978409714076374 [Eh]
	 SCS Total Energy          =    -383.2831127502431627 [Eh]
	-----------------------------------------------------------

  Dipole Moment: [D]
     X:     2.6859      Y:     3.4436      Z:    -0.0583     Total:     4.3676

*** Psi4 exiting successfully. Buy a developer a beer!
