                               Psi4 1.3.2 release

  ==> Input File <==

--------------------------------------------------------------------------
#psi4
#
memory 32 gb

molecule  {
0 1
  P       -2.2900960    -0.9400430     0.3446780
  O       -0.9821530    -0.2015620     0.9382890
  O        1.3422500    -1.6754830     1.2308510
  O        0.0787050     2.3596040     0.4621680
  O        3.0685150    -2.1870720    -0.8085900
  O        2.8473350     2.5031130     0.3715350
  O        4.1956880     0.4353970    -0.9728740
  O       -2.8268630     0.0333510    -0.8075310
  O       -3.2591210    -0.7232820     1.6216710
  O       -2.1189930    -2.3436440    -0.0996680
  C        0.1181620     0.0300090     0.0163190
  C        0.9626653    -1.2407279    -0.0233969
  C        0.8985890     1.2026440     0.5648510
  C        2.2596600    -1.0143070    -0.8180370
  C        2.1770750     1.3964720    -0.2280410
  C        3.0258420     0.1487050    -0.2103220
  C       -3.1242130     1.4315980    -0.4888860
  C       -3.5363170     2.0851650    -1.7841190
  H       -0.3000070     0.3292969    -0.9543045
  H        0.3702690    -2.0293640    -0.5720320
  H        1.1571200     0.9978770     1.6121560
  H        2.0609340    -0.7886600    -1.8727560
  H        1.9169870     1.6362870    -1.2735830
  H        3.2958550    -0.0945320     0.8276460
  H        0.5217750    -1.8880320     1.7115100
  H        0.6655400     3.1093110     0.6831840
  H        2.9735430    -2.5473740     0.0946540
  H        3.7214290     2.5491860    -0.0588690
  H        4.6397270    -0.4238340    -1.0970870
  H       -3.8083950    -1.5223380     1.7347280
  H       -3.9305460     1.4455410     0.2493860
  H       -2.2297620     1.8928800    -0.0590960
  H       -3.8005210     3.1308820    -1.6026710
  H       -2.7171960     2.0533230    -2.5048750
  H       -4.4009440     1.5743230    -2.2127240
units angstrom
no_reorient  #important for SAPT in psi4, default
symmetry c1  #important for SAPT in psi4, default
}

set PROPERTIES_ORIGIN ["COM"]
properties('MP2/aug-cc-pvtz', properties = ['dipole'])
--------------------------------------------------------------------------

    Molecular point group: c1
  Charge       = 0
  Multiplicity = 1
  Basis Set: AUG-CC-PVTZ
    Blend: AUG-CC-PVTZ
  Basis Set: (AUG-CC-PVTZ AUX)
    Blend: AUG-CC-PVTZ-JKFIT

    Orbital Energies [Eh]
    ---------------------

    Doubly Occupied:

       1A    -80.116331     2A    -20.614363     3A    -20.605640
       4A    -20.598676     5A    -20.589280     6A    -20.576554
       7A    -20.574214     8A    -20.573347     9A    -20.573174
      10A    -20.522630    11A    -11.319013    12A    -11.304340
      13A    -11.299277    14A    -11.298610    15A    -11.297607
      16A    -11.296290    17A    -11.290399    18A    -11.229763
      19A     -7.631780    20A     -5.530286    21A     -5.529915
      22A     -5.528709    23A     -1.460197    24A     -1.420163
      25A     -1.397929    26A     -1.393569    27A     -1.386588
      28A     -1.376557    29A     -1.365474    30A     -1.354153
      31A     -1.303071    32A     -1.117444    33A     -1.040340
      34A     -1.011215    35A     -0.999315    36A     -0.879309
      37A     -0.864577    38A     -0.857260    39A     -0.821549
      40A     -0.813687    41A     -0.756290    42A     -0.745270
      43A     -0.730211    44A     -0.728633    45A     -0.708193
      46A     -0.687403    47A     -0.683527    48A     -0.673967
      49A     -0.662156    50A     -0.660804    51A     -0.643505
      52A     -0.634659    53A     -0.628187    54A     -0.617412
      55A     -0.603170    56A     -0.599208    57A     -0.581061
      58A     -0.575364    59A     -0.573097    60A     -0.560084
      61A     -0.556627    62A     -0.550565    63A     -0.541421
      64A     -0.536932    65A     -0.530827    66A     -0.521991
      67A     -0.512658    68A     -0.503079    69A     -0.495672
      70A     -0.484104    71A     -0.479231    72A     -0.475980
      73A     -0.461063    74A     -0.455511    75A     -0.446999
      76A     -0.430609

  @DF-RHF Final Energy: -1327.85889816920098

   => Energetics <=

    Nuclear Repulsion Energy =           1772.9587323815446780
    One-Electron Energy =               -5358.0391289201379550
    Two-Electron Energy =                2257.2214983693920658
    Total Energy =                      -1327.8588981692009838
  Basis Set: (AUG-CC-PVTZ AUX)
    Blend: AUG-CC-PVTZ-RI
    Molecular point group: c1

    Geometry (in Angstrom), charge = 0, multiplicity = 1:

       Center              X                  Y                   Z               Mass
    ------------   -----------------  -----------------  -----------------  -----------------
         P           -2.290427258917    -0.940294525321     0.342442369365    30.973761998420
         O           -0.982484258917    -0.201813525321     0.936053369365    15.994914619570
         O            1.341918741083    -1.675734525321     1.228615369365    15.994914619570
         O            0.078373741083     2.359352474679     0.459932369365    15.994914619570
         O            3.068183741083    -2.187323525321    -0.810825630635    15.994914619570
         O            2.847003741083     2.502861474679     0.369299369365    15.994914619570
         O            4.195356741083     0.435145474679    -0.975109630635    15.994914619570
         O           -2.827194258917     0.033099474679    -0.809766630635    15.994914619570
         O           -3.259452258917    -0.723533525321     1.619435369365    15.994914619570
         O           -2.119324258917    -2.343895525321    -0.101903630635    15.994914619570
         C            0.117830741083     0.029757474679     0.014083369365    12.000000000000
         C            0.962334041083    -1.240979425321    -0.025632530635    12.000000000000
         C            0.898257741083     1.202392474679     0.562615369365    12.000000000000
         C            2.259328741083    -1.014558525321    -0.820272630635    12.000000000000
         C            2.176743741083     1.396220474679    -0.230276630635    12.000000000000
         C            3.025510741083     0.148453474679    -0.212557630635    12.000000000000
         C           -3.124544258917     1.431346474679    -0.491121630635    12.000000000000
         C           -3.536648258917     2.084913474679    -1.786354630635    12.000000000000
         H           -0.300338258917     0.329045374679    -0.956540130635     1.007825032230
         H            0.369937741083    -2.029615525321    -0.574267630635     1.007825032230
         H            1.156788741083     0.997625474679     1.609920369365     1.007825032230
         H            2.060602741083    -0.788911525321    -1.874991630635     1.007825032230
         H            1.916655741083     1.636035474679    -1.275818630635     1.007825032230
         H            3.295523741083    -0.094783525321     0.825410369365     1.007825032230
         H            0.521443741083    -1.888283525321     1.709274369365     1.007825032230
         H            0.665208741083     3.109059474679     0.680948369365     1.007825032230
         H            2.973211741083    -2.547625525321     0.092418369365     1.007825032230
         H            3.721097741083     2.548934474679    -0.061104630635     1.007825032230
         H            4.639395741083    -0.424085525321    -1.099322630635     1.007825032230
         H           -3.808726258917    -1.522589525321     1.732492369365     1.007825032230
         H           -3.930877258917     1.445289474679     0.247150369365     1.007825032230
         H           -2.230093258917     1.892628474679    -0.061331630635     1.007825032230
         H           -3.800852258917     3.130630474679    -1.604906630635     1.007825032230
         H           -2.717527258917     2.053071474679    -2.507110630635     1.007825032230
         H           -4.401275258917     1.574071474679    -2.214959630635     1.007825032230

  Basis Set: AUG-CC-PVTZ
    Blend: AUG-CC-PVTZ
  Basis Set: (AUG-CC-PVTZ AUX)
    Blend: AUG-CC-PVTZ-JKFIT
	 Reference Energy          =   -1327.8588981692009838 [Eh]
	 Singles Energy            =      -0.0000000000000000 [Eh]
	 Same-Spin Energy          =      -1.0147547818980089 [Eh]
	 Opposite-Spin Energy      =      -3.0757002160862519 [Eh]
	 Correlation Energy        =      -4.0904549979842608 [Eh]
	 Total Energy              =   -1331.9493531671853361 [Eh]

	 ================> DF-SCS-MP2 Energies <==================
	-----------------------------------------------------------
	 SCS Same-Spin Scale       =       0.3333333333333333 [-]
	 SCS Opposite-Spin Scale   =       1.2000000000000000 [-]
	 SCS Same-Spin Energy      =      -0.3382515939660030 [Eh]
	 SCS Opposite-Spin Energy  =      -3.6908402593035019 [Eh]
	 SCS Correlation Energy    =      -4.0290918532695050 [Eh]
	 SCS Total Energy          =   -1331.8879900224703761 [Eh]
	-----------------------------------------------------------

  Dipole Moment: [D]
     X:    -1.0783      Y:     1.8245      Z:     0.8563     Total:     2.2858

*** Psi4 exiting successfully. Buy a developer a beer!
