                               Psi4 1.3.2 release

  ==> Input File <==

--------------------------------------------------------------------------
#psi4
#
memory 32 gb

molecule  {
0 1
  P       -2.2900960    -0.9400430     0.3446780
  O       -0.9821530    -0.2015620     0.9382890
  O        1.3422500    -1.6754830     1.2308510
  O        0.0787050     2.3596040     0.4621680
  O        3.0685150    -2.1870720    -0.8085900
  O        2.8473350     2.5031130     0.3715350
  O        4.1667983     0.4432467    -1.0126196
  O       -2.8268630     0.0333510    -0.8075310
  O       -3.2591210    -0.7232820     1.6216710
  O       -2.1189930    -2.3436440    -0.0996680
  C        0.1181620     0.0300090     0.0163190
  C        0.9532920    -1.2442050    -0.0757250
  C        0.8985890     1.2026440     0.5648510
  C        2.2596600    -1.0143070    -0.8180370
  C        2.1770750     1.3964720    -0.2280410
  C        3.0258420     0.1487050    -0.2103220
  C       -3.1242130     1.4315980    -0.4888860
  C       -3.5363170     2.0851650    -1.7841190
  H       -0.2830920     0.2988010    -0.9702380
  H        0.3702690    -2.0293640    -0.5720320
  H        1.1571200     0.9978770     1.6121560
  H        2.0609340    -0.7886600    -1.8727560
  H        1.9169870     1.6362870    -1.2735830
  H        3.2585999    -0.0994670     0.8354711
  H        0.5217750    -1.8880320     1.7115100
  H        0.6655400     3.1093110     0.6831840
  H        2.9735430    -2.5473740     0.0946540
  H        3.7214290     2.5491860    -0.0588690
  H        4.6397270    -0.4238340    -1.0970870
  H       -3.8083950    -1.5223380     1.7347280
  H       -3.9305460     1.4455410     0.2493860
  H       -2.2297620     1.8928800    -0.0590960
  H       -3.8005210     3.1308820    -1.6026710
  H       -2.7171960     2.0533230    -2.5048750
  H       -4.4009440     1.5743230    -2.2127240
units angstrom
no_reorient  #important for SAPT in psi4, default
symmetry c1  #important for SAPT in psi4, default
}

set PROPERTIES_ORIGIN ["COM"]
properties('MP2/aug-cc-pvtz', properties = ['dipole'])
--------------------------------------------------------------------------

    Molecular point group: c1
  Charge       = 0
  Multiplicity = 1
  Basis Set: AUG-CC-PVTZ
    Blend: AUG-CC-PVTZ
  Basis Set: (AUG-CC-PVTZ AUX)
    Blend: AUG-CC-PVTZ-JKFIT

    Orbital Energies [Eh]
    ---------------------

    Doubly Occupied:

       1A    -80.116756     2A    -20.614586     3A    -20.606792
       4A    -20.598751     5A    -20.583159     6A    -20.577492
       7A    -20.576711     8A    -20.574487     9A    -20.573130
      10A    -20.523247    11A    -11.320413    12A    -11.302927
      13A    -11.299209    14A    -11.298158    15A    -11.298155
      16A    -11.295819    17A    -11.291498    18A    -11.229697
      19A     -7.632206    20A     -5.530713    21A     -5.530339
      22A     -5.529137    23A     -1.460093    24A     -1.410664
      25A     -1.394372    26A     -1.392796    27A     -1.386664
      28A     -1.372118    29A     -1.363782    30A     -1.353032
      31A     -1.303645    32A     -1.118603    33A     -1.040282
      34A     -1.011496    35A     -1.003007    36A     -0.879748
      37A     -0.864626    38A     -0.858500    39A     -0.821849
      40A     -0.810543    41A     -0.751787    42A     -0.745237
      43A     -0.730279    44A     -0.728393    45A     -0.707149
      46A     -0.686729    47A     -0.677832    48A     -0.672938
      49A     -0.663505    50A     -0.660920    51A     -0.642755
      52A     -0.632810    53A     -0.626926    54A     -0.614973
      55A     -0.603281    56A     -0.597949    57A     -0.581343
      58A     -0.575382    59A     -0.571095    60A     -0.559300
      61A     -0.557300    62A     -0.548355    63A     -0.540978
      64A     -0.536004    65A     -0.529571    66A     -0.521062
      67A     -0.512889    68A     -0.505752    69A     -0.496868
      70A     -0.484729    71A     -0.479660    72A     -0.476484
      73A     -0.462126    74A     -0.456485    75A     -0.449737
      76A     -0.435130

  @DF-RHF Final Energy: -1327.85901630734816

   => Energetics <=

    Nuclear Repulsion Energy =           1772.8347538198052007
    One-Electron Energy =               -5357.8417025120688777
    Two-Electron Energy =                2257.1479323849157481
    Total Energy =                      -1327.8590163073481563
  Basis Set: (AUG-CC-PVTZ AUX)
    Blend: AUG-CC-PVTZ-RI
    Molecular point group: c1

    Geometry (in Angstrom), charge = 0, multiplicity = 1:

       Center              X                  Y                   Z               Mass
    ------------   -----------------  -----------------  -----------------  -----------------
         P           -2.288361491225    -0.940461579973     0.346857532968    30.973761998420
         O           -0.980418491225    -0.201980579973     0.940468532968    15.994914619570
         O            1.343984508775    -1.675901579973     1.233030532968    15.994914619570
         O            0.080439508775     2.359185420027     0.464347532968    15.994914619570
         O            3.070249508775    -2.187490579973    -0.806410467032    15.994914619570
         O            2.849069508775     2.502694420027     0.373714532968    15.994914619570
         O            4.168532808775     0.442828120027    -1.010440067032    15.994914619570
         O           -2.825128491225     0.032932420027    -0.805351467032    15.994914619570
         O           -3.257386491225    -0.723700579973     1.623850532968    15.994914619570
         O           -2.117258491225    -2.344062579973    -0.097488467032    15.994914619570
         C            0.119896508775     0.029590420027     0.018498532968    12.000000000000
         C            0.955026508775    -1.244623579973    -0.073545467032    12.000000000000
         C            0.900323508775     1.202225420027     0.567030532968    12.000000000000
         C            2.261394508775    -1.014725579973    -0.815857467032    12.000000000000
         C            2.178809508775     1.396053420027    -0.225861467032    12.000000000000
         C            3.027576508775     0.148286420027    -0.208142467032    12.000000000000
         C           -3.122478491225     1.431179420027    -0.486706467032    12.000000000000
         C           -3.534582491225     2.084746420027    -1.781939467032    12.000000000000
         H           -0.281357491225     0.298382420027    -0.968058467032     1.007825032230
         H            0.372003508775    -2.029782579973    -0.569852467032     1.007825032230
         H            1.158854508775     0.997458420027     1.614335532968     1.007825032230
         H            2.062668508775    -0.789078579973    -1.870576467032     1.007825032230
         H            1.918721508775     1.635868420027    -1.271403467032     1.007825032230
         H            3.260334408775    -0.099885579973     0.837650632968     1.007825032230
         H            0.523509508775    -1.888450579973     1.713689532968     1.007825032230
         H            0.667274508775     3.108892420027     0.685363532968     1.007825032230
         H            2.975277508775    -2.547792579973     0.096833532968     1.007825032230
         H            3.723163508775     2.548767420027    -0.056689467032     1.007825032230
         H            4.641461508775    -0.424252579973    -1.094907467032     1.007825032230
         H           -3.806660491225    -1.522756579973     1.736907532968     1.007825032230
         H           -3.928811491225     1.445122420027     0.251565532968     1.007825032230
         H           -2.228027491225     1.892461420027    -0.056916467032     1.007825032230
         H           -3.798786491225     3.130463420027    -1.600491467032     1.007825032230
         H           -2.715461491225     2.052904420027    -2.502695467032     1.007825032230
         H           -4.399209491225     1.573904420027    -2.210544467032     1.007825032230

  Basis Set: AUG-CC-PVTZ
    Blend: AUG-CC-PVTZ
  Basis Set: (AUG-CC-PVTZ AUX)
    Blend: AUG-CC-PVTZ-JKFIT
	 Reference Energy          =   -1327.8590163073481563 [Eh]
	 Singles Energy            =      -0.0000000000000000 [Eh]
	 Same-Spin Energy          =      -1.0150274583896493 [Eh]
	 Opposite-Spin Energy      =      -3.0769624999917702 [Eh]
	 Correlation Energy        =      -4.0919899583814194 [Eh]
	 Total Energy              =   -1331.9510062657295748 [Eh]

	 ================> DF-SCS-MP2 Energies <==================
	-----------------------------------------------------------
	 SCS Same-Spin Scale       =       0.3333333333333333 [-]
	 SCS Opposite-Spin Scale   =       1.2000000000000000 [-]
	 SCS Same-Spin Energy      =      -0.3383424861298830 [Eh]
	 SCS Opposite-Spin Energy  =      -3.6923549999901240 [Eh]
	 SCS Correlation Energy    =      -4.0306974861200073 [Eh]
	 SCS Total Energy          =   -1331.8897137934682178 [Eh]
	-----------------------------------------------------------

  Dipole Moment: [D]
     X:    -1.0295      Y:     1.8587      Z:     0.7855     Total:     2.2653

*** Psi4 exiting successfully. Buy a developer a beer!
