                               Psi4 1.3.2 release

  ==> Input File <==

--------------------------------------------------------------------------
#psi4
#
memory 32 gb

molecule  {
0 1
  P       -2.2900960    -0.9400430     0.3446780
  O       -0.9821530    -0.2015620     0.9382890
  O        1.3422500    -1.6754830     1.2308510
  O        0.0787050     2.3596040     0.4621680
  O        3.0685150    -2.1870720    -0.8085900
  O        2.8473350     2.5031130     0.3715350
  O        4.1956880     0.4353970    -0.9728740
  O       -2.8268630     0.0333510    -0.8075310
  O       -3.2591210    -0.7232820     1.6216710
  O       -2.1074489    -2.4383433    -0.1296475
  C        0.1181620     0.0300090     0.0163190
  C        0.9532920    -1.2442050    -0.0757250
  C        0.8985890     1.2026440     0.5648510
  C        2.2596600    -1.0143070    -0.8180370
  C        2.1770750     1.3964720    -0.2280410
  C        3.0258420     0.1487050    -0.2103220
  C       -3.1242130     1.4315980    -0.4888860
  C       -3.5363170     2.0851650    -1.7841190
  H       -0.2830920     0.2988010    -0.9702380
  H        0.3702690    -2.0293640    -0.5720320
  H        1.1571200     0.9978770     1.6121560
  H        2.0609340    -0.7886600    -1.8727560
  H        1.9169870     1.6362870    -1.2735830
  H        3.2958550    -0.0945320     0.8276460
  H        0.5217750    -1.8880320     1.7115100
  H        0.6655400     3.1093110     0.6831840
  H        2.9735430    -2.5473740     0.0946540
  H        3.7214290     2.5491860    -0.0588690
  H        4.6397270    -0.4238340    -1.0970870
  H       -3.8083950    -1.5223380     1.7347280
  H       -3.9305460     1.4455410     0.2493860
  H       -2.2297620     1.8928800    -0.0590960
  H       -3.8005210     3.1308820    -1.6026710
  H       -2.7171960     2.0533230    -2.5048750
  H       -4.4009440     1.5743230    -2.2127240
units angstrom
no_reorient  #important for SAPT in psi4, default
symmetry c1  #important for SAPT in psi4, default
}

set PROPERTIES_ORIGIN ["COM"]
properties('MP2/aug-cc-pvtz', properties = ['dipole'])
--------------------------------------------------------------------------

    Molecular point group: c1
  Charge       = 0
  Multiplicity = 1
  Basis Set: AUG-CC-PVTZ
    Blend: AUG-CC-PVTZ
  Basis Set: (AUG-CC-PVTZ AUX)
    Blend: AUG-CC-PVTZ-JKFIT

    Orbital Energies [Eh]
    ---------------------

    Doubly Occupied:

       1A    -80.132763     2A    -20.621482     3A    -20.613122
       4A    -20.604704     5A    -20.583188     6A    -20.577634
       7A    -20.575022     8A    -20.574589     9A    -20.574447
      10A    -20.525826    11A    -11.322863    12A    -11.303481
      13A    -11.302919    14A    -11.300167    15A    -11.299545
      16A    -11.297690    17A    -11.291884    18A    -11.232167
      19A     -7.645172    20A     -5.543932    21A     -5.543557
      22A     -5.541417    23A     -1.462324    24A     -1.412496
      25A     -1.397189    26A     -1.394174    27A     -1.391712
      28A     -1.374317    29A     -1.364609    30A     -1.354424
      31A     -1.263301    32A     -1.120184    33A     -1.043669
      34A     -1.013556    35A     -1.004123    36A     -0.883802
      37A     -0.867571    38A     -0.859957    39A     -0.826430
      40A     -0.811765    41A     -0.753085    42A     -0.747230
      43A     -0.733525    44A     -0.730633    45A     -0.710215
      46A     -0.688958    47A     -0.678769    48A     -0.675438
      49A     -0.663048    50A     -0.662105    51A     -0.644790
      52A     -0.636107    53A     -0.628954    54A     -0.617106
      55A     -0.605522    56A     -0.598786    57A     -0.578537
      58A     -0.577472    59A     -0.572213    60A     -0.558654
      61A     -0.554397    62A     -0.548886    63A     -0.538645
      64A     -0.535936    65A     -0.531459    66A     -0.520509
      67A     -0.514994    68A     -0.505131    69A     -0.495994
      70A     -0.486034    71A     -0.475125    72A     -0.460113
      73A     -0.458376    74A     -0.456579    75A     -0.448177
      76A     -0.434840

  @DF-RHF Final Energy: -1327.84235117267372

   => Energetics <=

    Nuclear Repulsion Energy =           1767.5806221826478577
    One-Electron Energy =               -5347.0869178769744394
    Two-Electron Energy =                2251.6639445216528657
    Total Energy =                      -1327.8423511726737161
  Basis Set: (AUG-CC-PVTZ AUX)
    Blend: AUG-CC-PVTZ-RI
    Molecular point group: c1

    Geometry (in Angstrom), charge = 0, multiplicity = 1:

       Center              X                  Y                   Z               Mass
    ------------   -----------------  -----------------  -----------------  -----------------
         P           -2.290736966404    -0.934784696347     0.346342636491    30.973761998420
         O           -0.982793966404    -0.196303696347     0.939953636491    15.994914619570
         O            1.341609033596    -1.670224696347     1.232515636491    15.994914619570
         O            0.078064033596     2.364862303653     0.463832636491    15.994914619570
         O            3.067874033596    -2.181813696347    -0.806925363509    15.994914619570
         O            2.846694033596     2.508371303653     0.373199636491    15.994914619570
         O            4.195047033596     0.440655303653    -0.971209363509    15.994914619570
         O           -2.827503966404     0.038609303653    -0.805866363509    15.994914619570
         O           -3.259761966404    -0.718023696347     1.623335636491    15.994914619570
         O           -2.108089866404    -2.433084996347    -0.127982863509    15.994914619570
         C            0.117521033596     0.035267303653     0.017983636491    12.000000000000
         C            0.952651033596    -1.238946696347    -0.074060363509    12.000000000000
         C            0.897948033596     1.207902303653     0.566515636491    12.000000000000
         C            2.259019033596    -1.009048696347    -0.816372363509    12.000000000000
         C            2.176434033596     1.401730303653    -0.226376363509    12.000000000000
         C            3.025201033596     0.153963303653    -0.208657363509    12.000000000000
         C           -3.124853966404     1.436856303653    -0.487221363509    12.000000000000
         C           -3.536957966404     2.090423303653    -1.782454363509    12.000000000000
         H           -0.283732966404     0.304059303653    -0.968573363509     1.007825032230
         H            0.369628033596    -2.024105696347    -0.570367363509     1.007825032230
         H            1.156479033596     1.003135303653     1.613820636491     1.007825032230
         H            2.060293033596    -0.783401696347    -1.871091363509     1.007825032230
         H            1.916346033596     1.641545303653    -1.271918363509     1.007825032230
         H            3.295214033596    -0.089273696347     0.829310636491     1.007825032230
         H            0.521134033596    -1.882773696347     1.713174636491     1.007825032230
         H            0.664899033596     3.114569303653     0.684848636491     1.007825032230
         H            2.972902033596    -2.542115696347     0.096318636491     1.007825032230
         H            3.720788033596     2.554444303653    -0.057204363509     1.007825032230
         H            4.639086033596    -0.418575696347    -1.095422363509     1.007825032230
         H           -3.809035966404    -1.517079696347     1.736392636491     1.007825032230
         H           -3.931186966404     1.450799303653     0.251050636491     1.007825032230
         H           -2.230402966404     1.898138303653    -0.057431363509     1.007825032230
         H           -3.801161966404     3.136140303653    -1.601006363509     1.007825032230
         H           -2.717836966404     2.058581303653    -2.503210363509     1.007825032230
         H           -4.401584966404     1.579581303653    -2.211059363509     1.007825032230

  Basis Set: AUG-CC-PVTZ
    Blend: AUG-CC-PVTZ
  Basis Set: (AUG-CC-PVTZ AUX)
    Blend: AUG-CC-PVTZ-JKFIT
	 Reference Energy          =   -1327.8423511726737161 [Eh]
	 Singles Energy            =      -0.0000000000000000 [Eh]
	 Same-Spin Energy          =      -1.0168333448021589 [Eh]
	 Opposite-Spin Energy      =      -3.0814897414847038 [Eh]
	 Correlation Energy        =      -4.0983230862868627 [Eh]
	 Total Energy              =   -1331.9406742589605983 [Eh]

	 ================> DF-SCS-MP2 Energies <==================
	-----------------------------------------------------------
	 SCS Same-Spin Scale       =       0.3333333333333333 [-]
	 SCS Opposite-Spin Scale   =       1.2000000000000000 [-]
	 SCS Same-Spin Energy      =      -0.3389444482673863 [Eh]
	 SCS Opposite-Spin Energy  =      -3.6977876897816442 [Eh]
	 SCS Correlation Energy    =      -4.0367321380490306 [Eh]
	 SCS Total Energy          =   -1331.8790833107227627 [Eh]
	-----------------------------------------------------------

  Dipole Moment: [D]
     X:    -1.1401      Y:     2.3337      Z:     0.8290     Total:     2.7264

*** Psi4 exiting successfully. Buy a developer a beer!
