                               Psi4 1.3.2 release

  ==> Input File <==

--------------------------------------------------------------------------
#psi4
#
memory 32 gb

molecule  {
0 1
  P       -2.2900960    -0.9400430     0.3446780
  O       -0.9728950    -0.2660886     0.9921422
  O        1.3422500    -1.6754830     1.2308510
  O        0.0787050     2.3596040     0.4621680
  O        3.0685150    -2.1870720    -0.8085900
  O        2.8473350     2.5031130     0.3715350
  O        4.1956880     0.4353970    -0.9728740
  O       -2.8888593    -0.0212439    -0.8217229
  O       -3.2591210    -0.7232820     1.6216710
  O       -2.1189930    -2.3436440    -0.0996680
  C        0.1181620     0.0300090     0.0163190
  C        0.9532920    -1.2442050    -0.0757250
  C        0.8985890     1.2026440     0.5648510
  C        2.2596600    -1.0143070    -0.8180370
  C        2.1770750     1.3964720    -0.2280410
  C        3.0258420     0.1487050    -0.2103220
  C       -3.1242130     1.4315980    -0.4888860
  C       -3.5363170     2.0851650    -1.7841190
  H       -0.2830920     0.2988010    -0.9702380
  H        0.3702690    -2.0293640    -0.5720320
  H        1.1571200     0.9978770     1.6121560
  H        2.0609340    -0.7886600    -1.8727560
  H        1.9169870     1.6362870    -1.2735830
  H        3.2958550    -0.0945320     0.8276460
  H        0.5217750    -1.8880320     1.7115100
  H        0.6655400     3.1093110     0.6831840
  H        2.9735430    -2.5473740     0.0946540
  H        3.7214290     2.5491860    -0.0588690
  H        4.6397270    -0.4238340    -1.0970870
  H       -3.8083950    -1.5223380     1.7347280
  H       -3.9305460     1.4455410     0.2493860
  H       -2.2297620     1.8928800    -0.0590960
  H       -3.8005210     3.1308820    -1.6026710
  H       -2.7171960     2.0533230    -2.5048750
  H       -4.4009440     1.5743230    -2.2127240
units angstrom
no_reorient  #important for SAPT in psi4, default
symmetry c1  #important for SAPT in psi4, default
}

set PROPERTIES_ORIGIN ["COM"]
properties('MP2/aug-cc-pvtz', properties = ['dipole'])
--------------------------------------------------------------------------

    Molecular point group: c1
  Charge       = 0
  Multiplicity = 1
  Basis Set: AUG-CC-PVTZ
    Blend: AUG-CC-PVTZ
  Basis Set: (AUG-CC-PVTZ AUX)
    Blend: AUG-CC-PVTZ-JKFIT

    Orbital Energies [Eh]
    ---------------------

    Doubly Occupied:

       1A    -80.111803     2A    -20.610397     3A    -20.607948
       4A    -20.602657     5A    -20.582186     6A    -20.578765
       7A    -20.576489     8A    -20.575118     9A    -20.574964
      10A    -20.514393    11A    -11.326581    12A    -11.306237
      13A    -11.304361    14A    -11.302088    15A    -11.299996
      16A    -11.299156    17A    -11.292648    18A    -11.233291
      19A     -7.627560    20A     -5.526122    21A     -5.525442
      22A     -5.524542    23A     -1.453410    24A     -1.410066
      25A     -1.395276    26A     -1.390603    27A     -1.379047
      28A     -1.371557    29A     -1.365211    30A     -1.354758
      31A     -1.295545    32A     -1.121352    33A     -1.043121
      34A     -1.013592    35A     -1.004830    36A     -0.875977
      37A     -0.864597    38A     -0.860195    39A     -0.822350
      40A     -0.812015    41A     -0.752078    42A     -0.743855
      43A     -0.729726    44A     -0.725101    45A     -0.705618
      46A     -0.687691    47A     -0.677147    48A     -0.671944
      49A     -0.662826    50A     -0.658423    51A     -0.641191
      52A     -0.636680    53A     -0.623387    54A     -0.613295
      55A     -0.603922    56A     -0.599653    57A     -0.581758
      58A     -0.571611    59A     -0.570802    60A     -0.560386
      61A     -0.556287    62A     -0.550023    63A     -0.539810
      64A     -0.537128    65A     -0.532548    66A     -0.523597
      67A     -0.517057    68A     -0.506744    69A     -0.497727
      70A     -0.490154    71A     -0.480395    72A     -0.468919
      73A     -0.462026    74A     -0.457683    75A     -0.451244
      76A     -0.436713

  @DF-RHF Final Energy: -1327.85392551636028

   => Energetics <=

    Nuclear Repulsion Energy =           1769.4749536220047048
    One-Electron Energy =               -5351.1349657333785217
    Two-Electron Energy =                2253.8060865950137668
    Total Energy =                      -1327.8539255163600501
  Basis Set: (AUG-CC-PVTZ AUX)
    Blend: AUG-CC-PVTZ-RI
    Molecular point group: c1

    Geometry (in Angstrom), charge = 0, multiplicity = 1:

       Center              X                  Y                   Z               Mass
    ------------   -----------------  -----------------  -----------------  -----------------
         P           -2.287167613277    -0.933428626008     0.342475752129    30.973761998420
         O           -0.969966613277    -0.259474226008     0.989939952129    15.994914619570
         O            1.345178386723    -1.668868626008     1.228648752129    15.994914619570
         O            0.081633386723     2.366218373992     0.459965752129    15.994914619570
         O            3.071443386723    -2.180457626008    -0.810792247871    15.994914619570
         O            2.850263386723     2.509727373992     0.369332752129    15.994914619570
         O            4.198616386723     0.442011373992    -0.975076247871    15.994914619570
         O           -2.885930913277    -0.014629526008    -0.823925147871    15.994914619570
         O           -3.256192613277    -0.716667626008     1.619468752129    15.994914619570
         O           -2.116064613277    -2.337029626008    -0.101870247871    15.994914619570
         C            0.121090386723     0.036623373992     0.014116752129    12.000000000000
         C            0.956220386723    -1.237590626008    -0.077927247871    12.000000000000
         C            0.901517386723     1.209258373992     0.562648752129    12.000000000000
         C            2.262588386723    -1.007692626008    -0.820239247871    12.000000000000
         C            2.180003386723     1.403086373992    -0.230243247871    12.000000000000
         C            3.028770386723     0.155319373992    -0.212524247871    12.000000000000
         C           -3.121284613277     1.438212373992    -0.491088247871    12.000000000000
         C           -3.533388613277     2.091779373992    -1.786321247871    12.000000000000
         H           -0.280163613277     0.305415373992    -0.972440247871     1.007825032230
         H            0.373197386723    -2.022749626008    -0.574234247871     1.007825032230
         H            1.160048386723     1.004491373992     1.609953752129     1.007825032230
         H            2.063862386723    -0.782045626008    -1.874958247871     1.007825032230
         H            1.919915386723     1.642901373992    -1.275785247871     1.007825032230
         H            3.298783386723    -0.087917626008     0.825443752129     1.007825032230
         H            0.524703386723    -1.881417626008     1.709307752129     1.007825032230
         H            0.668468386723     3.115925373992     0.680981752129     1.007825032230
         H            2.976471386723    -2.540759626008     0.092451752129     1.007825032230
         H            3.724357386723     2.555800373992    -0.061071247871     1.007825032230
         H            4.642655386723    -0.417219626008    -1.099289247871     1.007825032230
         H           -3.805466613277    -1.515723626008     1.732525752129     1.007825032230
         H           -3.927617613277     1.452155373992     0.247183752129     1.007825032230
         H           -2.226833613277     1.899494373992    -0.061298247871     1.007825032230
         H           -3.797592613277     3.137496373992    -1.604873247871     1.007825032230
         H           -2.714267613277     2.059937373992    -2.507077247871     1.007825032230
         H           -4.398015613277     1.580937373992    -2.214926247871     1.007825032230

  Basis Set: AUG-CC-PVTZ
    Blend: AUG-CC-PVTZ
  Basis Set: (AUG-CC-PVTZ AUX)
    Blend: AUG-CC-PVTZ-JKFIT
	 Reference Energy          =   -1327.8539255163602775 [Eh]
	 Singles Energy            =      -0.0000000000000000 [Eh]
	 Same-Spin Energy          =      -1.0150559523516038 [Eh]
	 Opposite-Spin Energy      =      -3.0780787188338512 [Eh]
	 Correlation Energy        =      -4.0931346711854548 [Eh]
	 Total Energy              =   -1331.9470601875457305 [Eh]

	 ================> DF-SCS-MP2 Energies <==================
	-----------------------------------------------------------
	 SCS Same-Spin Scale       =       0.3333333333333333 [-]
	 SCS Opposite-Spin Scale   =       1.2000000000000000 [-]
	 SCS Same-Spin Energy      =      -0.3383519841172012 [Eh]
	 SCS Opposite-Spin Energy  =      -3.6936944626006212 [Eh]
	 SCS Correlation Energy    =      -4.0320464467178221 [Eh]
	 SCS Total Energy          =   -1331.8859719630781910 [Eh]
	-----------------------------------------------------------

  Dipole Moment: [D]
     X:    -0.9080      Y:     2.3196      Z:     0.5703     Total:     2.5555

*** Psi4 exiting successfully. Buy a developer a beer!
