                               Psi4 1.3.2 release

  ==> Input File <==

--------------------------------------------------------------------------
#psi4
#
memory 32 gb

molecule  {
0 1
  P       -2.2900960    -0.9400430     0.3446780
  O       -1.0258035    -0.1859305     1.0089986
  O        1.3422500    -1.6754830     1.2308510
  O        0.0787050     2.3596040     0.4621680
  O        3.0685150    -2.1870720    -0.8085900
  O        2.8473350     2.5031130     0.3715350
  O        4.1956880     0.4353970    -0.9728740
  O       -2.8268630     0.0333510    -0.8075310
  O       -3.1954534    -0.6829875     1.6603362
  O       -2.1189930    -2.3436440    -0.0996680
  C        0.1181620     0.0300090     0.0163190
  C        0.9532920    -1.2442050    -0.0757250
  C        0.8985890     1.2026440     0.5648510
  C        2.2596600    -1.0143070    -0.8180370
  C        2.1770750     1.3964720    -0.2280410
  C        3.0258420     0.1487050    -0.2103220
  C       -3.1242130     1.4315980    -0.4888860
  C       -3.5363170     2.0851650    -1.7841190
  H       -0.2830920     0.2988010    -0.9702380
  H        0.3702690    -2.0293640    -0.5720320
  H        1.1571200     0.9978770     1.6121560
  H        2.0609340    -0.7886600    -1.8727560
  H        1.9169870     1.6362870    -1.2735830
  H        3.2958550    -0.0945320     0.8276460
  H        0.5217750    -1.8880320     1.7115100
  H        0.6655400     3.1093110     0.6831840
  H        2.9735430    -2.5473740     0.0946540
  H        3.7214290     2.5491860    -0.0588690
  H        4.6397270    -0.4238340    -1.0970870
  H       -3.8083950    -1.5223380     1.7347280
  H       -3.9305460     1.4455410     0.2493860
  H       -2.2297620     1.8928800    -0.0590960
  H       -3.8005210     3.1308820    -1.6026710
  H       -2.7171960     2.0533230    -2.5048750
  H       -4.4009440     1.5743230    -2.2127240
units angstrom
no_reorient  #important for SAPT in psi4, default
symmetry c1  #important for SAPT in psi4, default
}

set PROPERTIES_ORIGIN ["COM"]
properties('MP2/aug-cc-pvtz', properties = ['dipole'])
--------------------------------------------------------------------------

    Molecular point group: c1
  Charge       = 0
  Multiplicity = 1
  Basis Set: AUG-CC-PVTZ
    Blend: AUG-CC-PVTZ
  Basis Set: (AUG-CC-PVTZ AUX)
    Blend: AUG-CC-PVTZ-JKFIT

    Orbital Energies [Eh]
    ---------------------

    Doubly Occupied:

       1A    -80.111857     2A    -20.614072     3A    -20.603666
       4A    -20.599393     5A    -20.583769     6A    -20.577748
       7A    -20.576436     8A    -20.575232     9A    -20.573616
      10A    -20.526300    11A    -11.325892    12A    -11.307050
      13A    -11.301733    14A    -11.300304    15A    -11.298614
      16A    -11.298021    17A    -11.292765    18A    -11.229592
      19A     -7.627785    20A     -5.526538    21A     -5.525705
      22A     -5.524613    23A     -1.451096    24A     -1.409165
      25A     -1.394469    26A     -1.386374    27A     -1.379210
      28A     -1.364901    29A     -1.363182    30A     -1.353363
      31A     -1.304645    32A     -1.121185    33A     -1.039772
      34A     -1.012358    35A     -1.004779    36A     -0.874192
      37A     -0.864292    38A     -0.858666    39A     -0.813074
      40A     -0.810067    41A     -0.750720    42A     -0.741540
      43A     -0.727994    44A     -0.720407    45A     -0.696577
      46A     -0.686251    47A     -0.679065    48A     -0.672771
      49A     -0.662653    50A     -0.658060    51A     -0.639751
      52A     -0.632568    53A     -0.623323    54A     -0.615691
      55A     -0.600052    56A     -0.596169    57A     -0.582650
      58A     -0.570812    59A     -0.567714    60A     -0.559890
      61A     -0.558320    62A     -0.547998    63A     -0.540349
      64A     -0.538014    65A     -0.527820    66A     -0.521561
      67A     -0.512802    68A     -0.505341    69A     -0.496617
      70A     -0.488053    71A     -0.480605    72A     -0.477492
      73A     -0.465177    74A     -0.456917    75A     -0.452339
      76A     -0.437799

  @DF-RHF Final Energy: -1327.84351009390866

   => Energetics <=

    Nuclear Repulsion Energy =           1770.8460813187784879
    One-Electron Energy =               -5353.9844766051610350
    Two-Electron Energy =                2255.2948851924738847
    Total Energy =                      -1327.8435100939086624
  Basis Set: (AUG-CC-PVTZ AUX)
    Blend: AUG-CC-PVTZ-RI
    Molecular point group: c1

    Geometry (in Angstrom), charge = 0, multiplicity = 1:

       Center              X                  Y                   Z               Mass
    ------------   -----------------  -----------------  -----------------  -----------------
         P           -2.291207439334    -0.943148336871     0.338604831018    30.973761998420
         O           -1.026914939334    -0.189035836871     1.002925431018    15.994914619570
         O            1.341138560666    -1.678588336871     1.224777831018    15.994914619570
         O            0.077593560666     2.356498663129     0.456094831018    15.994914619570
         O            3.067403560666    -2.190177336871    -0.814663168982    15.994914619570
         O            2.846223560666     2.500007663129     0.365461831018    15.994914619570
         O            4.194576560666     0.432291663129    -0.978947168982    15.994914619570
         O           -2.827974439334     0.030245663129    -0.813604168982    15.994914619570
         O           -3.196564839334    -0.686092836871     1.654263031018    15.994914619570
         O           -2.120104439334    -2.346749336871    -0.105741168982    15.994914619570
         C            0.117050560666     0.026903663129     0.010245831018    12.000000000000
         C            0.952180560666    -1.247310336871    -0.081798168982    12.000000000000
         C            0.897477560666     1.199538663129     0.558777831018    12.000000000000
         C            2.258548560666    -1.017412336871    -0.824110168982    12.000000000000
         C            2.175963560666     1.393366663129    -0.234114168982    12.000000000000
         C            3.024730560666     0.145599663129    -0.216395168982    12.000000000000
         C           -3.125324439334     1.428492663129    -0.494959168982    12.000000000000
         C           -3.537428439334     2.082059663129    -1.790192168982    12.000000000000
         H           -0.284203439334     0.295695663129    -0.976311168982     1.007825032230
         H            0.369157560666    -2.032469336871    -0.578105168982     1.007825032230
         H            1.156008560666     0.994771663129     1.606082831018     1.007825032230
         H            2.059822560666    -0.791765336871    -1.878829168982     1.007825032230
         H            1.915875560666     1.633181663129    -1.279656168982     1.007825032230
         H            3.294743560666    -0.097637336871     0.821572831018     1.007825032230
         H            0.520663560666    -1.891137336871     1.705436831018     1.007825032230
         H            0.664428560666     3.106205663129     0.677110831018     1.007825032230
         H            2.972431560666    -2.550479336871     0.088580831018     1.007825032230
         H            3.720317560666     2.546080663129    -0.064942168982     1.007825032230
         H            4.638615560666    -0.426939336871    -1.103160168982     1.007825032230
         H           -3.809506439334    -1.525443336871     1.728654831018     1.007825032230
         H           -3.931657439334     1.442435663129     0.243312831018     1.007825032230
         H           -2.230873439334     1.889774663129    -0.065169168982     1.007825032230
         H           -3.801632439334     3.127776663129    -1.608744168982     1.007825032230
         H           -2.718307439334     2.050217663129    -2.510948168982     1.007825032230
         H           -4.402055439334     1.571217663129    -2.218797168982     1.007825032230

  Basis Set: AUG-CC-PVTZ
    Blend: AUG-CC-PVTZ
  Basis Set: (AUG-CC-PVTZ AUX)
    Blend: AUG-CC-PVTZ-JKFIT
	 Reference Energy          =   -1327.8435100939086624 [Eh]
	 Singles Energy            =      -0.0000000000000000 [Eh]
	 Same-Spin Energy          =      -1.0165765023806224 [Eh]
	 Opposite-Spin Energy      =      -3.0814678878462738 [Eh]
	 Correlation Energy        =      -4.0980443902268959 [Eh]
	 Total Energy              =   -1331.9415544841356223 [Eh]

	 ================> DF-SCS-MP2 Energies <==================
	-----------------------------------------------------------
	 SCS Same-Spin Scale       =       0.3333333333333333 [-]
	 SCS Opposite-Spin Scale   =       1.2000000000000000 [-]
	 SCS Same-Spin Energy      =      -0.3388588341268741 [Eh]
	 SCS Opposite-Spin Energy  =      -3.6977614654155282 [Eh]
	 SCS Correlation Energy    =      -4.0366202995424025 [Eh]
	 SCS Total Energy          =   -1331.8801303934510543 [Eh]
	-----------------------------------------------------------

  Dipole Moment: [D]
     X:    -0.9852      Y:     1.7864      Z:     0.4868     Total:     2.0973

*** Psi4 exiting successfully. Buy a developer a beer!
