                               Psi4 1.3.2 release

  ==> Input File <==

--------------------------------------------------------------------------
#psi4
#
memory 32 gb

molecule  {
0 1
  P       -2.2900960    -0.9400430     0.3446780
  O       -0.9821530    -0.2015620     0.9382890
  O        1.3422500    -1.6754830     1.2308510
  O        0.0787050     2.3596040     0.4621680
  O        3.0685150    -2.1870720    -0.8085900
  O        2.8473350     2.5031130     0.3715350
  O        4.1956880     0.4353970    -0.9728740
  O       -2.8268630     0.0333510    -0.8075310
  O       -3.3789295    -0.6964821     1.7795561
  O       -2.1189930    -2.3436440    -0.0996680
  C        0.1181620     0.0300090     0.0163190
  C        0.9532920    -1.2442050    -0.0757250
  C        0.8985890     1.2026440     0.5648510
  C        2.2596600    -1.0143070    -0.8180370
  C        2.1770750     1.3964720    -0.2280410
  C        3.0258420     0.1487050    -0.2103220
  C       -3.1242130     1.4315980    -0.4888860
  C       -3.5363170     2.0851650    -1.7841190
  H       -0.2830920     0.2988010    -0.9702380
  H        0.3702690    -2.0293640    -0.5720320
  H        1.1571200     0.9978770     1.6121560
  H        2.0609340    -0.7886600    -1.8727560
  H        1.9169870     1.6362870    -1.2735830
  H        3.2958550    -0.0945320     0.8276460
  H        0.5217750    -1.8880320     1.7115100
  H        0.6655400     3.1093110     0.6831840
  H        2.9735430    -2.5473740     0.0946540
  H        3.7214290     2.5491860    -0.0588690
  H        4.6397270    -0.4238340    -1.0970870
  H       -3.8083950    -1.5223380     1.7347280
  H       -3.9305460     1.4455410     0.2493860
  H       -2.2297620     1.8928800    -0.0590960
  H       -3.8005210     3.1308820    -1.6026710
  H       -2.7171960     2.0533230    -2.5048750
  H       -4.4009440     1.5743230    -2.2127240
units angstrom
no_reorient  #important for SAPT in psi4, default
symmetry c1  #important for SAPT in psi4, default
}

set PROPERTIES_ORIGIN ["COM"]
properties('MP2/aug-cc-pvtz', properties = ['dipole'])
--------------------------------------------------------------------------

    Molecular point group: c1
  Charge       = 0
  Multiplicity = 1
  Basis Set: AUG-CC-PVTZ
    Blend: AUG-CC-PVTZ
  Basis Set: (AUG-CC-PVTZ AUX)
    Blend: AUG-CC-PVTZ-JKFIT

    Orbital Energies [Eh]
    ---------------------

    Doubly Occupied:

       1A    -80.135709     2A    -20.616312     3A    -20.610627
       4A    -20.602591     5A    -20.586694     6A    -20.579233
       7A    -20.577446     8A    -20.576470     9A    -20.576393
      10A    -20.539785    11A    -11.326614    12A    -11.307994
      13A    -11.303199    14A    -11.302644    15A    -11.302312
      16A    -11.299690    17A    -11.294181    18A    -11.232849
      19A     -7.648976    20A     -5.547257    21A     -5.546982
      22A     -5.545700    23A     -1.455440    24A     -1.412344
      25A     -1.397731    26A     -1.396047    27A     -1.377769
      28A     -1.366904    29A     -1.362952    30A     -1.356332
      31A     -1.316379    32A     -1.122945    33A     -1.044586
      34A     -1.015895    35A     -1.006990    36A     -0.881559
      37A     -0.868896    38A     -0.862158    39A     -0.815199
      40A     -0.810993    41A     -0.754580    42A     -0.744684
      43A     -0.730265    44A     -0.726143    45A     -0.697598
      46A     -0.689623    47A     -0.680495    48A     -0.675933
      49A     -0.664528    50A     -0.655581    51A     -0.640423
      52A     -0.636927    53A     -0.633883    54A     -0.618788
      55A     -0.605237    56A     -0.601022    57A     -0.584149
      58A     -0.576105    59A     -0.564780    60A     -0.560763
      61A     -0.558279    62A     -0.550996    63A     -0.540383
      64A     -0.539308    65A     -0.529127    66A     -0.525919
      67A     -0.516655    68A     -0.507850    69A     -0.502732
      70A     -0.490782    71A     -0.486036    72A     -0.484163
      73A     -0.467675    74A     -0.458528    75A     -0.454571
      76A     -0.439612

  @DF-RHF Final Energy: -1327.83085275783606

   => Energetics <=

    Nuclear Repulsion Energy =           1763.5907873792573355
    One-Electron Energy =               -5338.7934752863984613
    Two-Electron Energy =                2247.3718351493048431
    Total Energy =                      -1327.8308527578360554
  Basis Set: (AUG-CC-PVTZ AUX)
    Blend: AUG-CC-PVTZ-RI
    Molecular point group: c1

    Geometry (in Angstrom), charge = 0, multiplicity = 1:

       Center              X                  Y                   Z               Mass
    ------------   -----------------  -----------------  -----------------  -----------------
         P           -2.283443464394    -0.941531077152     0.335911241621    30.973761998420
         O           -0.975500464394    -0.203050077152     0.929522241621    15.994914619570
         O            1.348902535606    -1.676971077152     1.222084241621    15.994914619570
         O            0.085357535606     2.358115922848     0.453401241621    15.994914619570
         O            3.075167535606    -2.188560077152    -0.817356758379    15.994914619570
         O            2.853987535606     2.501624922848     0.362768241621    15.994914619570
         O            4.202340535606     0.433908922848    -0.981640758379    15.994914619570
         O           -2.820210464394     0.031862922848    -0.816297758379    15.994914619570
         O           -3.372276964394    -0.697970177152     1.770789341621    15.994914619570
         O           -2.112340464394    -2.345132077152    -0.108434758379    15.994914619570
         C            0.124814535606     0.028520922848     0.007552241621    12.000000000000
         C            0.959944535606    -1.245693077152    -0.084491758379    12.000000000000
         C            0.905241535606     1.201155922848     0.556084241621    12.000000000000
         C            2.266312535606    -1.015795077152    -0.826803758379    12.000000000000
         C            2.183727535606     1.394983922848    -0.236807758379    12.000000000000
         C            3.032494535606     0.147216922848    -0.219088758379    12.000000000000
         C           -3.117560464394     1.430109922848    -0.497652758379    12.000000000000
         C           -3.529664464394     2.083676922848    -1.792885758379    12.000000000000
         H           -0.276439464394     0.297312922848    -0.979004758379     1.007825032230
         H            0.376921535606    -2.030852077152    -0.580798758379     1.007825032230
         H            1.163772535606     0.996388922848     1.603389241621     1.007825032230
         H            2.067586535606    -0.790148077152    -1.881522758379     1.007825032230
         H            1.923639535606     1.634798922848    -1.282349758379     1.007825032230
         H            3.302507535606    -0.096020077152     0.818879241621     1.007825032230
         H            0.528427535606    -1.889520077152     1.702743241621     1.007825032230
         H            0.672192535606     3.107822922848     0.674417241621     1.007825032230
         H            2.980195535606    -2.548862077152     0.085887241621     1.007825032230
         H            3.728081535606     2.547697922848    -0.067635758379     1.007825032230
         H            4.646379535606    -0.425322077152    -1.105853758379     1.007825032230
         H           -3.801742464394    -1.523826077152     1.725961241621     1.007825032230
         H           -3.923893464394     1.444052922848     0.240619241621     1.007825032230
         H           -2.223109464394     1.891391922848    -0.067862758379     1.007825032230
         H           -3.793868464394     3.129393922848    -1.611437758379     1.007825032230
         H           -2.710543464394     2.051834922848    -2.513641758379     1.007825032230
         H           -4.394291464394     1.572834922848    -2.221490758379     1.007825032230

  Basis Set: AUG-CC-PVTZ
    Blend: AUG-CC-PVTZ
  Basis Set: (AUG-CC-PVTZ AUX)
    Blend: AUG-CC-PVTZ-JKFIT
	 Reference Energy          =   -1327.8308527578360554 [Eh]
	 Singles Energy            =      -0.0000000000000000 [Eh]
	 Same-Spin Energy          =      -1.0163204841080016 [Eh]
	 Opposite-Spin Energy      =      -3.0822679507584811 [Eh]
	 Correlation Energy        =      -4.0985884348664827 [Eh]
	 Total Energy              =   -1331.9294411927025976 [Eh]

	 ================> DF-SCS-MP2 Energies <==================
	-----------------------------------------------------------
	 SCS Same-Spin Scale       =       0.3333333333333333 [-]
	 SCS Opposite-Spin Scale   =       1.2000000000000000 [-]
	 SCS Same-Spin Energy      =      -0.3387734947026672 [Eh]
	 SCS Opposite-Spin Energy  =      -3.6987215409101770 [Eh]
	 SCS Correlation Energy    =      -4.0374950356128441 [Eh]
	 SCS Total Energy          =   -1331.8683477934489474 [Eh]
	-----------------------------------------------------------

  Dipole Moment: [D]
     X:    -0.2762      Y:     1.9311      Z:    -0.1765     Total:     1.9587

*** Psi4 exiting successfully. Buy a developer a beer!
