                               Psi4 1.3.2 release

  ==> Input File <==

--------------------------------------------------------------------------
#psi4
#
memory 32 gb

molecule  {
0 1
  P       -2.2900960    -0.9400430     0.3446780
  O       -0.9821530    -0.2015620     0.9382890
  O        1.3422500    -1.6754830     1.2308510
  O        0.0787050     2.3596040     0.4621680
  O        3.0685150    -2.1870720    -0.8085900
  O        2.8473350     2.5031130     0.3715350
  O        4.1956880     0.4353970    -0.9728740
  O       -2.8268630     0.0333510    -0.8075310
  O       -3.2591210    -0.7232820     1.6216710
  O       -2.1189930    -2.3436440    -0.0996680
  C        0.1181620     0.0300090     0.0163190
  C        0.9721063    -1.1833433    -0.0280309
  C        0.8985890     1.2026440     0.5648510
  C        2.2596600    -1.0143070    -0.8180370
  C        2.1770750     1.3964720    -0.2280410
  C        2.9668863     0.1572754    -0.1576016
  C       -3.1242130     1.4315980    -0.4888860
  C       -3.5363170     2.0851650    -1.7841190
  H       -0.2830920     0.2988010    -0.9702380
  H        0.3702690    -2.0293640    -0.5720320
  H        1.1571200     0.9978770     1.6121560
  H        2.0609340    -0.7886600    -1.8727560
  H        1.9169870     1.6362870    -1.2735830
  H        3.2958550    -0.0945320     0.8276460
  H        0.5217750    -1.8880320     1.7115100
  H        0.6655400     3.1093110     0.6831840
  H        2.9735430    -2.5473740     0.0946540
  H        3.7214290     2.5491860    -0.0588690
  H        4.6397270    -0.4238340    -1.0970870
  H       -3.8083950    -1.5223380     1.7347280
  H       -3.9305460     1.4455410     0.2493860
  H       -2.2297620     1.8928800    -0.0590960
  H       -3.8005210     3.1308820    -1.6026710
  H       -2.7171960     2.0533230    -2.5048750
  H       -4.4009440     1.5743230    -2.2127240
units angstrom
no_reorient  #important for SAPT in psi4, default
symmetry c1  #important for SAPT in psi4, default
}

set PROPERTIES_ORIGIN ["COM"]
properties('MP2/aug-cc-pvtz', properties = ['dipole'])
--------------------------------------------------------------------------

    Molecular point group: c1
  Charge       = 0
  Multiplicity = 1
  Basis Set: AUG-CC-PVTZ
    Blend: AUG-CC-PVTZ
  Basis Set: (AUG-CC-PVTZ AUX)
    Blend: AUG-CC-PVTZ-JKFIT

    Orbital Energies [Eh]
    ---------------------

    Doubly Occupied:

       1A    -80.117456     2A    -20.615262     3A    -20.608875
       4A    -20.599647     5A    -20.587565     6A    -20.578413
       7A    -20.578028     8A    -20.574080     9A    -20.563465
      10A    -20.523002    11A    -11.321241    12A    -11.305155
      13A    -11.302553    14A    -11.300056    15A    -11.299447
      16A    -11.298133    17A    -11.290903    18A    -11.230402
      19A     -7.632901    20A     -5.531406    21A     -5.531041
      22A     -5.529816    23A     -1.461745    24A     -1.416230
      25A     -1.396914    26A     -1.391881    27A     -1.387214
      28A     -1.371737    29A     -1.365134    30A     -1.337325
      31A     -1.303474    32A     -1.131087    33A     -1.041244
      34A     -1.021006    35A     -1.005045    36A     -0.878933
      37A     -0.864954    38A     -0.860014    39A     -0.824473
      40A     -0.817270    41A     -0.758190    42A     -0.744563
      43A     -0.730969    44A     -0.725956    45A     -0.710848
      46A     -0.687002    47A     -0.683097    48A     -0.671540
      49A     -0.662771    50A     -0.656061    51A     -0.643087
      52A     -0.632324    53A     -0.628008    54A     -0.617947
      55A     -0.603808    56A     -0.599954    57A     -0.579999
      58A     -0.576461    59A     -0.571855    60A     -0.560547
      61A     -0.554268    62A     -0.548698    63A     -0.541929
      64A     -0.535021    65A     -0.529623    66A     -0.522496
      67A     -0.513273    68A     -0.502392    69A     -0.494789
      70A     -0.490257    71A     -0.479779    72A     -0.476833
      73A     -0.467179    74A     -0.462354    75A     -0.450340
      76A     -0.427058

  @DF-RHF Final Energy: -1327.84526222295813

   => Energetics <=

    Nuclear Repulsion Energy =           1774.4664697136963696
    One-Electron Energy =               -5360.9518521744194004
    Two-Electron Energy =                2258.6401202377646769
    Total Energy =                      -1327.8452622229583540
  Basis Set: (AUG-CC-PVTZ AUX)
    Blend: AUG-CC-PVTZ-RI
    Molecular point group: c1

    Geometry (in Angstrom), charge = 0, multiplicity = 1:

       Center              X                  Y                   Z               Mass
    ------------   -----------------  -----------------  -----------------  -----------------
         P           -2.288423763126    -0.942935373676     0.340494939541    30.973761998420
         O           -0.980480763126    -0.204454373676     0.934105939541    15.994914619570
         O            1.343922236874    -1.678375373676     1.226667939541    15.994914619570
         O            0.080377236874     2.356711626324     0.457984939541    15.994914619570
         O            3.070187236874    -2.189964373676    -0.812773060459    15.994914619570
         O            2.849007236874     2.500220626324     0.367351939541    15.994914619570
         O            4.197360236874     0.432504626324    -0.977057060459    15.994914619570
         O           -2.825190763126     0.030458626324    -0.811714060459    15.994914619570
         O           -3.257448763126    -0.726174373676     1.617487939541    15.994914619570
         O           -2.117320763126    -2.346536373676    -0.103851060459    15.994914619570
         C            0.119834236874     0.027116626324     0.012135939541    12.000000000000
         C            0.973778536874    -1.186235673676    -0.032213960459    12.000000000000
         C            0.900261236874     1.199751626324     0.560667939541    12.000000000000
         C            2.261332236874    -1.017199373676    -0.822220060459    12.000000000000
         C            2.178747236874     1.393579626324    -0.232224060459    12.000000000000
         C            2.968558536874     0.154383026324    -0.161784660459    12.000000000000
         C           -3.122540763126     1.428705626324    -0.493069060459    12.000000000000
         C           -3.534644763126     2.082272626324    -1.788302060459    12.000000000000
         H           -0.281419763126     0.295908626324    -0.974421060459     1.007825032230
         H            0.371941236874    -2.032256373676    -0.576215060459     1.007825032230
         H            1.158792236874     0.994984626324     1.607972939541     1.007825032230
         H            2.062606236874    -0.791552373676    -1.876939060459     1.007825032230
         H            1.918659236874     1.633394626324    -1.277766060459     1.007825032230
         H            3.297527236874    -0.097424373676     0.823462939541     1.007825032230
         H            0.523447236874    -1.890924373676     1.707326939541     1.007825032230
         H            0.667212236874     3.106418626324     0.679000939541     1.007825032230
         H            2.975215236874    -2.550266373676     0.090470939541     1.007825032230
         H            3.723101236874     2.546293626324    -0.063052060459     1.007825032230
         H            4.641399236874    -0.426726373676    -1.101270060459     1.007825032230
         H           -3.806722763126    -1.525230373676     1.730544939541     1.007825032230
         H           -3.928873763126     1.442648626324     0.245202939541     1.007825032230
         H           -2.228089763126     1.889987626324    -0.063279060459     1.007825032230
         H           -3.798848763126     3.127989626324    -1.606854060459     1.007825032230
         H           -2.715523763126     2.050430626324    -2.509058060459     1.007825032230
         H           -4.399271763126     1.571430626324    -2.216907060459     1.007825032230

  Basis Set: AUG-CC-PVTZ
    Blend: AUG-CC-PVTZ
  Basis Set: (AUG-CC-PVTZ AUX)
    Blend: AUG-CC-PVTZ-JKFIT
	 Reference Energy          =   -1327.8452622229581266 [Eh]
	 Singles Energy            =      -0.0000000000000000 [Eh]
	 Same-Spin Energy          =      -1.0160328981272191 [Eh]
	 Opposite-Spin Energy      =      -3.0785091203954376 [Eh]
	 Correlation Energy        =      -4.0945420185226569 [Eh]
	 Total Energy              =   -1331.9398042414807151 [Eh]

	 ================> DF-SCS-MP2 Energies <==================
	-----------------------------------------------------------
	 SCS Same-Spin Scale       =       0.3333333333333333 [-]
	 SCS Opposite-Spin Scale   =       1.2000000000000000 [-]
	 SCS Same-Spin Energy      =      -0.3386776327090730 [Eh]
	 SCS Opposite-Spin Energy  =      -3.6942109444745248 [Eh]
	 SCS Correlation Energy    =      -4.0328885771835976 [Eh]
	 SCS Total Energy          =   -1331.8781508001416114 [Eh]
	-----------------------------------------------------------

  Dipole Moment: [D]
     X:    -1.3132      Y:     1.8625      Z:     0.9399     Total:     2.4651

*** Psi4 exiting successfully. Buy a developer a beer!
