                               Psi4 1.3.2 release

  ==> Input File <==

--------------------------------------------------------------------------
#psi4
#
memory 32 gb

molecule  {
0 1
  P       -2.2900960    -0.9400430     0.3446780
  O       -0.9821530    -0.2015620     0.9382890
  O        1.3422500    -1.6754830     1.2308510
  O        0.0787050     2.3596040     0.4621680
  O        3.0685150    -2.1870720    -0.8085900
  O        2.8473350     2.5031130     0.3715350
  O        4.1956880     0.4353970    -0.9728740
  O       -2.8268630     0.0333510    -0.8075310
  O       -3.2591210    -0.7232820     1.6216710
  O       -2.1189930    -2.3436440    -0.0996680
  C        0.1181620     0.0300090     0.0163190
  C        0.9399885    -1.2398299    -0.0982565
  C        0.8985890     1.2026440     0.5648510
  C        2.2596600    -1.0143070    -0.8180370
  C        2.1770750     1.3964720    -0.2280410
  C        3.0258420     0.1487050    -0.2103220
  C       -3.1242130     1.4315980    -0.4888860
  C       -3.5363170     2.0851650    -1.7841190
  H       -0.2830920     0.2988010    -0.9702380
  H        0.3702690    -2.0293640    -0.5720320
  H        1.1571200     0.9978770     1.6121560
  H        2.0421627    -0.7903311    -1.8694030
  H        1.9169870     1.6362870    -1.2735830
  H        3.2958550    -0.0945320     0.8276460
  H        0.5217750    -1.8880320     1.7115100
  H        0.6655400     3.1093110     0.6831840
  H        2.9735430    -2.5473740     0.0946540
  H        3.7214290     2.5491860    -0.0588690
  H        4.6397270    -0.4238340    -1.0970870
  H       -3.8083950    -1.5223380     1.7347280
  H       -3.9305460     1.4455410     0.2493860
  H       -2.2297620     1.8928800    -0.0590960
  H       -3.8005210     3.1308820    -1.6026710
  H       -2.7171960     2.0533230    -2.5048750
  H       -4.4009440     1.5743230    -2.2127240
units angstrom
no_reorient  #important for SAPT in psi4, default
symmetry c1  #important for SAPT in psi4, default
}

set PROPERTIES_ORIGIN ["COM"]
properties('MP2/aug-cc-pvtz', properties = ['dipole'])
--------------------------------------------------------------------------

    Molecular point group: c1
  Charge       = 0
  Multiplicity = 1
  Basis Set: AUG-CC-PVTZ
    Blend: AUG-CC-PVTZ
  Basis Set: (AUG-CC-PVTZ AUX)
    Blend: AUG-CC-PVTZ-JKFIT

    Orbital Energies [Eh]
    ---------------------

    Doubly Occupied:

       1A    -80.117227     2A    -20.614905     3A    -20.607442
       4A    -20.599172     5A    -20.580181     6A    -20.576990
       7A    -20.575144     8A    -20.574322     9A    -20.573864
      10A    -20.523764    11A    -11.321554    12A    -11.303461
      13A    -11.300160    14A    -11.299570    15A    -11.299238
      16A    -11.296971    17A    -11.292024    18A    -11.230026
      19A     -7.632680    20A     -5.531186    21A     -5.530813
      22A     -5.529611    23A     -1.460503    24A     -1.408878
      25A     -1.394649    26A     -1.391203    27A     -1.387058
      28A     -1.370911    29A     -1.361920    30A     -1.353009
      31A     -1.304161    32A     -1.120309    33A     -1.040647
      34A     -1.013422    35A     -1.004714    36A     -0.880727
      37A     -0.865170    38A     -0.860304    39A     -0.822796
      40A     -0.809135    41A     -0.750925    42A     -0.744697
      43A     -0.732169    44A     -0.728593    45A     -0.708187
      46A     -0.687486    47A     -0.675716    48A     -0.673515
      49A     -0.662233    50A     -0.660914    51A     -0.643651
      52A     -0.635161    53A     -0.626804    54A     -0.614495
      55A     -0.603944    56A     -0.598565    57A     -0.582274
      58A     -0.575756    59A     -0.570216    60A     -0.559338
      61A     -0.556604    62A     -0.547638    63A     -0.541055
      64A     -0.536435    65A     -0.528296    66A     -0.521245
      67A     -0.513239    68A     -0.504024    69A     -0.497379
      70A     -0.485087    71A     -0.480254    72A     -0.476948
      73A     -0.463430    74A     -0.456128    75A     -0.451976
      76A     -0.438546

  @DF-RHF Final Energy: -1327.86011286610278

   => Energetics <=

    Nuclear Repulsion Energy =           1772.3478070969988494
    One-Electron Energy =               -5356.8303519935434451
    Two-Electron Energy =                2256.6224320304418143
    Total Energy =                      -1327.8601128661030089
  Basis Set: (AUG-CC-PVTZ AUX)
    Blend: AUG-CC-PVTZ-RI
    Molecular point group: c1

    Geometry (in Angstrom), charge = 0, multiplicity = 1:

       Center              X                  Y                   Z               Mass
    ------------   -----------------  -----------------  -----------------  -----------------
         P           -2.289476097853    -0.940219392948     0.345604873426    30.973761998420
         O           -0.981533097853    -0.201738392948     0.939215873426    15.994914619570
         O            1.342869902147    -1.675659392948     1.231777873426    15.994914619570
         O            0.079324902147     2.359427607052     0.463094873426    15.994914619570
         O            3.069134902147    -2.187248392948    -0.807663126574    15.994914619570
         O            2.847954902147     2.502936607052     0.372461873426    15.994914619570
         O            4.196307902147     0.435220607052    -0.971947126574    15.994914619570
         O           -2.826243097853     0.033174607052    -0.806604126574    15.994914619570
         O           -3.258501097853    -0.723458392948     1.622597873426    15.994914619570
         O           -2.118373097853    -2.343820392948    -0.098741126574    15.994914619570
         C            0.118781902147     0.029832607052     0.017245873426    12.000000000000
         C            0.940608402147    -1.240006292948    -0.097329626574    12.000000000000
         C            0.899208902147     1.202467607052     0.565777873426    12.000000000000
         C            2.260279902147    -1.014483392948    -0.817110126574    12.000000000000
         C            2.177694902147     1.396295607052    -0.227114126574    12.000000000000
         C            3.026461902147     0.148528607052    -0.209395126574    12.000000000000
         C           -3.123593097853     1.431421607052    -0.487959126574    12.000000000000
         C           -3.535697097853     2.084988607052    -1.783192126574    12.000000000000
         H           -0.282472097853     0.298624607052    -0.969311126574     1.007825032230
         H            0.370888902147    -2.029540392948    -0.571105126574     1.007825032230
         H            1.157739902147     0.997700607052     1.613082873426     1.007825032230
         H            2.042782602147    -0.790507492948    -1.868476126574     1.007825032230
         H            1.917606902147     1.636110607052    -1.272656126574     1.007825032230
         H            3.296474902147    -0.094708392948     0.828572873426     1.007825032230
         H            0.522394902147    -1.888208392948     1.712436873426     1.007825032230
         H            0.666159902147     3.109134607052     0.684110873426     1.007825032230
         H            2.974162902147    -2.547550392948     0.095580873426     1.007825032230
         H            3.722048902147     2.549009607052    -0.057942126574     1.007825032230
         H            4.640346902147    -0.424010392948    -1.096160126574     1.007825032230
         H           -3.807775097853    -1.522514392948     1.735654873426     1.007825032230
         H           -3.929926097853     1.445364607052     0.250312873426     1.007825032230
         H           -2.229142097853     1.892703607052    -0.058169126574     1.007825032230
         H           -3.799901097853     3.130705607052    -1.601744126574     1.007825032230
         H           -2.716576097853     2.053146607052    -2.503948126574     1.007825032230
         H           -4.400324097853     1.574146607052    -2.211797126574     1.007825032230

  Basis Set: AUG-CC-PVTZ
    Blend: AUG-CC-PVTZ
  Basis Set: (AUG-CC-PVTZ AUX)
    Blend: AUG-CC-PVTZ-JKFIT
	 Reference Energy          =   -1327.8601128661027815 [Eh]
	 Singles Energy            =      -0.0000000000000000 [Eh]
	 Same-Spin Energy          =      -1.0146722339288072 [Eh]
	 Opposite-Spin Energy      =      -3.0765525492561769 [Eh]
	 Correlation Energy        =      -4.0912247831849839 [Eh]
	 Total Energy              =   -1331.9513376492877796 [Eh]

	 ================> DF-SCS-MP2 Energies <==================
	-----------------------------------------------------------
	 SCS Same-Spin Scale       =       0.3333333333333333 [-]
	 SCS Opposite-Spin Scale   =       1.2000000000000000 [-]
	 SCS Same-Spin Energy      =      -0.3382240779762691 [Eh]
	 SCS Opposite-Spin Energy  =      -3.6918630591074120 [Eh]
	 SCS Correlation Energy    =      -4.0300871370836813 [Eh]
	 SCS Total Energy          =   -1331.8902000031864645 [Eh]
	-----------------------------------------------------------

  Dipole Moment: [D]
     X:    -1.1366      Y:     1.8907      Z:     0.6628     Total:     2.3034

*** Psi4 exiting successfully. Buy a developer a beer!
