                               Psi4 1.3.2 release

  ==> Input File <==

--------------------------------------------------------------------------
#psi4
#
memory 32 gb

molecule  {
0 1
  P       -2.2900960    -0.9400430     0.3446780
  O       -0.9821530    -0.2015620     0.9382890
  O        1.3422500    -1.6754830     1.2308510
  O        0.0787050     2.3596040     0.4621680
  O        3.0685150    -2.1870720    -0.8085900
  O        2.8473350     2.5031130     0.3715350
  O        4.2011998     0.4538196    -0.9570861
  O       -2.8268630     0.0333510    -0.8075310
  O       -3.2591210    -0.7232820     1.6216710
  O       -2.1189930    -2.3436440    -0.0996680
  C        0.1181620     0.0300090     0.0163190
  C        0.9532920    -1.2442050    -0.0757250
  C        0.8985890     1.2026440     0.5648510
  C        2.2415673    -1.0121548    -0.7987666
  C        2.1770750     1.3964720    -0.2280410
  C        3.0258420     0.1487050    -0.2103220
  C       -3.1242130     1.4315980    -0.4888860
  C       -3.5363170     2.0851650    -1.7841190
  H       -0.2830920     0.2988010    -0.9702380
  H        0.3702690    -2.0293640    -0.5720320
  H        1.1571200     0.9978770     1.6121560
  H        2.0609340    -0.7886600    -1.8727560
  H        1.9169870     1.6362870    -1.2735830
  H        3.2958550    -0.0945320     0.8276460
  H        0.5217750    -1.8880320     1.7115100
  H        0.6655400     3.1093110     0.6831840
  H        2.9735430    -2.5473740     0.0946540
  H        3.7214290     2.5491860    -0.0588690
  H        4.6397270    -0.4238340    -1.0970870
  H       -3.8083950    -1.5223380     1.7347280
  H       -3.9305460     1.4455410     0.2493860
  H       -2.2297620     1.8928800    -0.0590960
  H       -3.8005210     3.1308820    -1.6026710
  H       -2.7171960     2.0533230    -2.5048750
  H       -4.4009440     1.5743230    -2.2127240
units angstrom
no_reorient  #important for SAPT in psi4, default
symmetry c1  #important for SAPT in psi4, default
}

set PROPERTIES_ORIGIN ["COM"]
properties('MP2/aug-cc-pvtz', properties = ['dipole'])
--------------------------------------------------------------------------

    Molecular point group: c1
  Charge       = 0
  Multiplicity = 1
  Basis Set: AUG-CC-PVTZ
    Blend: AUG-CC-PVTZ
  Basis Set: (AUG-CC-PVTZ AUX)
    Blend: AUG-CC-PVTZ-JKFIT

    Orbital Energies [Eh]
    ---------------------

    Doubly Occupied:

       1A    -80.117313     2A    -20.615023     3A    -20.607568
       4A    -20.599213     5A    -20.583670     6A    -20.576775
       7A    -20.576159     8A    -20.574527     9A    -20.573475
      10A    -20.523847    11A    -11.321500    12A    -11.303996
      13A    -11.300442    14A    -11.299573    15A    -11.298654
      16A    -11.296174    17A    -11.291642    18A    -11.230001
      19A     -7.632764    20A     -5.531270    21A     -5.530897
      22A     -5.529695    23A     -1.460689    24A     -1.410846
      25A     -1.394371    26A     -1.392411    27A     -1.387016
      28A     -1.372220    29A     -1.362753    30A     -1.352015
      31A     -1.304235    32A     -1.121253    33A     -1.040636
      34A     -1.011907    35A     -1.006509    36A     -0.880922
      37A     -0.865288    38A     -0.857743    39A     -0.822145
      40A     -0.810212    41A     -0.752537    42A     -0.744961
      43A     -0.731859    44A     -0.728940    45A     -0.708282
      46A     -0.687212    47A     -0.677487    48A     -0.673701
      49A     -0.661536    50A     -0.657675    51A     -0.643653
      52A     -0.634563    53A     -0.627172    54A     -0.615335
      55A     -0.603309    56A     -0.597171    57A     -0.581826
      58A     -0.575570    59A     -0.571742    60A     -0.559243
      61A     -0.556092    62A     -0.548513    63A     -0.541218
      64A     -0.536183    65A     -0.530414    66A     -0.521965
      67A     -0.513462    68A     -0.505469    69A     -0.497457
      70A     -0.486113    71A     -0.480190    72A     -0.477026
      73A     -0.462945    74A     -0.454830    75A     -0.450768
      76A     -0.437759

  @DF-RHF Final Energy: -1327.85829174158903

   => Energetics <=

    Nuclear Repulsion Energy =           1772.7591397126227548
    One-Electron Energy =               -5357.6318125786265227
    Two-Electron Energy =                2257.0143811244147400
    Total Energy =                      -1327.8582917415892553
  Basis Set: (AUG-CC-PVTZ AUX)
    Blend: AUG-CC-PVTZ-RI
    Molecular point group: c1

    Geometry (in Angstrom), charge = 0, multiplicity = 1:

       Center              X                  Y                   Z               Mass
    ------------   -----------------  -----------------  -----------------  -----------------
         P           -2.289648313297    -0.941155574078     0.342998586476    30.973761998420
         O           -0.981705313297    -0.202674574078     0.936609586476    15.994914619570
         O            1.342697686703    -1.676595574078     1.229171586476    15.994914619570
         O            0.079152686703     2.358491425922     0.460488586476    15.994914619570
         O            3.068962686703    -2.188184574078    -0.810269413524    15.994914619570
         O            2.847782686703     2.502000425922     0.369855586476    15.994914619570
         O            4.201647486703     0.452707025922    -0.958765513524    15.994914619570
         O           -2.826415313297     0.032238425922    -0.809210413524    15.994914619570
         O           -3.258673313297    -0.724394574078     1.619991586476    15.994914619570
         O           -2.118545313297    -2.344756574078    -0.101347413524    15.994914619570
         C            0.118609686703     0.028896425922     0.014639586476    12.000000000000
         C            0.953739686703    -1.245317574078    -0.077404413524    12.000000000000
         C            0.899036686703     1.201531425922     0.563171586476    12.000000000000
         C            2.242014986703    -1.013267374078    -0.800446013524    12.000000000000
         C            2.177522686703     1.395359425922    -0.229720413524    12.000000000000
         C            3.026289686703     0.147592425922    -0.212001413524    12.000000000000
         C           -3.123765313297     1.430485425922    -0.490565413524    12.000000000000
         C           -3.535869313297     2.084052425922    -1.785798413524    12.000000000000
         H           -0.282644313297     0.297688425922    -0.971917413524     1.007825032230
         H            0.370716686703    -2.030476574078    -0.573711413524     1.007825032230
         H            1.157567686703     0.996764425922     1.610476586476     1.007825032230
         H            2.061381686703    -0.789772574078    -1.874435413524     1.007825032230
         H            1.917434686703     1.635174425922    -1.275262413524     1.007825032230
         H            3.296302686703    -0.095644574078     0.825966586476     1.007825032230
         H            0.522222686703    -1.889144574078     1.709830586476     1.007825032230
         H            0.665987686703     3.108198425922     0.681504586476     1.007825032230
         H            2.973990686703    -2.548486574078     0.092974586476     1.007825032230
         H            3.721876686703     2.548073425922    -0.060548413524     1.007825032230
         H            4.640174686703    -0.424946574078    -1.098766413524     1.007825032230
         H           -3.807947313297    -1.523450574078     1.733048586476     1.007825032230
         H           -3.930098313297     1.444428425922     0.247706586476     1.007825032230
         H           -2.229314313297     1.891767425922    -0.060775413524     1.007825032230
         H           -3.800073313297     3.129769425922    -1.604350413524     1.007825032230
         H           -2.716748313297     2.052210425922    -2.506554413524     1.007825032230
         H           -4.400496313297     1.573210425922    -2.214403413524     1.007825032230

  Basis Set: AUG-CC-PVTZ
    Blend: AUG-CC-PVTZ
  Basis Set: (AUG-CC-PVTZ AUX)
    Blend: AUG-CC-PVTZ-JKFIT
	 Reference Energy          =   -1327.8582917415890279 [Eh]
	 Singles Energy            =      -0.0000000000000000 [Eh]
	 Same-Spin Energy          =      -1.0151711997135899 [Eh]
	 Opposite-Spin Energy      =      -3.0772783513774016 [Eh]
	 Correlation Energy        =      -4.0924495510909917 [Eh]
	 Total Energy              =   -1331.9507412926800498 [Eh]

	 ================> DF-SCS-MP2 Energies <==================
	-----------------------------------------------------------
	 SCS Same-Spin Scale       =       0.3333333333333333 [-]
	 SCS Opposite-Spin Scale   =       1.2000000000000000 [-]
	 SCS Same-Spin Energy      =      -0.3383903999045300 [Eh]
	 SCS Opposite-Spin Energy  =      -3.6927340216528819 [Eh]
	 SCS Correlation Energy    =      -4.0311244215574122 [Eh]
	 SCS Total Energy          =   -1331.8894161631465067 [Eh]
	-----------------------------------------------------------

  Dipole Moment: [D]
     X:    -1.1644      Y:     1.8459      Z:     0.7055     Total:     2.2936

*** Psi4 exiting successfully. Buy a developer a beer!
