                               Psi4 1.3.2 release

  ==> Input File <==

--------------------------------------------------------------------------
#psi4
#
memory 32 gb

molecule  {
0 1
  P       -2.2900960    -0.9400430     0.3446780
  O       -0.9821530    -0.2015620     0.9382890
  O        1.3422500    -1.6754830     1.2308510
  O        0.0787050     2.3596040     0.4621680
  O        3.0685150    -2.1870720    -0.8085900
  O        2.8473350     2.5031130     0.3715350
  O        4.1956880     0.4353970    -0.9728740
  O       -2.8268630     0.0333510    -0.8075310
  O       -3.2591210    -0.7232820     1.6216710
  O       -2.1189930    -2.3436440    -0.0996680
  C        0.1181620     0.0300090     0.0163190
  C        0.9532920    -1.2442050    -0.0757250
  C        0.8985890     1.2026440     0.5648510
  C        2.2378884    -1.0708720    -0.8696049
  C        2.1770750     1.3964720    -0.2280410
  C        3.0258420     0.1487050    -0.2103220
  C       -3.1242130     1.4315980    -0.4888860
  C       -3.5363170     2.0851650    -1.7841190
  H       -0.2830920     0.2988010    -0.9702380
  H        0.4124208    -2.0341053    -0.6107268
  H        1.1571200     0.9978770     1.6121560
  H        2.0609340    -0.7886600    -1.8727560
  H        1.9169870     1.6362870    -1.2735830
  H        3.2958550    -0.0945320     0.8276460
  H        0.5217750    -1.8880320     1.7115100
  H        0.6655400     3.1093110     0.6831840
  H        2.9735430    -2.5473740     0.0946540
  H        3.7214290     2.5491860    -0.0588690
  H        4.6397270    -0.4238340    -1.0970870
  H       -3.8083950    -1.5223380     1.7347280
  H       -3.9305460     1.4455410     0.2493860
  H       -2.2297620     1.8928800    -0.0590960
  H       -3.8005210     3.1308820    -1.6026710
  H       -2.7171960     2.0533230    -2.5048750
  H       -4.4009440     1.5743230    -2.2127240
units angstrom
no_reorient  #important for SAPT in psi4, default
symmetry c1  #important for SAPT in psi4, default
}

set PROPERTIES_ORIGIN ["COM"]
properties('MP2/aug-cc-pvtz', properties = ['dipole'])
--------------------------------------------------------------------------

    Molecular point group: c1
  Charge       = 0
  Multiplicity = 1
  Basis Set: AUG-CC-PVTZ
    Blend: AUG-CC-PVTZ
  Basis Set: (AUG-CC-PVTZ AUX)
    Blend: AUG-CC-PVTZ-JKFIT

    Orbital Energies [Eh]
    ---------------------

    Doubly Occupied:

       1A    -80.116398     2A    -20.614344     3A    -20.606819
       4A    -20.598582     5A    -20.584579     6A    -20.577716
       7A    -20.575167     8A    -20.572638     9A    -20.571628
      10A    -20.522569    11A    -11.321568    12A    -11.302749
      13A    -11.299081    14A    -11.298834    15A    -11.297706
      16A    -11.294445    17A    -11.289831    18A    -11.229651
      19A     -7.631847    20A     -5.530352    21A     -5.529983
      22A     -5.528772    23A     -1.459904    24A     -1.412472
      25A     -1.396231    26A     -1.393046    27A     -1.386589
      28A     -1.371812    29A     -1.367665    30A     -1.354070
      31A     -1.302926    32A     -1.113850    33A     -1.040097
      34A     -1.006656    35A     -1.001981    36A     -0.877468
      37A     -0.864171    38A     -0.860484    39A     -0.822582
      40A     -0.811974    41A     -0.751560    42A     -0.742910
      43A     -0.730090    44A     -0.728205    45A     -0.706962
      46A     -0.686142    47A     -0.683430    48A     -0.672428
      49A     -0.662050    50A     -0.659955    51A     -0.642424
      52A     -0.634703    53A     -0.628631    54A     -0.616596
      55A     -0.604872    56A     -0.600423    57A     -0.581883
      58A     -0.575647    59A     -0.570202    60A     -0.559256
      61A     -0.557209    62A     -0.548171    63A     -0.541702
      64A     -0.540849    65A     -0.531186    66A     -0.521178
      67A     -0.512664    68A     -0.503831    69A     -0.496176
      70A     -0.485911    71A     -0.479497    72A     -0.475837
      73A     -0.462128    74A     -0.453813    75A     -0.450562
      76A     -0.416973

  @DF-RHF Final Energy: -1327.85598175723885

   => Energetics <=

    Nuclear Repulsion Energy =           1771.3055139180337392
    One-Electron Energy =               -5354.8124014912345956
    Two-Electron Energy =                2255.6509058159617780
    Total Energy =                      -1327.8559817572390784
  Basis Set: (AUG-CC-PVTZ AUX)
    Blend: AUG-CC-PVTZ-RI
    Molecular point group: c1

    Geometry (in Angstrom), charge = 0, multiplicity = 1:

       Center              X                  Y                   Z               Mass
    ------------   -----------------  -----------------  -----------------  -----------------
         P           -2.289336483771    -0.937670018421     0.346961577734    30.973761998420
         O           -0.981393483771    -0.199189018421     0.940572577734    15.994914619570
         O            1.343009516229    -1.673110018421     1.233134577734    15.994914619570
         O            0.079464516229     2.361976981579     0.464451577734    15.994914619570
         O            3.069274516229    -2.184699018421    -0.806306422266    15.994914619570
         O            2.848094516229     2.505485981579     0.373818577734    15.994914619570
         O            4.196447516229     0.437769981579    -0.970590422266    15.994914619570
         O           -2.826103483771     0.035723981579    -0.805247422266    15.994914619570
         O           -3.258361483771    -0.720909018421     1.623954577734    15.994914619570
         O           -2.118233483771    -2.341271018421    -0.097384422266    15.994914619570
         C            0.118921516229     0.032381981579     0.018602577734    12.000000000000
         C            0.954051516229    -1.241832018421    -0.073441422266    12.000000000000
         C            0.899348516229     1.205016981579     0.567134577734    12.000000000000
         C            2.238647916229    -1.068499018421    -0.867321322266    12.000000000000
         C            2.177834516229     1.398844981579    -0.225757422266    12.000000000000
         C            3.026601516229     0.151077981579    -0.208038422266    12.000000000000
         C           -3.123453483771     1.433970981579    -0.486602422266    12.000000000000
         C           -3.535557483771     2.087537981579    -1.781835422266    12.000000000000
         H           -0.282332483771     0.301173981579    -0.967954422266     1.007825032230
         H            0.413180316229    -2.031732318421    -0.608443222266     1.007825032230
         H            1.157879516229     1.000249981579     1.614439577734     1.007825032230
         H            2.061693516229    -0.786287018421    -1.870472422266     1.007825032230
         H            1.917746516229     1.638659981579    -1.271299422266     1.007825032230
         H            3.296614516229    -0.092159018421     0.829929577734     1.007825032230
         H            0.522534516229    -1.885659018421     1.713793577734     1.007825032230
         H            0.666299516229     3.111683981579     0.685467577734     1.007825032230
         H            2.974302516229    -2.545001018421     0.096937577734     1.007825032230
         H            3.722188516229     2.551558981579    -0.056585422266     1.007825032230
         H            4.640486516229    -0.421461018421    -1.094803422266     1.007825032230
         H           -3.807635483771    -1.519965018421     1.737011577734     1.007825032230
         H           -3.929786483771     1.447913981579     0.251669577734     1.007825032230
         H           -2.229002483771     1.895252981579    -0.056812422266     1.007825032230
         H           -3.799761483771     3.133254981579    -1.600387422266     1.007825032230
         H           -2.716436483771     2.055695981579    -2.502591422266     1.007825032230
         H           -4.400184483771     1.576695981579    -2.210440422266     1.007825032230

  Basis Set: AUG-CC-PVTZ
    Blend: AUG-CC-PVTZ
  Basis Set: (AUG-CC-PVTZ AUX)
    Blend: AUG-CC-PVTZ-JKFIT
	 Reference Energy          =   -1327.8559817572388511 [Eh]
	 Singles Energy            =      -0.0000000000000000 [Eh]
	 Same-Spin Energy          =      -1.0142997474472670 [Eh]
	 Opposite-Spin Energy      =      -3.0755457232328558 [Eh]
	 Correlation Energy        =      -4.0898454706801228 [Eh]
	 Total Energy              =   -1331.9458272279189259 [Eh]

	 ================> DF-SCS-MP2 Energies <==================
	-----------------------------------------------------------
	 SCS Same-Spin Scale       =       0.3333333333333333 [-]
	 SCS Opposite-Spin Scale   =       1.2000000000000000 [-]
	 SCS Same-Spin Energy      =      -0.3380999158157557 [Eh]
	 SCS Opposite-Spin Energy  =      -3.6906548678794269 [Eh]
	 SCS Correlation Energy    =      -4.0287547836951827 [Eh]
	 SCS Total Energy          =   -1331.8847365409340000 [Eh]
	-----------------------------------------------------------

  Dipole Moment: [D]
     X:    -1.0592      Y:     1.6982      Z:     0.6508     Total:     2.1046

*** Psi4 exiting successfully. Buy a developer a beer!
