                               Psi4 1.3.2 release

  ==> Input File <==

--------------------------------------------------------------------------
#psi4
#
memory 32 gb

molecule  {
0 1
  P       -2.2900960    -0.9400430     0.3446780
  O       -0.9821530    -0.2015620     0.9382890
  O        1.3422500    -1.6754830     1.2308510
  O        0.0807927     2.3643990     0.5115168
  O        3.0685150    -2.1870720    -0.8085900
  O        2.8473350     2.5031130     0.3715350
  O        4.1956880     0.4353970    -0.9728740
  O       -2.8268630     0.0333510    -0.8075310
  O       -3.2591210    -0.7232820     1.6216710
  O       -2.1189930    -2.3436440    -0.0996680
  C        0.1181620     0.0300090     0.0163190
  C        0.9532920    -1.2442050    -0.0757250
  C        0.8985890     1.2026440     0.5648510
  C        2.2596600    -1.0143070    -0.8180370
  C        2.1770750     1.3964720    -0.2280410
  C        3.0258420     0.1487050    -0.2103220
  C       -3.1242130     1.4315980    -0.4888860
  C       -3.5363170     2.0851650    -1.7841190
  H       -0.2830920     0.2988010    -0.9702380
  H        0.3702690    -2.0293640    -0.5720320
  H        1.1367528     1.0286511     1.6224994
  H        2.0609340    -0.7886600    -1.8727560
  H        1.9169870     1.6362870    -1.2735830
  H        3.2958550    -0.0945320     0.8276460
  H        0.5217750    -1.8880320     1.7115100
  H        0.6655400     3.1093110     0.6831840
  H        2.9735430    -2.5473740     0.0946540
  H        3.7214290     2.5491860    -0.0588690
  H        4.6397270    -0.4238340    -1.0970870
  H       -3.8083950    -1.5223380     1.7347280
  H       -3.9305460     1.4455410     0.2493860
  H       -2.2297620     1.8928800    -0.0590960
  H       -3.8005210     3.1308820    -1.6026710
  H       -2.7171960     2.0533230    -2.5048750
  H       -4.4009440     1.5743230    -2.2127240
units angstrom
no_reorient  #important for SAPT in psi4, default
symmetry c1  #important for SAPT in psi4, default
}

set PROPERTIES_ORIGIN ["COM"]
properties('MP2/aug-cc-pvtz', properties = ['dipole'])
--------------------------------------------------------------------------

    Molecular point group: c1
  Charge       = 0
  Multiplicity = 1
  Basis Set: AUG-CC-PVTZ
    Blend: AUG-CC-PVTZ
  Basis Set: (AUG-CC-PVTZ AUX)
    Blend: AUG-CC-PVTZ-JKFIT

    Orbital Energies [Eh]
    ---------------------

    Doubly Occupied:

       1A    -80.117053     2A    -20.614775     3A    -20.607177
       4A    -20.599126     5A    -20.583126     6A    -20.577069
       7A    -20.574898     8A    -20.574494     9A    -20.570111
      10A    -20.523559    11A    -11.321636    12A    -11.304037
      13A    -11.299745    14A    -11.299612    15A    -11.298533
      16A    -11.297762    17A    -11.292028    18A    -11.230092
      19A     -7.632506    20A     -5.531011    21A     -5.530640
      22A     -5.529438    23A     -1.460405    24A     -1.411029
      25A     -1.394984    26A     -1.393423    27A     -1.387019
      28A     -1.373245    29A     -1.364600    30A     -1.354321
      31A     -1.303963    32A     -1.119583    33A     -1.040681
      34A     -1.012521    35A     -1.003929    36A     -0.880448
      37A     -0.865138    38A     -0.860165    39A     -0.822470
      40A     -0.810983    41A     -0.751614    42A     -0.745915
      43A     -0.732917    44A     -0.728697    45A     -0.708020
      46A     -0.686841    47A     -0.678331    48A     -0.673909
      49A     -0.662409    50A     -0.661546    51A     -0.643394
      52A     -0.637293    53A     -0.627467    54A     -0.615765
      55A     -0.603186    56A     -0.598772    57A     -0.581987
      58A     -0.575667    59A     -0.571116    60A     -0.559621
      61A     -0.557043    62A     -0.548572    63A     -0.541442
      64A     -0.536897    65A     -0.530277    66A     -0.521353
      67A     -0.513142    68A     -0.503926    69A     -0.497136
      70A     -0.484154    71A     -0.480127    72A     -0.476766
      73A     -0.462533    74A     -0.456779    75A     -0.449600
      76A     -0.436655

  @DF-RHF Final Energy: -1327.86200963601550

   => Energetics <=

    Nuclear Repulsion Energy =           1772.0375610990204223
    One-Electron Energy =               -5356.1827294200838878
    Two-Electron Energy =                2256.2831586850479653
    Total Energy =                      -1327.8620096360155003
  Basis Set: (AUG-CC-PVTZ AUX)
    Blend: AUG-CC-PVTZ-RI
    Molecular point group: c1

    Geometry (in Angstrom), charge = 0, multiplicity = 1:

       Center              X                  Y                   Z               Mass
    ------------   -----------------  -----------------  -----------------  -----------------
         P           -2.290140631346    -0.940416897978     0.341901654761    30.973761998420
         O           -0.982197631346    -0.201935897978     0.935512654761    15.994914619570
         O            1.342205368654    -1.675856897978     1.228074654761    15.994914619570
         O            0.080748068654     2.364025102022     0.508740454761    15.994914619570
         O            3.068470368654    -2.187445897978    -0.811366345239    15.994914619570
         O            2.847290368654     2.502739102022     0.368758654761    15.994914619570
         O            4.195643368654     0.435023102022    -0.975650345239    15.994914619570
         O           -2.826907631346     0.032977102022    -0.810307345239    15.994914619570
         O           -3.259165631346    -0.723655897978     1.618894654761    15.994914619570
         O           -2.119037631346    -2.344017897978    -0.102444345239    15.994914619570
         C            0.118117368654     0.029635102022     0.013542654761    12.000000000000
         C            0.953247368654    -1.244578897978    -0.078501345239    12.000000000000
         C            0.898544368654     1.202270102022     0.562074654761    12.000000000000
         C            2.259615368654    -1.014680897978    -0.820813345239    12.000000000000
         C            2.177030368654     1.396098102022    -0.230817345239    12.000000000000
         C            3.025797368654     0.148331102022    -0.213098345239    12.000000000000
         C           -3.124257631346     1.431224102022    -0.491662345239    12.000000000000
         C           -3.536361631346     2.084791102022    -1.786895345239    12.000000000000
         H           -0.283136631346     0.298427102022    -0.973014345239     1.007825032230
         H            0.370224368654    -2.029737897978    -0.574808345239     1.007825032230
         H            1.136708168654     1.028277202022     1.619723054761     1.007825032230
         H            2.060889368654    -0.789033897978    -1.875532345239     1.007825032230
         H            1.916942368654     1.635913102022    -1.276359345239     1.007825032230
         H            3.295810368654    -0.094905897978     0.824869654761     1.007825032230
         H            0.521730368654    -1.888405897978     1.708733654761     1.007825032230
         H            0.665495368654     3.108937102022     0.680407654761     1.007825032230
         H            2.973498368654    -2.547747897978     0.091877654761     1.007825032230
         H            3.721384368654     2.548812102022    -0.061645345239     1.007825032230
         H            4.639682368654    -0.424207897978    -1.099863345239     1.007825032230
         H           -3.808439631346    -1.522711897978     1.731951654761     1.007825032230
         H           -3.930590631346     1.445167102022     0.246609654761     1.007825032230
         H           -2.229806631346     1.892506102022    -0.061872345239     1.007825032230
         H           -3.800565631346     3.130508102022    -1.605447345239     1.007825032230
         H           -2.717240631346     2.052949102022    -2.507651345239     1.007825032230
         H           -4.400988631346     1.573949102022    -2.215500345239     1.007825032230

  Basis Set: AUG-CC-PVTZ
    Blend: AUG-CC-PVTZ
  Basis Set: (AUG-CC-PVTZ AUX)
    Blend: AUG-CC-PVTZ-JKFIT
	 Reference Energy          =   -1327.8620096360155003 [Eh]
	 Singles Energy            =      -0.0000000000000000 [Eh]
	 Same-Spin Energy          =      -1.0142725117294924 [Eh]
	 Opposite-Spin Energy      =      -3.0754138763403152 [Eh]
	 Correlation Energy        =      -4.0896863880698078 [Eh]
	 Total Energy              =   -1331.9516960240853223 [Eh]

	 ================> DF-SCS-MP2 Energies <==================
	-----------------------------------------------------------
	 SCS Same-Spin Scale       =       0.3333333333333333 [-]
	 SCS Opposite-Spin Scale   =       1.2000000000000000 [-]
	 SCS Same-Spin Energy      =      -0.3380908372431641 [Eh]
	 SCS Opposite-Spin Energy  =      -3.6904966516083779 [Eh]
	 SCS Correlation Energy    =      -4.0285874888515423 [Eh]
	 SCS Total Energy          =   -1331.8905971248670994 [Eh]
	-----------------------------------------------------------

  Dipole Moment: [D]
     X:    -1.0991      Y:     1.8363      Z:     0.6267     Total:     2.2300

*** Psi4 exiting successfully. Buy a developer a beer!
