                               Psi4 1.3.2 release

  ==> Input File <==

--------------------------------------------------------------------------
#psi4
#
memory 32 gb

molecule  {
0 1
  P       -2.2900960    -0.9400430     0.3446780
  O       -0.9821530    -0.2015620     0.9382890
  O        1.3422500    -1.6754830     1.2308510
  O        0.0787050     2.3596040     0.4621680
  O        3.0685150    -2.1870720    -0.8085900
  O        2.8473350     2.5031130     0.3715350
  O        4.1956880     0.4353970    -0.9728740
  O       -2.8268630     0.0333510    -0.8075310
  O       -3.2591210    -0.7232820     1.6216710
  O       -2.1189930    -2.3436440    -0.0996680
  C        0.1181620     0.0300090     0.0163190
  C        0.9532920    -1.2442050    -0.0757250
  C        0.8985890     1.2026440     0.5648510
  C        2.2700869    -1.0222163    -0.8159017
  C        2.1868993     1.4031658    -0.2223729
  C        3.0258420     0.1487050    -0.2103220
  C       -3.1242130     1.4315980    -0.4888860
  C       -3.5363170     2.0851650    -1.7841190
  H       -0.2830920     0.2988010    -0.9702380
  H        0.3702690    -2.0293640    -0.5720320
  H        1.1571200     0.9978770     1.6121560
  H        2.0609340    -0.7886600    -1.8727560
  H        1.9169870     1.6362870    -1.2735830
  H        3.2958550    -0.0945320     0.8276460
  H        0.5217750    -1.8880320     1.7115100
  H        0.6655400     3.1093110     0.6831840
  H        2.9735430    -2.5473740     0.0946540
  H        3.7214290     2.5491860    -0.0588690
  H        4.6397270    -0.4238340    -1.0970870
  H       -3.8083950    -1.5223380     1.7347280
  H       -3.9305460     1.4455410     0.2493860
  H       -2.2297620     1.8928800    -0.0590960
  H       -3.8005210     3.1308820    -1.6026710
  H       -2.7171960     2.0533230    -2.5048750
  H       -4.4009440     1.5743230    -2.2127240
units angstrom
no_reorient  #important for SAPT in psi4, default
symmetry c1  #important for SAPT in psi4, default
}

set PROPERTIES_ORIGIN ["COM"]
properties('MP2/aug-cc-pvtz', properties = ['dipole'])
--------------------------------------------------------------------------

    Molecular point group: c1
  Charge       = 0
  Multiplicity = 1
  Basis Set: AUG-CC-PVTZ
    Blend: AUG-CC-PVTZ
  Basis Set: (AUG-CC-PVTZ AUX)
    Blend: AUG-CC-PVTZ-JKFIT

    Orbital Energies [Eh]
    ---------------------

    Doubly Occupied:

       1A    -80.116760     2A    -20.614579     3A    -20.606852
       4A    -20.598740     5A    -20.582691     6A    -20.578325
       7A    -20.576041     8A    -20.573647     9A    -20.573153
      10A    -20.523235    11A    -11.320454    12A    -11.303076
      13A    -11.299485    14A    -11.299205    15A    -11.298267
      16A    -11.296836    17A    -11.290672    18A    -11.229700
      19A     -7.632209    20A     -5.530715    21A     -5.530343
      22A     -5.529140    23A     -1.460086    24A     -1.411938
      25A     -1.396471    26A     -1.394626    27A     -1.386732
      28A     -1.372586    29A     -1.366362    30A     -1.356100
      31A     -1.303633    32A     -1.116884    33A     -1.040275
      34A     -1.011403    35A     -1.001480    36A     -0.879834
      37A     -0.864693    38A     -0.859286    39A     -0.822342
      40A     -0.809896    41A     -0.752004    42A     -0.745626
      43A     -0.731135    44A     -0.728513    45A     -0.708736
      46A     -0.686941    47A     -0.678936    48A     -0.673578
      49A     -0.663080    50A     -0.661723    51A     -0.643851
      52A     -0.634728    53A     -0.627902    54A     -0.615853
      55A     -0.604237    56A     -0.599161    57A     -0.581688
      58A     -0.575419    59A     -0.571042    60A     -0.560260
      61A     -0.556647    62A     -0.548349    63A     -0.541270
      64A     -0.537649    65A     -0.529084    66A     -0.521327
      67A     -0.512987    68A     -0.503527    69A     -0.496661
      70A     -0.484171    71A     -0.479620    72A     -0.476397
      73A     -0.460971    74A     -0.454943    75A     -0.448982
      76A     -0.435583

  @DF-RHF Final Energy: -1327.86156000816891

   => Energetics <=

    Nuclear Repulsion Energy =           1772.2629578677979225
    One-Electron Energy =               -5356.6663624556858849
    Two-Electron Energy =                2256.5418445797190543
    Total Energy =                      -1327.8615600081689081
  Basis Set: (AUG-CC-PVTZ AUX)
    Blend: AUG-CC-PVTZ-RI
    Molecular point group: c1

    Geometry (in Angstrom), charge = 0, multiplicity = 1:

       Center              X                  Y                   Z               Mass
    ------------   -----------------  -----------------  -----------------  -----------------
         P           -2.290939588426    -0.939992347221     0.344352917977    30.973761998420
         O           -0.982996588426    -0.201511347221     0.937963917977    15.994914619570
         O            1.341406411574    -1.675432347221     1.230525917977    15.994914619570
         O            0.077861411574     2.359654652779     0.461842917977    15.994914619570
         O            3.067671411574    -2.187021347221    -0.808915082023    15.994914619570
         O            2.846491411574     2.503163652779     0.371209917977    15.994914619570
         O            4.194844411574     0.435447652779    -0.973199082023    15.994914619570
         O           -2.827706588426     0.033401652779    -0.807856082023    15.994914619570
         O           -3.259964588426    -0.723231347221     1.621345917977    15.994914619570
         O           -2.119836588426    -2.343593347221    -0.099993082023    15.994914619570
         C            0.117318411574     0.030059652779     0.015993917977    12.000000000000
         C            0.952448411574    -1.244154347221    -0.076050082023    12.000000000000
         C            0.897745411574     1.202694652779     0.564525917977    12.000000000000
         C            2.269243311574    -1.022165647221    -0.816226782023    12.000000000000
         C            2.186055711574     1.403216452779    -0.222697982023    12.000000000000
         C            3.024998411574     0.148755652779    -0.210647082023    12.000000000000
         C           -3.125056588426     1.431648652779    -0.489211082023    12.000000000000
         C           -3.537160588426     2.085215652779    -1.784444082023    12.000000000000
         H           -0.283935588426     0.298851652779    -0.970563082023     1.007825032230
         H            0.369425411574    -2.029313347221    -0.572357082023     1.007825032230
         H            1.156276411574     0.997927652779     1.611830917977     1.007825032230
         H            2.060090411574    -0.788609347221    -1.873081082023     1.007825032230
         H            1.916143411574     1.636337652779    -1.273908082023     1.007825032230
         H            3.295011411574    -0.094481347221     0.827320917977     1.007825032230
         H            0.520931411574    -1.887981347221     1.711184917977     1.007825032230
         H            0.664696411574     3.109361652779     0.682858917977     1.007825032230
         H            2.972699411574    -2.547323347221     0.094328917977     1.007825032230
         H            3.720585411574     2.549236652779    -0.059194082023     1.007825032230
         H            4.638883411574    -0.423783347221    -1.097412082023     1.007825032230
         H           -3.809238588426    -1.522287347221     1.734402917977     1.007825032230
         H           -3.931389588426     1.445591652779     0.249060917977     1.007825032230
         H           -2.230605588426     1.892930652779    -0.059421082023     1.007825032230
         H           -3.801364588426     3.130932652779    -1.602996082023     1.007825032230
         H           -2.718039588426     2.053373652779    -2.505200082023     1.007825032230
         H           -4.401787588426     1.574373652779    -2.213049082023     1.007825032230

  Basis Set: AUG-CC-PVTZ
    Blend: AUG-CC-PVTZ
  Basis Set: (AUG-CC-PVTZ AUX)
    Blend: AUG-CC-PVTZ-JKFIT
	 Reference Energy          =   -1327.8615600081689081 [Eh]
	 Singles Energy            =      -0.0000000000000000 [Eh]
	 Same-Spin Energy          =      -1.0145193166488722 [Eh]
	 Opposite-Spin Energy      =      -3.0757211540042846 [Eh]
	 Correlation Energy        =      -4.0902404706531570 [Eh]
	 Total Energy              =   -1331.9518004788219514 [Eh]

	 ================> DF-SCS-MP2 Energies <==================
	-----------------------------------------------------------
	 SCS Same-Spin Scale       =       0.3333333333333333 [-]
	 SCS Opposite-Spin Scale   =       1.2000000000000000 [-]
	 SCS Same-Spin Energy      =      -0.3381731055496240 [Eh]
	 SCS Opposite-Spin Energy  =      -3.6908653848051411 [Eh]
	 SCS Correlation Energy    =      -4.0290384903547656 [Eh]
	 SCS Total Energy          =   -1331.8905984985237865 [Eh]
	-----------------------------------------------------------

  Dipole Moment: [D]
     X:    -1.0605      Y:     1.8611      Z:     0.7396     Total:     2.2661

*** Psi4 exiting successfully. Buy a developer a beer!
