                               Psi4 1.3.2 release

  ==> Input File <==

--------------------------------------------------------------------------
#psi4
#
memory 32 gb

molecule  {
0 1
  P       -2.2900960    -0.9400430     0.3446780
  O       -0.9821530    -0.2015620     0.9382890
  O        1.3422500    -1.6754830     1.2308510
  O        0.0787050     2.3596040     0.4621680
  O        3.0685150    -2.1870720    -0.8085900
  O        2.8473350     2.5031130     0.3715350
  O        4.1956880     0.4353970    -0.9728740
  O       -2.8268630     0.0333510    -0.8075310
  O       -3.2591210    -0.7232820     1.6216710
  O       -2.1189930    -2.3436440    -0.0996680
  C        0.1181620     0.0300090     0.0163190
  C        0.9532920    -1.2442050    -0.0757250
  C        0.8929566     1.2163163     0.5430018
  C        2.2596600    -1.0143070    -0.8180370
  C        2.1770750     1.3964720    -0.2280410
  C        3.0258420     0.1487050    -0.2103220
  C       -3.1242130     1.4315980    -0.4888860
  C       -3.5363170     2.0851650    -1.7841190
  H       -0.2749707     0.3160934    -0.9686435
  H        0.3702690    -2.0293640    -0.5720320
  H        1.1571200     0.9978770     1.6121560
  H        2.0609340    -0.7886600    -1.8727560
  H        1.9169870     1.6362870    -1.2735830
  H        3.2958550    -0.0945320     0.8276460
  H        0.5217750    -1.8880320     1.7115100
  H        0.6655400     3.1093110     0.6831840
  H        2.9735430    -2.5473740     0.0946540
  H        3.7214290     2.5491860    -0.0588690
  H        4.6397270    -0.4238340    -1.0970870
  H       -3.8083950    -1.5223380     1.7347280
  H       -3.9305460     1.4455410     0.2493860
  H       -2.2297620     1.8928800    -0.0590960
  H       -3.8005210     3.1308820    -1.6026710
  H       -2.7171960     2.0533230    -2.5048750
  H       -4.4009440     1.5743230    -2.2127240
units angstrom
no_reorient  #important for SAPT in psi4, default
symmetry c1  #important for SAPT in psi4, default
}

set PROPERTIES_ORIGIN ["COM"]
properties('MP2/aug-cc-pvtz', properties = ['dipole'])
--------------------------------------------------------------------------

    Molecular point group: c1
  Charge       = 0
  Multiplicity = 1
  Basis Set: AUG-CC-PVTZ
    Blend: AUG-CC-PVTZ
  Basis Set: (AUG-CC-PVTZ AUX)
    Blend: AUG-CC-PVTZ-JKFIT

    Orbital Energies [Eh]
    ---------------------

    Doubly Occupied:

       1A    -80.117026     2A    -20.614796     3A    -20.607409
       4A    -20.598939     5A    -20.582883     6A    -20.576960
       7A    -20.575290     8A    -20.574528     9A    -20.574213
      10A    -20.523413    11A    -11.320539    12A    -11.303797
      13A    -11.299632    14A    -11.299289    15A    -11.299142
      16A    -11.296301    17A    -11.291711    18A    -11.230051
      19A     -7.632467    20A     -5.530971    21A     -5.530604
      22A     -5.529397    23A     -1.460342    24A     -1.411468
      25A     -1.395680    26A     -1.394293    27A     -1.386962
      28A     -1.374283    29A     -1.365582    30A     -1.354471
      31A     -1.303814    32A     -1.119206    33A     -1.040641
      34A     -1.011987    35A     -1.003771    36A     -0.880986
      37A     -0.865277    38A     -0.858313    39A     -0.822967
      40A     -0.809174    41A     -0.752956    42A     -0.745043
      43A     -0.731479    44A     -0.728859    45A     -0.707940
      46A     -0.688300    47A     -0.678003    48A     -0.673845
      49A     -0.662845    50A     -0.661223    51A     -0.643769
      52A     -0.635539    53A     -0.627529    54A     -0.615830
      55A     -0.604000    56A     -0.599189    57A     -0.582293
      58A     -0.575664    59A     -0.571187    60A     -0.559972
      61A     -0.556768    62A     -0.548948    63A     -0.541286
      64A     -0.536801    65A     -0.530141    66A     -0.521427
      67A     -0.513084    68A     -0.503920    69A     -0.496724
      70A     -0.483774    71A     -0.479942    72A     -0.476666
      73A     -0.461622    74A     -0.456483    75A     -0.447940
      76A     -0.436285

  @DF-RHF Final Energy: -1327.86067785023715

   => Energetics <=

    Nuclear Repulsion Energy =           1772.5832138298637801
    One-Electron Energy =               -5357.2760887735739743
    Two-Electron Energy =                2256.8321970934730416
    Total Energy =                      -1327.8606778502371526
  Basis Set: (AUG-CC-PVTZ AUX)
    Blend: AUG-CC-PVTZ-RI
    Molecular point group: c1

    Geometry (in Angstrom), charge = 0, multiplicity = 1:

       Center              X                  Y                   Z               Mass
    ------------   -----------------  -----------------  -----------------  -----------------
         P           -2.289889747141    -0.940673040895     0.345582602660    30.973761998420
         O           -0.981946747141    -0.202192040895     0.939193602660    15.994914619570
         O            1.342456252859    -1.676113040895     1.231755602660    15.994914619570
         O            0.078911252859     2.358973959105     0.463072602660    15.994914619570
         O            3.068721252859    -2.187702040895    -0.807685397340    15.994914619570
         O            2.847541252859     2.502482959105     0.372439602660    15.994914619570
         O            4.195894252859     0.434766959105    -0.971969397340    15.994914619570
         O           -2.826656747141     0.032720959105    -0.806626397340    15.994914619570
         O           -3.258914747141    -0.723912040895     1.622575602660    15.994914619570
         O           -2.118786747141    -2.344274040895    -0.098763397340    15.994914619570
         C            0.118368252859     0.029378959105     0.017223602660    12.000000000000
         C            0.953498252859    -1.244835040895    -0.074820397340    12.000000000000
         C            0.893162852859     1.215686259105     0.543906402660    12.000000000000
         C            2.259866252859    -1.014937040895    -0.817132397340    12.000000000000
         C            2.177281252859     1.395841959105    -0.227136397340    12.000000000000
         C            3.026048252859     0.148074959105    -0.209417397340    12.000000000000
         C           -3.124006747141     1.430967959105    -0.487981397340    12.000000000000
         C           -3.536110747141     2.084534959105    -1.783214397340    12.000000000000
         H           -0.274764447141     0.315463359105    -0.967738897340     1.007825032230
         H            0.370475252859    -2.029994040895    -0.571127397340     1.007825032230
         H            1.157326252859     0.997246959105     1.613060602660     1.007825032230
         H            2.061140252859    -0.789290040895    -1.871851397340     1.007825032230
         H            1.917193252859     1.635656959105    -1.272678397340     1.007825032230
         H            3.296061252859    -0.095162040895     0.828550602660     1.007825032230
         H            0.521981252859    -1.888662040895     1.712414602660     1.007825032230
         H            0.665746252859     3.108680959105     0.684088602660     1.007825032230
         H            2.973749252859    -2.548004040895     0.095558602660     1.007825032230
         H            3.721635252859     2.548555959105    -0.057964397340     1.007825032230
         H            4.639933252859    -0.424464040895    -1.096182397340     1.007825032230
         H           -3.808188747141    -1.522968040895     1.735632602660     1.007825032230
         H           -3.930339747141     1.444910959105     0.250290602660     1.007825032230
         H           -2.229555747141     1.892249959105    -0.058191397340     1.007825032230
         H           -3.800314747141     3.130251959105    -1.601766397340     1.007825032230
         H           -2.716989747141     2.052692959105    -2.503970397340     1.007825032230
         H           -4.400737747141     1.573692959105    -2.211819397340     1.007825032230

  Basis Set: AUG-CC-PVTZ
    Blend: AUG-CC-PVTZ
  Basis Set: (AUG-CC-PVTZ AUX)
    Blend: AUG-CC-PVTZ-JKFIT
	 Reference Energy          =   -1327.8606778502371526 [Eh]
	 Singles Energy            =      -0.0000000000000000 [Eh]
	 Same-Spin Energy          =      -1.0146933801431870 [Eh]
	 Opposite-Spin Energy      =      -3.0759729210481996 [Eh]
	 Correlation Energy        =      -4.0906663011913871 [Eh]
	 Total Energy              =   -1331.9513441514284295 [Eh]

	 ================> DF-SCS-MP2 Energies <==================
	-----------------------------------------------------------
	 SCS Same-Spin Scale       =       0.3333333333333333 [-]
	 SCS Opposite-Spin Scale   =       1.2000000000000000 [-]
	 SCS Same-Spin Energy      =      -0.3382311267143956 [Eh]
	 SCS Opposite-Spin Energy  =      -3.6911675052578392 [Eh]
	 SCS Correlation Energy    =      -4.0293986319722350 [Eh]
	 SCS Total Energy          =   -1331.8900764822094516 [Eh]
	-----------------------------------------------------------

  Dipole Moment: [D]
     X:    -1.1365      Y:     1.9068      Z:     0.6995     Total:     2.3274

*** Psi4 exiting successfully. Buy a developer a beer!
