                               Psi4 1.3.2 release

  ==> Input File <==

--------------------------------------------------------------------------
#psi4
#
memory 32 gb

molecule  {
0 1
  P       -2.2900960    -0.9400430     0.3446780
  O       -0.9821530    -0.2015620     0.9382890
  O        1.3422500    -1.6754830     1.2308510
  O        0.0787050     2.3596040     0.4621680
  O        3.0685150    -2.1870720    -0.8085900
  O        2.8473350     2.5031130     0.3715350
  O        4.1956880     0.4353970    -0.9728740
  O       -2.7860206     0.0148126    -0.8408640
  O       -3.2286924    -0.7614883     1.6499982
  O       -2.1189930    -2.3436440    -0.0996680
  C        0.1181620     0.0300090     0.0163190
  C        0.9532920    -1.2442050    -0.0757250
  C        0.8985890     1.2026440     0.5648510
  C        2.2596600    -1.0143070    -0.8180370
  C        2.1770750     1.3964720    -0.2280410
  C        3.0258420     0.1487050    -0.2103220
  C       -3.1242130     1.4315980    -0.4888860
  C       -3.5363170     2.0851650    -1.7841190
  H       -0.2830920     0.2988010    -0.9702380
  H        0.3702690    -2.0293640    -0.5720320
  H        1.1571200     0.9978770     1.6121560
  H        2.0609340    -0.7886600    -1.8727560
  H        1.9169870     1.6362870    -1.2735830
  H        3.2958550    -0.0945320     0.8276460
  H        0.5217750    -1.8880320     1.7115100
  H        0.6655400     3.1093110     0.6831840
  H        2.9735430    -2.5473740     0.0946540
  H        3.7214290     2.5491860    -0.0588690
  H        4.6397270    -0.4238340    -1.0970870
  H       -3.8083950    -1.5223380     1.7347280
  H       -3.9305460     1.4455410     0.2493860
  H       -2.2297620     1.8928800    -0.0590960
  H       -3.8005210     3.1308820    -1.6026710
  H       -2.7171960     2.0533230    -2.5048750
  H       -4.4009440     1.5743230    -2.2127240
units angstrom
no_reorient  #important for SAPT in psi4, default
symmetry c1  #important for SAPT in psi4, default
}

set PROPERTIES_ORIGIN ["COM"]
properties('MP2/aug-cc-pvtz', properties = ['dipole'])
--------------------------------------------------------------------------

    Molecular point group: c1
  Charge       = 0
  Multiplicity = 1
  Basis Set: AUG-CC-PVTZ
    Blend: AUG-CC-PVTZ
  Basis Set: (AUG-CC-PVTZ AUX)
    Blend: AUG-CC-PVTZ-JKFIT

    Orbital Energies [Eh]
    ---------------------

    Doubly Occupied:

       1A    -80.115327     2A    -20.615088     3A    -20.604926
       4A    -20.602352     5A    -20.581842     6A    -20.576351
       7A    -20.573784     8A    -20.573522     9A    -20.573332
      10A    -20.518036    11A    -11.319172    12A    -11.305340
      13A    -11.302228    14A    -11.298449    15A    -11.297881
      16A    -11.296102    17A    -11.290767    18A    -11.232743
      19A     -7.630858    20A     -5.529370    21A     -5.528887
      22A     -5.527824    23A     -1.459189    24A     -1.410054
      25A     -1.394893    26A     -1.392698    27A     -1.385176
      28A     -1.371258    29A     -1.363326    30A     -1.353179
      31A     -1.299244    32A     -1.118123    33A     -1.043055
      34A     -1.011238    35A     -1.002576    36A     -0.879498
      37A     -0.864982    38A     -0.858332    39A     -0.824084
      40A     -0.809717    41A     -0.751097    42A     -0.745638
      43A     -0.732096    44A     -0.726038    45A     -0.707932
      46A     -0.686449    47A     -0.676774    48A     -0.672320
      49A     -0.661821    50A     -0.660410    51A     -0.642665
      52A     -0.633768    53A     -0.627499    54A     -0.614387
      55A     -0.602681    56A     -0.597717    57A     -0.580222
      58A     -0.576691    59A     -0.570054    60A     -0.558850
      61A     -0.556084    62A     -0.548013    63A     -0.541371
      64A     -0.535823    65A     -0.530422    66A     -0.521543
      67A     -0.516350    68A     -0.504292    69A     -0.498855
      70A     -0.485812    71A     -0.479042    72A     -0.472493
      73A     -0.460921    74A     -0.455359    75A     -0.448881
      76A     -0.435253

  @DF-RHF Final Energy: -1327.85948788428232

   => Energetics <=

    Nuclear Repulsion Energy =           1772.3127835915754531
    One-Electron Energy =               -5356.8436965384389623
    Two-Electron Energy =                2256.6714250625809655
    Total Energy =                      -1327.8594878842823164
  Basis Set: (AUG-CC-PVTZ AUX)
    Blend: AUG-CC-PVTZ-RI
    Molecular point group: c1

    Geometry (in Angstrom), charge = 0, multiplicity = 1:

       Center              X                  Y                   Z               Mass
    ------------   -----------------  -----------------  -----------------  -----------------
         P           -2.294053370230    -0.936892168535     0.344955943489    30.973761998420
         O           -0.986110370230    -0.198411168535     0.938566943489    15.994914619570
         O            1.338292629770    -1.672332168535     1.231128943489    15.994914619570
         O            0.074747629770     2.362754831465     0.462445943489    15.994914619570
         O            3.064557629770    -2.183921168535    -0.808312056511    15.994914619570
         O            2.843377629770     2.506263831465     0.371812943489    15.994914619570
         O            4.191730629770     0.438547831465    -0.972596056511    15.994914619570
         O           -2.789977970230     0.017963431465    -0.840586056511    15.994914619570
         O           -3.232649770230    -0.758337468535     1.650276143489    15.994914619570
         O           -2.122950370230    -2.340493168535    -0.099390056511    15.994914619570
         C            0.114204629770     0.033159831465     0.016596943489    12.000000000000
         C            0.949334629770    -1.241054168535    -0.075447056511    12.000000000000
         C            0.894631629770     1.205794831465     0.565128943489    12.000000000000
         C            2.255702629770    -1.011156168535    -0.817759056511    12.000000000000
         C            2.173117629770     1.399622831465    -0.227763056511    12.000000000000
         C            3.021884629770     0.151855831465    -0.210044056511    12.000000000000
         C           -3.128170370230     1.434748831465    -0.488608056511    12.000000000000
         C           -3.540274370230     2.088315831465    -1.783841056511    12.000000000000
         H           -0.287049370230     0.301951831465    -0.969960056511     1.007825032230
         H            0.366311629770    -2.026213168535    -0.571754056511     1.007825032230
         H            1.153162629770     1.001027831465     1.612433943489     1.007825032230
         H            2.056976629770    -0.785509168535    -1.872478056511     1.007825032230
         H            1.913029629770     1.639437831465    -1.273305056511     1.007825032230
         H            3.291897629770    -0.091381168535     0.827923943489     1.007825032230
         H            0.517817629770    -1.884881168535     1.711787943489     1.007825032230
         H            0.661582629770     3.112461831465     0.683461943489     1.007825032230
         H            2.969585629770    -2.544223168535     0.094931943489     1.007825032230
         H            3.717471629770     2.552336831465    -0.058591056511     1.007825032230
         H            4.635769629770    -0.420683168535    -1.096809056511     1.007825032230
         H           -3.812352370230    -1.519187168535     1.735005943489     1.007825032230
         H           -3.934503370230     1.448691831465     0.249663943489     1.007825032230
         H           -2.233719370230     1.896030831465    -0.058818056511     1.007825032230
         H           -3.804478370230     3.134032831465    -1.602393056511     1.007825032230
         H           -2.721153370230     2.056473831465    -2.504597056511     1.007825032230
         H           -4.404901370230     1.577473831465    -2.212446056511     1.007825032230

  Basis Set: AUG-CC-PVTZ
    Blend: AUG-CC-PVTZ
  Basis Set: (AUG-CC-PVTZ AUX)
    Blend: AUG-CC-PVTZ-JKFIT
	 Reference Energy          =   -1327.8594878842823164 [Eh]
	 Singles Energy            =      -0.0000000000000000 [Eh]
	 Same-Spin Energy          =      -1.0145407821897763 [Eh]
	 Opposite-Spin Energy      =      -3.0763789745490566 [Eh]
	 Correlation Energy        =      -4.0909197567388329 [Eh]
	 Total Energy              =   -1331.9504076410212292 [Eh]

	 ================> DF-SCS-MP2 Energies <==================
	-----------------------------------------------------------
	 SCS Same-Spin Scale       =       0.3333333333333333 [-]
	 SCS Opposite-Spin Scale   =       1.2000000000000000 [-]
	 SCS Same-Spin Energy      =      -0.3381802607299254 [Eh]
	 SCS Opposite-Spin Energy  =      -3.6916547694588679 [Eh]
	 SCS Correlation Energy    =      -4.0298350301887931 [Eh]
	 SCS Total Energy          =   -1331.8893229144712222 [Eh]
	-----------------------------------------------------------

  Dipole Moment: [D]
     X:    -1.3494      Y:     2.1123      Z:     0.6814     Total:     2.5975

*** Psi4 exiting successfully. Buy a developer a beer!
