                               Psi4 1.3.2 release

  ==> Input File <==

--------------------------------------------------------------------------
#psi4
#
memory 32 gb

molecule  {
0 1
  P       -2.2900960    -0.9400430     0.3446780
  O       -0.9821530    -0.2015620     0.9382890
  O        1.3422500    -1.6754830     1.2308510
  O        0.0787050     2.3596040     0.4621680
  O        3.0685150    -2.1870720    -0.8085900
  O        2.8473350     2.5031130     0.3715350
  O        4.1956880     0.4353970    -0.9728740
  O       -2.8268630     0.0333510    -0.8075310
  O       -3.2591210    -0.7232820     1.6216710
  O       -2.1189930    -2.3436440    -0.0996680
  C        0.1181620     0.0300090     0.0163190
  C        0.9532920    -1.2442050    -0.0757250
  C        0.9562571     1.1212670     0.5720734
  C        2.2596600    -1.0143070    -0.8180370
  C        2.1770750     1.3964720    -0.2280410
  C        3.0258420     0.1487050    -0.2103220
  C       -3.1242130     1.4315980    -0.4888860
  C       -3.5363170     2.0851650    -1.7841190
  H       -0.2830920     0.2988010    -0.9702380
  H        0.3702690    -2.0293640    -0.5720320
  H        1.1571200     0.9978770     1.6121560
  H        2.0609340    -0.7886600    -1.8727560
  H        1.9169870     1.6362870    -1.2735830
  H        3.2958550    -0.0945320     0.8276460
  H        0.5217750    -1.8880320     1.7115100
  H        0.6655400     3.1093110     0.6831840
  H        2.9735430    -2.5473740     0.0946540
  H        3.7214290     2.5491860    -0.0588690
  H        4.6397270    -0.4238340    -1.0970870
  H       -3.8083950    -1.5223380     1.7347280
  H       -3.9305460     1.4455410     0.2493860
  H       -2.2297620     1.8928800    -0.0590960
  H       -3.8005210     3.1308820    -1.6026710
  H       -2.7171960     2.0533230    -2.5048750
  H       -4.4009440     1.5743230    -2.2127240
units angstrom
no_reorient  #important for SAPT in psi4, default
symmetry c1  #important for SAPT in psi4, default
}

set PROPERTIES_ORIGIN ["COM"]
properties('MP2/aug-cc-pvtz', properties = ['dipole'])
--------------------------------------------------------------------------

    Molecular point group: c1
  Charge       = 0
  Multiplicity = 1
  Basis Set: AUG-CC-PVTZ
    Blend: AUG-CC-PVTZ
  Basis Set: (AUG-CC-PVTZ AUX)
    Blend: AUG-CC-PVTZ-JKFIT

    Orbital Energies [Eh]
    ---------------------

    Doubly Occupied:

       1A    -80.117936     2A    -20.615283     3A    -20.609090
       4A    -20.599023     5A    -20.585246     6A    -20.578716
       7A    -20.576245     8A    -20.574981     9A    -20.561928
      10A    -20.524206    11A    -11.323552    12A    -11.304277
      13A    -11.301193    14A    -11.299925    15A    -11.299165
      16A    -11.298161    17A    -11.292655    18A    -11.228976
      19A     -7.633352    20A     -5.531860    21A     -5.531498
      22A     -5.530281    23A     -1.461149    24A     -1.411482
      25A     -1.396040    26A     -1.389839    27A     -1.386590
      28A     -1.371508    29A     -1.358364    30A     -1.334263
      31A     -1.304489    32A     -1.129346    33A     -1.039698
      34A     -1.017012    35A     -1.009026    36A     -0.881979
      37A     -0.864835    38A     -0.859903    39A     -0.823505
      40A     -0.815187    41A     -0.750039    42A     -0.746159
      43A     -0.731632    44A     -0.728200    45A     -0.709851
      46A     -0.680212    47A     -0.679079    48A     -0.673940
      49A     -0.662748    50A     -0.660572    51A     -0.643041
      52A     -0.631243    53A     -0.627642    54A     -0.616572
      55A     -0.604008    56A     -0.595502    57A     -0.579048
      58A     -0.575271    59A     -0.570919    60A     -0.556893
      61A     -0.553563    62A     -0.548305    63A     -0.540989
      64A     -0.536722    65A     -0.530413    66A     -0.522079
      67A     -0.512470    68A     -0.504645    69A     -0.499464
      70A     -0.486410    71A     -0.480094    72A     -0.476961
      73A     -0.469920    74A     -0.455592    75A     -0.452400
      76A     -0.437711

  @DF-RHF Final Energy: -1327.85029114425652

   => Energetics <=

    Nuclear Repulsion Energy =           1772.8876922722949985
    One-Electron Energy =               -5357.8718249365056181
    Two-Electron Energy =                2257.1338415199543306
    Total Energy =                      -1327.8502911442565164
  Basis Set: (AUG-CC-PVTZ AUX)
    Blend: AUG-CC-PVTZ-RI
    Molecular point group: c1

    Geometry (in Angstrom), charge = 0, multiplicity = 1:

       Center              X                  Y                   Z               Mass
    ------------   -----------------  -----------------  -----------------  -----------------
         P           -2.292498295680    -0.936652992236     0.344377121182    30.973761998420
         O           -0.984555295680    -0.198171992236     0.937988121182    15.994914619570
         O            1.339847704320    -1.672092992236     1.230550121182    15.994914619570
         O            0.076302704320     2.362994007764     0.461867121182    15.994914619570
         O            3.066112704320    -2.183681992236    -0.808890878818    15.994914619570
         O            2.844932704320     2.506503007764     0.371234121182    15.994914619570
         O            4.193285704320     0.438787007764    -0.973174878818    15.994914619570
         O           -2.829265295680     0.036741007764    -0.807831878818    15.994914619570
         O           -3.261523295680    -0.719891992236     1.621370121182    15.994914619570
         O           -2.121395295680    -2.340253992236    -0.099968878818    15.994914619570
         C            0.115759704320     0.033399007764     0.016018121182    12.000000000000
         C            0.950889704320    -1.240814992236    -0.076025878818    12.000000000000
         C            0.953854804320     1.124657007764     0.571772521182    12.000000000000
         C            2.257257704320    -1.010916992236    -0.818337878818    12.000000000000
         C            2.174672704320     1.399862007764    -0.228341878818    12.000000000000
         C            3.023439704320     0.152095007764    -0.210622878818    12.000000000000
         C           -3.126615295680     1.434988007764    -0.489186878818    12.000000000000
         C           -3.538719295680     2.088555007764    -1.784419878818    12.000000000000
         H           -0.285494295680     0.302191007764    -0.970538878818     1.007825032230
         H            0.367866704320    -2.025973992236    -0.572332878818     1.007825032230
         H            1.154717704320     1.001267007764     1.611855121182     1.007825032230
         H            2.058531704320    -0.785269992236    -1.873056878818     1.007825032230
         H            1.914584704320     1.639677007764    -1.273883878818     1.007825032230
         H            3.293452704320    -0.091141992236     0.827345121182     1.007825032230
         H            0.519372704320    -1.884641992236     1.711209121182     1.007825032230
         H            0.663137704320     3.112701007764     0.682883121182     1.007825032230
         H            2.971140704320    -2.543983992236     0.094353121182     1.007825032230
         H            3.719026704320     2.552576007764    -0.059169878818     1.007825032230
         H            4.637324704320    -0.420443992236    -1.097387878818     1.007825032230
         H           -3.810797295680    -1.518947992236     1.734427121182     1.007825032230
         H           -3.932948295680     1.448931007764     0.249085121182     1.007825032230
         H           -2.232164295680     1.896270007764    -0.059396878818     1.007825032230
         H           -3.802923295680     3.134272007764    -1.602971878818     1.007825032230
         H           -2.719598295680     2.056713007764    -2.505175878818     1.007825032230
         H           -4.403346295680     1.577713007764    -2.213024878818     1.007825032230

  Basis Set: AUG-CC-PVTZ
    Blend: AUG-CC-PVTZ
  Basis Set: (AUG-CC-PVTZ AUX)
    Blend: AUG-CC-PVTZ-JKFIT
	 Reference Energy          =   -1327.8502911442565164 [Eh]
	 Singles Energy            =      -0.0000000000000000 [Eh]
	 Same-Spin Energy          =      -1.0155072191715531 [Eh]
	 Opposite-Spin Energy      =      -3.0785940367889255 [Eh]
	 Correlation Energy        =      -4.0941012559604788 [Eh]
	 Total Energy              =   -1331.9443924002168842 [Eh]

	 ================> DF-SCS-MP2 Energies <==================
	-----------------------------------------------------------
	 SCS Same-Spin Scale       =       0.3333333333333333 [-]
	 SCS Opposite-Spin Scale   =       1.2000000000000000 [-]
	 SCS Same-Spin Energy      =      -0.3385024063905177 [Eh]
	 SCS Opposite-Spin Energy  =      -3.6943128441467104 [Eh]
	 SCS Correlation Energy    =      -4.0328152505372277 [Eh]
	 SCS Total Energy          =   -1331.8831063947936855 [Eh]
	-----------------------------------------------------------

  Dipole Moment: [D]
     X:    -0.9518      Y:     1.5862      Z:     0.7171     Total:     1.9840

*** Psi4 exiting successfully. Buy a developer a beer!
