                               Psi4 1.3.2 release

  ==> Input File <==

--------------------------------------------------------------------------
#psi4
#
memory 32 gb

molecule  {
0 1
  P       -2.2900960    -0.9400430     0.3446780
  O       -0.9821530    -0.2015620     0.9382890
  O        1.3422500    -1.6754830     1.2308510
  O        0.0787050     2.3596040     0.4621680
  O        3.0685150    -2.1870720    -0.8085900
  O        2.8473350     2.5031130     0.3715350
  O        4.1956880     0.4353970    -0.9728740
  O       -2.8268630     0.0333510    -0.8075310
  O       -3.2591210    -0.7232820     1.6216710
  O       -2.1189930    -2.3436440    -0.0996680
  C        0.1181620     0.0300090     0.0163190
  C        0.9429012    -1.2461296    -0.1279410
  C        0.8985890     1.2026440     0.5648510
  C        2.2596600    -1.0143070    -0.8180370
  C        2.1770750     1.3964720    -0.2280410
  C        3.0258420     0.1487050    -0.2103220
  C       -3.1242130     1.4315980    -0.4888860
  C       -3.5363170     2.0851650    -1.7841190
  H       -0.2656881     0.2679776    -0.9849695
  H        0.3702690    -2.0293640    -0.5720320
  H        1.1571200     0.9978770     1.6121560
  H        2.0609340    -0.7886600    -1.8727560
  H        1.9169870     1.6362870    -1.2735830
  H        3.2958550    -0.0945320     0.8276460
  H        0.5217750    -1.8880320     1.7115100
  H        0.6655400     3.1093110     0.6831840
  H        2.9735430    -2.5473740     0.0946540
  H        3.7214290     2.5491860    -0.0588690
  H        4.6397270    -0.4238340    -1.0970870
  H       -3.8083950    -1.5223380     1.7347280
  H       -3.9305460     1.4455410     0.2493860
  H       -2.2297620     1.8928800    -0.0590960
  H       -3.8005210     3.1308820    -1.6026710
  H       -2.7171960     2.0533230    -2.5048750
  H       -4.4009440     1.5743230    -2.2127240
units angstrom
no_reorient  #important for SAPT in psi4, default
symmetry c1  #important for SAPT in psi4, default
}

set PROPERTIES_ORIGIN ["COM"]
properties('MP2/aug-cc-pvtz', properties = ['dipole'])
--------------------------------------------------------------------------

    Molecular point group: c1
  Charge       = 0
  Multiplicity = 1
  Basis Set: AUG-CC-PVTZ
    Blend: AUG-CC-PVTZ
  Basis Set: (AUG-CC-PVTZ AUX)
    Blend: AUG-CC-PVTZ-JKFIT

    Orbital Energies [Eh]
    ---------------------

    Doubly Occupied:

       1A    -80.117565     2A    -20.615111     3A    -20.608495
       4A    -20.599225     5A    -20.577141     6A    -20.576705
       7A    -20.575116     8A    -20.574905     9A    -20.573877
      10A    -20.524204    11A    -11.322837    12A    -11.303811
      13A    -11.300391    14A    -11.299804    15A    -11.299529
      16A    -11.297195    17A    -11.292609    18A    -11.229991
      19A     -7.633016    20A     -5.531523    21A     -5.531148
      22A     -5.529949    23A     -1.460614    24A     -1.407837
      25A     -1.394845    26A     -1.389857    27A     -1.387120
      28A     -1.370016    29A     -1.359418    30A     -1.350567
      31A     -1.304558    32A     -1.120969    33A     -1.040613
      34A     -1.013458    35A     -1.007292    36A     -0.881575
      37A     -0.865395    38A     -0.861313    39A     -0.823238
      40A     -0.808292    41A     -0.750423    42A     -0.743535
      43A     -0.733032    44A     -0.728813    45A     -0.707745
      46A     -0.687646    47A     -0.674546    48A     -0.672565
      49A     -0.662498    50A     -0.660725    51A     -0.643544
      52A     -0.635398    53A     -0.626753    54A     -0.613799
      55A     -0.604128    56A     -0.598187    57A     -0.583002
      58A     -0.575898    59A     -0.569475    60A     -0.559454
      61A     -0.556513    62A     -0.546331    63A     -0.540782
      64A     -0.536992    65A     -0.526483    66A     -0.520827
      67A     -0.513530    68A     -0.504654    69A     -0.497831
      70A     -0.484810    71A     -0.480295    72A     -0.477089
      73A     -0.463937    74A     -0.456343    75A     -0.452251
      76A     -0.440733

  @DF-RHF Final Energy: -1327.85751863193036

   => Energetics <=

    Nuclear Repulsion Energy =           1771.9495950351561078
    One-Electron Energy =               -5356.0308465460338994
    Two-Electron Energy =                2256.2237328789474304
    Total Energy =                      -1327.8575186319303612
  Basis Set: (AUG-CC-PVTZ AUX)
    Blend: AUG-CC-PVTZ-RI
    Molecular point group: c1

    Geometry (in Angstrom), charge = 0, multiplicity = 1:

       Center              X                  Y                   Z               Mass
    ------------   -----------------  -----------------  -----------------  -----------------
         P           -2.289723999052    -0.939854967320     0.346904736952    30.973761998420
         O           -0.981780999052    -0.201373967320     0.940515736952    15.994914619570
         O            1.342622000948    -1.675294967320     1.233077736952    15.994914619570
         O            0.079077000948     2.359792032680     0.464394736952    15.994914619570
         O            3.068887000948    -2.186883967320    -0.806363263048    15.994914619570
         O            2.847707000948     2.503301032680     0.373761736952    15.994914619570
         O            4.196060000948     0.435585032680    -0.970647263048    15.994914619570
         O           -2.826490999052     0.033539032680    -0.805304263048    15.994914619570
         O           -3.258748999052    -0.723093967320     1.623897736952    15.994914619570
         O           -2.118620999052    -2.343455967320    -0.097441263048    15.994914619570
         C            0.118534000948     0.030197032680     0.018545736952    12.000000000000
         C            0.943273200948    -1.245941567320    -0.125714263048    12.000000000000
         C            0.898961000948     1.202832032680     0.567077736952    12.000000000000
         C            2.260032000948    -1.014118967320    -0.815810263048    12.000000000000
         C            2.177447000948     1.396660032680    -0.225814263048    12.000000000000
         C            3.026214000948     0.148893032680    -0.208095263048    12.000000000000
         C           -3.123840999052     1.431786032680    -0.486659263048    12.000000000000
         C           -3.535944999052     2.085353032680    -1.781892263048    12.000000000000
         H           -0.265316099052     0.268165632680    -0.982742763048     1.007825032230
         H            0.370641000948    -2.029175967320    -0.569805263048     1.007825032230
         H            1.157492000948     0.998065032680     1.614382736952     1.007825032230
         H            2.061306000948    -0.788471967320    -1.870529263048     1.007825032230
         H            1.917359000948     1.636475032680    -1.271356263048     1.007825032230
         H            3.296227000948    -0.094343967320     0.829872736952     1.007825032230
         H            0.522147000948    -1.887843967320     1.713736736952     1.007825032230
         H            0.665912000948     3.109499032680     0.685410736952     1.007825032230
         H            2.973915000948    -2.547185967320     0.096880736952     1.007825032230
         H            3.721801000948     2.549374032680    -0.056642263048     1.007825032230
         H            4.640099000948    -0.423645967320    -1.094860263048     1.007825032230
         H           -3.808022999052    -1.522149967320     1.736954736952     1.007825032230
         H           -3.930173999052     1.445729032680     0.251612736952     1.007825032230
         H           -2.229389999052     1.893068032680    -0.056869263048     1.007825032230
         H           -3.800148999052     3.131070032680    -1.600444263048     1.007825032230
         H           -2.716823999052     2.053511032680    -2.502648263048     1.007825032230
         H           -4.400571999052     1.574511032680    -2.210497263048     1.007825032230

  Basis Set: AUG-CC-PVTZ
    Blend: AUG-CC-PVTZ
  Basis Set: (AUG-CC-PVTZ AUX)
    Blend: AUG-CC-PVTZ-JKFIT
	 Reference Energy          =   -1327.8575186319303612 [Eh]
	 Singles Energy            =      -0.0000000000000000 [Eh]
	 Same-Spin Energy          =      -1.0146962048567629 [Eh]
	 Opposite-Spin Energy      =      -3.0769477110935370 [Eh]
	 Correlation Energy        =      -4.0916439159503000 [Eh]
	 Total Energy              =   -1331.9491625478806327 [Eh]

	 ================> DF-SCS-MP2 Energies <==================
	-----------------------------------------------------------
	 SCS Same-Spin Scale       =       0.3333333333333333 [-]
	 SCS Opposite-Spin Scale   =       1.2000000000000000 [-]
	 SCS Same-Spin Energy      =      -0.3382320682855876 [Eh]
	 SCS Opposite-Spin Energy  =      -3.6923372533122443 [Eh]
	 SCS Correlation Energy    =      -4.0305693215978318 [Eh]
	 SCS Total Energy          =   -1331.8880879535281565 [Eh]
	-----------------------------------------------------------

  Dipole Moment: [D]
     X:    -1.1427      Y:     1.9058      Z:     0.5939     Total:     2.3001

*** Psi4 exiting successfully. Buy a developer a beer!
