                               Psi4 1.3.2 release

  ==> Input File <==

--------------------------------------------------------------------------
#psi4
#
memory 32 gb

molecule  {
0 1
  P       -2.2900960    -0.9400430     0.3446780
  O       -0.9821530    -0.2015620     0.9382890
  O        1.3662026    -1.6735214     1.2241296
  O        0.0787050     2.3596040     0.4621680
  O        3.0685150    -2.1870720    -0.8085900
  O        2.8473350     2.5031130     0.3715350
  O        4.1956880     0.4353970    -0.9728740
  O       -2.8268630     0.0333510    -0.8075310
  O       -3.2591210    -0.7232820     1.6216710
  O       -2.1189930    -2.3436440    -0.0996680
  C        0.1181620     0.0300090     0.0163190
  C        0.9532920    -1.2442050    -0.0757250
  C        0.8985890     1.2026440     0.5648510
  C        2.2730210    -1.0215524    -0.7962934
  C        2.1770750     1.3964720    -0.2280410
  C        3.0258420     0.1487050    -0.2103220
  C       -3.1242130     1.4315980    -0.4888860
  C       -3.5363170     2.0851650    -1.7841190
  H       -0.2830920     0.2988010    -0.9702380
  H        0.3702690    -2.0293640    -0.5720320
  H        1.1571200     0.9978770     1.6121560
  H        2.0609340    -0.7886600    -1.8727560
  H        1.9169870     1.6362870    -1.2735830
  H        3.2958550    -0.0945320     0.8276460
  H        0.5217750    -1.8880320     1.7115100
  H        0.6655400     3.1093110     0.6831840
  H        2.9735430    -2.5473740     0.0946540
  H        3.7214290     2.5491860    -0.0588690
  H        4.6397270    -0.4238340    -1.0970870
  H       -3.8083950    -1.5223380     1.7347280
  H       -3.9305460     1.4455410     0.2493860
  H       -2.2297620     1.8928800    -0.0590960
  H       -3.8005210     3.1308820    -1.6026710
  H       -2.7171960     2.0533230    -2.5048750
  H       -4.4009440     1.5743230    -2.2127240
units angstrom
no_reorient  #important for SAPT in psi4, default
symmetry c1  #important for SAPT in psi4, default
}

set PROPERTIES_ORIGIN ["COM"]
properties('MP2/aug-cc-pvtz', properties = ['dipole'])
--------------------------------------------------------------------------

    Molecular point group: c1
  Charge       = 0
  Multiplicity = 1
  Basis Set: AUG-CC-PVTZ
    Blend: AUG-CC-PVTZ
  Basis Set: (AUG-CC-PVTZ AUX)
    Blend: AUG-CC-PVTZ-JKFIT

    Orbital Energies [Eh]
    ---------------------

    Doubly Occupied:

       1A    -80.117281     2A    -20.615008     3A    -20.607620
       4A    -20.599155     5A    -20.585751     6A    -20.576819
       7A    -20.575969     8A    -20.573881     9A    -20.573501
      10A    -20.523793    11A    -11.321152    12A    -11.303016
      13A    -11.299519    14A    -11.299079    15A    -11.298683
      16A    -11.296779    17A    -11.290480    18A    -11.229923
      19A     -7.632734    20A     -5.531240    21A     -5.530867
      22A     -5.529665    23A     -1.460598    24A     -1.411556
      25A     -1.395397    26A     -1.393754    27A     -1.387122
      28A     -1.372152    29A     -1.364613    30A     -1.354537
      31A     -1.304182    32A     -1.118228    33A     -1.040576
      34A     -1.012593    35A     -1.001881    36A     -0.880567
      37A     -0.865070    38A     -0.858360    39A     -0.822229
      40A     -0.808117    41A     -0.752150    42A     -0.745953
      43A     -0.731732    44A     -0.728513    45A     -0.708115
      46A     -0.687522    47A     -0.676184    48A     -0.674104
      49A     -0.662123    50A     -0.661131    51A     -0.643213
      52A     -0.634818    53A     -0.628015    54A     -0.615105
      55A     -0.603681    56A     -0.598551    57A     -0.581752
      58A     -0.575560    59A     -0.571903    60A     -0.559532
      61A     -0.556137    62A     -0.549061    63A     -0.541551
      64A     -0.536503    65A     -0.528601    66A     -0.520700
      67A     -0.512612    68A     -0.502826    69A     -0.496971
      70A     -0.484421    71A     -0.480126    72A     -0.476857
      73A     -0.462486    74A     -0.456008    75A     -0.450198
      76A     -0.436851

  @DF-RHF Final Energy: -1327.85781142755923

   => Energetics <=

    Nuclear Repulsion Energy =           1772.5379736042179957
    One-Electron Energy =               -5357.2015446343712028
    Two-Electron Energy =                2256.8057596025942075
    Total Energy =                      -1327.8578114275592270
  Basis Set: (AUG-CC-PVTZ AUX)
    Blend: AUG-CC-PVTZ-RI
    Molecular point group: c1

    Geometry (in Angstrom), charge = 0, multiplicity = 1:

       Center              X                  Y                   Z               Mass
    ------------   -----------------  -----------------  -----------------  -----------------
         P           -2.291982552840    -0.939850074672     0.344145412702    30.973761998420
         O           -0.984039552840    -0.201369074672     0.937756412702    15.994914619570
         O            1.364316047160    -1.673328474672     1.223597012702    15.994914619570
         O            0.076818447160     2.359796925328     0.461635412702    15.994914619570
         O            3.066628447160    -2.186879074672    -0.809122587298    15.994914619570
         O            2.845448447160     2.503305925328     0.371002412702    15.994914619570
         O            4.193801447160     0.435589925328    -0.973406587298    15.994914619570
         O           -2.828749552840     0.033543925328    -0.808063587298    15.994914619570
         O           -3.261007552840    -0.723089074672     1.621138412702    15.994914619570
         O           -2.120879552840    -2.343451074672    -0.100200587298    15.994914619570
         C            0.116275447160     0.030201925328     0.015786412702    12.000000000000
         C            0.951405447160    -1.244012074672    -0.076257587298    12.000000000000
         C            0.896702447160     1.202836925328     0.564318412702    12.000000000000
         C            2.271134447160    -1.021359474672    -0.796825987298    12.000000000000
         C            2.175188447160     1.396664925328    -0.228573587298    12.000000000000
         C            3.023955447160     0.148897925328    -0.210854587298    12.000000000000
         C           -3.126099552840     1.431790925328    -0.489418587298    12.000000000000
         C           -3.538203552840     2.085357925328    -1.784651587298    12.000000000000
         H           -0.284978552840     0.298993925328    -0.970770587298     1.007825032230
         H            0.368382447160    -2.029171074672    -0.572564587298     1.007825032230
         H            1.155233447160     0.998069925328     1.611623412702     1.007825032230
         H            2.059047447160    -0.788467074672    -1.873288587298     1.007825032230
         H            1.915100447160     1.636479925328    -1.274115587298     1.007825032230
         H            3.293968447160    -0.094339074672     0.827113412702     1.007825032230
         H            0.519888447160    -1.887839074672     1.710977412702     1.007825032230
         H            0.663653447160     3.109503925328     0.682651412702     1.007825032230
         H            2.971656447160    -2.547181074672     0.094121412702     1.007825032230
         H            3.719542447160     2.549378925328    -0.059401587298     1.007825032230
         H            4.637840447160    -0.423641074672    -1.097619587298     1.007825032230
         H           -3.810281552840    -1.522145074672     1.734195412702     1.007825032230
         H           -3.932432552840     1.445733925328     0.248853412702     1.007825032230
         H           -2.231648552840     1.893072925328    -0.059628587298     1.007825032230
         H           -3.802407552840     3.131074925328    -1.603203587298     1.007825032230
         H           -2.719082552840     2.053515925328    -2.505407587298     1.007825032230
         H           -4.402830552840     1.574515925328    -2.213256587298     1.007825032230

  Basis Set: AUG-CC-PVTZ
    Blend: AUG-CC-PVTZ
  Basis Set: (AUG-CC-PVTZ AUX)
    Blend: AUG-CC-PVTZ-JKFIT
	 Reference Energy          =   -1327.8578114275592270 [Eh]
	 Singles Energy            =      -0.0000000000000000 [Eh]
	 Same-Spin Energy          =      -1.0152110906657239 [Eh]
	 Opposite-Spin Energy      =      -3.0771729715081575 [Eh]
	 Correlation Energy        =      -4.0923840621738812 [Eh]
	 Total Energy              =   -1331.9501954897330052 [Eh]

	 ================> DF-SCS-MP2 Energies <==================
	-----------------------------------------------------------
	 SCS Same-Spin Scale       =       0.3333333333333333 [-]
	 SCS Opposite-Spin Scale   =       1.2000000000000000 [-]
	 SCS Same-Spin Energy      =      -0.3384036968885746 [Eh]
	 SCS Opposite-Spin Energy  =      -3.6926075658097890 [Eh]
	 SCS Correlation Energy    =      -4.0310112626983639 [Eh]
	 SCS Total Energy          =   -1331.8888226902574843 [Eh]
	-----------------------------------------------------------

  Dipole Moment: [D]
     X:    -1.1417      Y:     1.8282      Z:     0.7707     Total:     2.2890

*** Psi4 exiting successfully. Buy a developer a beer!
