                               Psi4 1.3.2 release

  ==> Input File <==

--------------------------------------------------------------------------
#psi4
#
memory 32 gb

molecule  {
0 1
  P       -2.2900960    -0.9400430     0.3446780
  O       -0.9821530    -0.2015620     0.9382890
  O        1.3422500    -1.6754830     1.2308510
  O        0.0787050     2.3596040     0.4621680
  O        3.0685150    -2.1870720    -0.8085900
  O        2.8473350     2.5031130     0.3715350
  O        4.1956880     0.4353970    -0.9728740
  O       -2.8268630     0.0333510    -0.8075310
  O       -3.2591210    -0.7232820     1.6216710
  O       -2.1189930    -2.3436440    -0.0996680
  C        0.1181620     0.0300090     0.0163190
  C        0.9532920    -1.2442050    -0.0757250
  C        0.8985890     1.2026440     0.5648510
  C        2.2596600    -1.0143070    -0.8180370
  C        2.1770750     1.3964720    -0.2280410
  C        3.0258420     0.1487050    -0.2103220
  C       -3.1242130     1.4315980    -0.4888860
  C       -3.5363170     2.0851650    -1.7841190
  H       -0.2465622     0.2743304    -0.8804228
  H        0.3702690    -2.0293640    -0.5720320
  H        1.1571200     0.9978770     1.6121560
  H        2.0609340    -0.7886600    -1.8727560
  H        1.9169870     1.6362870    -1.2735830
  H        3.2958550    -0.0945320     0.8276460
  H        0.5217750    -1.8880320     1.7115100
  H        0.6655400     3.1093110     0.6831840
  H        2.9735430    -2.5473740     0.0946540
  H        3.7214290     2.5491860    -0.0588690
  H        4.6397270    -0.4238340    -1.0970870
  H       -3.8083950    -1.5223380     1.7347280
  H       -3.9305460     1.4455410     0.2493860
  H       -2.2297620     1.8928800    -0.0590960
  H       -3.8005210     3.1308820    -1.6026710
  H       -2.7171960     2.0533230    -2.5048750
  H       -4.4009440     1.5743230    -2.2127240
units angstrom
no_reorient  #important for SAPT in psi4, default
symmetry c1  #important for SAPT in psi4, default
}

set PROPERTIES_ORIGIN ["COM"]
properties('MP2/aug-cc-pvtz', properties = ['dipole'])
--------------------------------------------------------------------------

    Molecular point group: c1
  Charge       = 0
  Multiplicity = 1
  Basis Set: AUG-CC-PVTZ
    Blend: AUG-CC-PVTZ
  Basis Set: (AUG-CC-PVTZ AUX)
    Blend: AUG-CC-PVTZ-JKFIT

    Orbital Energies [Eh]
    ---------------------

    Doubly Occupied:

       1A    -80.116733     2A    -20.614562     3A    -20.605979
       4A    -20.599104     5A    -20.582691     6A    -20.576931
       7A    -20.574693     8A    -20.574199     9A    -20.573623
      10A    -20.523405    11A    -11.309499    12A    -11.303122
      13A    -11.299538    14A    -11.299492    15A    -11.298123
      16A    -11.296855    17A    -11.291562    18A    -11.229891
      19A     -7.632194    20A     -5.530700    21A     -5.530324
      22A     -5.529129    23A     -1.460162    24A     -1.410819
      25A     -1.394658    26A     -1.393038    27A     -1.386869
      28A     -1.372606    29A     -1.363995    30A     -1.353905
      31A     -1.303814    32A     -1.121265    33A     -1.040555
      34A     -1.016406    35A     -1.003465    36A     -0.881080
      37A     -0.866009    38A     -0.859797    39A     -0.825991
      40A     -0.815821    41A     -0.751819    42A     -0.748147
      43A     -0.731473    44A     -0.729919    45A     -0.709523
      46A     -0.687806    47A     -0.678131    48A     -0.675328
      49A     -0.662377    50A     -0.661479    51A     -0.643162
      52A     -0.634954    53A     -0.627290    54A     -0.615913
      55A     -0.604444    56A     -0.598532    57A     -0.583243
      58A     -0.575559    59A     -0.571376    60A     -0.560423
      61A     -0.557073    62A     -0.549389    63A     -0.541501
      64A     -0.537093    65A     -0.531882    66A     -0.521685
      67A     -0.513204    68A     -0.505135    69A     -0.497572
      70A     -0.486096    71A     -0.479832    72A     -0.476716
      73A     -0.462271    74A     -0.456132    75A     -0.449990
      76A     -0.436343

  @DF-RHF Final Energy: -1327.85633003051908

   => Energetics <=

    Nuclear Repulsion Energy =           1773.0727961001618951
    One-Electron Energy =               -5358.2274129423276463
    Two-Electron Energy =                2257.2982868116464488
    Total Energy =                      -1327.8563300305190751
  Basis Set: (AUG-CC-PVTZ AUX)
    Blend: AUG-CC-PVTZ-RI
    Molecular point group: c1

    Geometry (in Angstrom), charge = 0, multiplicity = 1:

       Center              X                  Y                   Z               Mass
    ------------   -----------------  -----------------  -----------------  -----------------
         P           -2.290223772195    -0.939957368232     0.344363758712    30.973761998420
         O           -0.982280772195    -0.201476368232     0.937974758712    15.994914619570
         O            1.342122227805    -1.675397368232     1.230536758712    15.994914619570
         O            0.078577227805     2.359689631768     0.461853758712    15.994914619570
         O            3.068387227805    -2.186986368232    -0.808904241288    15.994914619570
         O            2.847207227805     2.503198631768     0.371220758712    15.994914619570
         O            4.195560227805     0.435482631768    -0.973188241288    15.994914619570
         O           -2.826990772195     0.033436631768    -0.807845241288    15.994914619570
         O           -3.259248772195    -0.723196368232     1.621356758712    15.994914619570
         O           -2.119120772195    -2.343558368232    -0.099982241288    15.994914619570
         C            0.118034227805     0.030094631768     0.016004758712    12.000000000000
         C            0.953164227805    -1.244119368232    -0.076039241288    12.000000000000
         C            0.898461227805     1.202729631768     0.564536758712    12.000000000000
         C            2.259532227805    -1.014221368232    -0.818351241288    12.000000000000
         C            2.176947227805     1.396557631768    -0.228355241288    12.000000000000
         C            3.025714227805     0.148790631768    -0.210636241288    12.000000000000
         C           -3.124340772195     1.431683631768    -0.489200241288    12.000000000000
         C           -3.536444772195     2.085250631768    -1.784433241288    12.000000000000
         H           -0.246689972195     0.274416031768    -0.880737041288     1.007825032230
         H            0.370141227805    -2.029278368232    -0.572346241288     1.007825032230
         H            1.156992227805     0.997962631768     1.611841758712     1.007825032230
         H            2.060806227805    -0.788574368232    -1.873070241288     1.007825032230
         H            1.916859227805     1.636372631768    -1.273897241288     1.007825032230
         H            3.295727227805    -0.094446368232     0.827331758712     1.007825032230
         H            0.521647227805    -1.887946368232     1.711195758712     1.007825032230
         H            0.665412227805     3.109396631768     0.682869758712     1.007825032230
         H            2.973415227805    -2.547288368232     0.094339758712     1.007825032230
         H            3.721301227805     2.549271631768    -0.059183241288     1.007825032230
         H            4.639599227805    -0.423748368232    -1.097401241288     1.007825032230
         H           -3.808522772195    -1.522252368232     1.734413758712     1.007825032230
         H           -3.930673772195     1.445626631768     0.249071758712     1.007825032230
         H           -2.229889772195     1.892965631768    -0.059410241288     1.007825032230
         H           -3.800648772195     3.130967631768    -1.602985241288     1.007825032230
         H           -2.717323772195     2.053408631768    -2.505189241288     1.007825032230
         H           -4.401071772195     1.574408631768    -2.213038241288     1.007825032230

  Basis Set: AUG-CC-PVTZ
    Blend: AUG-CC-PVTZ
  Basis Set: (AUG-CC-PVTZ AUX)
    Blend: AUG-CC-PVTZ-JKFIT
	 Reference Energy          =   -1327.8563300305190751 [Eh]
	 Singles Energy            =      -0.0000000000000000 [Eh]
	 Same-Spin Energy          =      -1.0142451459276962 [Eh]
	 Opposite-Spin Energy      =      -3.0751772819324223 [Eh]
	 Correlation Energy        =      -4.0894224278601188 [Eh]
	 Total Energy              =   -1331.9457524583792747 [Eh]

	 ================> DF-SCS-MP2 Energies <==================
	-----------------------------------------------------------
	 SCS Same-Spin Scale       =       0.3333333333333333 [-]
	 SCS Opposite-Spin Scale   =       1.2000000000000000 [-]
	 SCS Same-Spin Energy      =      -0.3380817153092320 [Eh]
	 SCS Opposite-Spin Energy  =      -3.6902127383189067 [Eh]
	 SCS Correlation Energy    =      -4.0282944536281384 [Eh]
	 SCS Total Energy          =   -1331.8846244841472526 [Eh]
	-----------------------------------------------------------

  Dipole Moment: [D]
     X:    -1.0970      Y:     1.8698      Z:     0.7013     Total:     2.2784

*** Psi4 exiting successfully. Buy a developer a beer!
