                               Psi4 1.3.2 release

  ==> Input File <==

--------------------------------------------------------------------------
#psi4
#
memory 32 gb

molecule  {
0 1
  P       -2.2900960    -0.9400430     0.3446780
  O       -0.9821530    -0.2015620     0.9382890
  O        1.3422500    -1.6754830     1.2308510
  O        0.0787050     2.3596040     0.4621680
  O        3.0685150    -2.1870720    -0.8085900
  O        2.8473350     2.5031130     0.3715350
  O        4.1956880     0.4353970    -0.9728740
  O       -2.8268630     0.0333510    -0.8075310
  O       -3.2591210    -0.7232820     1.6216710
  O       -2.1189930    -2.3436440    -0.0996680
  C        0.1181620     0.0300090     0.0163190
  C        0.9532920    -1.2442050    -0.0757250
  C        0.8985890     1.2026440     0.5648510
  C        2.2596600    -1.0143070    -0.8180370
  C        2.1770750     1.3964720    -0.2280410
  C        3.0258420     0.1487050    -0.2103220
  C       -3.1242130     1.4315980    -0.4888860
  C       -3.5363170     2.0851650    -1.7841190
  H       -0.2830920     0.2988010    -0.9702380
  H        0.3171065    -2.1009581    -0.6172873
  H        1.1571200     0.9978770     1.6121560
  H        2.0609340    -0.7886600    -1.8727560
  H        1.9169870     1.6362870    -1.2735830
  H        3.2958550    -0.0945320     0.8276460
  H        0.5217750    -1.8880320     1.7115100
  H        0.6655400     3.1093110     0.6831840
  H        2.9735430    -2.5473740     0.0946540
  H        3.7214290     2.5491860    -0.0588690
  H        4.6397270    -0.4238340    -1.0970870
  H       -3.8083950    -1.5223380     1.7347280
  H       -3.9305460     1.4455410     0.2493860
  H       -2.2297620     1.8928800    -0.0590960
  H       -3.8005210     3.1308820    -1.6026710
  H       -2.7171960     2.0533230    -2.5048750
  H       -4.4009440     1.5743230    -2.2127240
units angstrom
no_reorient  #important for SAPT in psi4, default
symmetry c1  #important for SAPT in psi4, default
}

set PROPERTIES_ORIGIN ["COM"]
properties('MP2/aug-cc-pvtz', properties = ['dipole'])
--------------------------------------------------------------------------

    Molecular point group: c1
  Charge       = 0
  Multiplicity = 1
  Basis Set: AUG-CC-PVTZ
    Blend: AUG-CC-PVTZ
  Basis Set: (AUG-CC-PVTZ AUX)
    Blend: AUG-CC-PVTZ-JKFIT

    Orbital Energies [Eh]
    ---------------------

    Doubly Occupied:

       1A    -80.116816     2A    -20.614638     3A    -20.606970
       4A    -20.598842     5A    -20.584432     6A    -20.577006
       7A    -20.574365     8A    -20.574344     9A    -20.573787
      10A    -20.523009    11A    -11.321425    12A    -11.313382
      13A    -11.299719    14A    -11.299347    15A    -11.299030
      16A    -11.296947    17A    -11.291794    18A    -11.229828
      19A     -7.632259    20A     -5.530765    21A     -5.530394
      22A     -5.529189    23A     -1.460182    24A     -1.410901
      25A     -1.394830    26A     -1.393103    27A     -1.386776
      28A     -1.373003    29A     -1.364127    30A     -1.353994
      31A     -1.303604    32A     -1.118808    33A     -1.040418
      34A     -1.011720    35A     -1.000787    36A     -0.878609
      37A     -0.864404    38A     -0.856860    39A     -0.822208
      40A     -0.810709    41A     -0.752013    42A     -0.744399
      43A     -0.729020    44A     -0.726769    45A     -0.706795
      46A     -0.686148    47A     -0.676839    48A     -0.672760
      49A     -0.662361    50A     -0.660999    51A     -0.640470
      52A     -0.634757    53A     -0.627009    54A     -0.614347
      55A     -0.603305    56A     -0.598551    57A     -0.581608
      58A     -0.575499    59A     -0.570917    60A     -0.559385
      61A     -0.555659    62A     -0.547644    63A     -0.540512
      64A     -0.536285    65A     -0.529254    66A     -0.521670
      67A     -0.513127    68A     -0.503756    69A     -0.496260
      70A     -0.484976    71A     -0.479501    72A     -0.476472
      73A     -0.462205    74A     -0.456058    75A     -0.448798
      76A     -0.432626

  @DF-RHF Final Energy: -1327.85418741321337

   => Energetics <=

    Nuclear Repulsion Energy =           1771.8729000767809794
    One-Electron Energy =               -5355.9100036465151788
    Two-Electron Energy =                2256.1829161565210597
    Total Energy =                      -1327.8541874132133671
  Basis Set: (AUG-CC-PVTZ AUX)
    Blend: AUG-CC-PVTZ-RI
    Molecular point group: c1

    Geometry (in Angstrom), charge = 0, multiplicity = 1:

       Center              X                  Y                   Z               Mass
    ------------   -----------------  -----------------  -----------------  -----------------
         P           -2.289909970121    -0.939792499541     0.344836323280    30.973761998420
         O           -0.981966970121    -0.201311499541     0.938447323280    15.994914619570
         O            1.342436029879    -1.675232499541     1.231009323280    15.994914619570
         O            0.078891029879     2.359854500459     0.462326323280    15.994914619570
         O            3.068701029879    -2.186821499541    -0.808431676720    15.994914619570
         O            2.847521029879     2.503363500459     0.371693323280    15.994914619570
         O            4.195874029879     0.435647500459    -0.972715676720    15.994914619570
         O           -2.826676970121     0.033601500459    -0.807372676720    15.994914619570
         O           -3.258934970121    -0.723031499541     1.621829323280    15.994914619570
         O           -2.118806970121    -2.343393499541    -0.099509676720    15.994914619570
         C            0.118348029879     0.030259500459     0.016477323280    12.000000000000
         C            0.953478029879    -1.243954499541    -0.075566676720    12.000000000000
         C            0.898775029879     1.202894500459     0.565009323280    12.000000000000
         C            2.259846029879    -1.014056499541    -0.817878676720    12.000000000000
         C            2.177261029879     1.396722500459    -0.227882676720    12.000000000000
         C            3.026028029879     0.148955500459    -0.210163676720    12.000000000000
         C           -3.124026970121     1.431848500459    -0.488727676720    12.000000000000
         C           -3.536130970121     2.085415500459    -1.783960676720    12.000000000000
         H           -0.282905970121     0.299051500459    -0.970079676720     1.007825032230
         H            0.317292529879    -2.100707599541    -0.617128976720     1.007825032230
         H            1.157306029879     0.998127500459     1.612314323280     1.007825032230
         H            2.061120029879    -0.788409499541    -1.872597676720     1.007825032230
         H            1.917173029879     1.636537500459    -1.273424676720     1.007825032230
         H            3.296041029879    -0.094281499541     0.827804323280     1.007825032230
         H            0.521961029879    -1.887781499541     1.711668323280     1.007825032230
         H            0.665726029879     3.109561500459     0.683342323280     1.007825032230
         H            2.973729029879    -2.547123499541     0.094812323280     1.007825032230
         H            3.721615029879     2.549436500459    -0.058710676720     1.007825032230
         H            4.639913029879    -0.423583499541    -1.096928676720     1.007825032230
         H           -3.808208970121    -1.522087499541     1.734886323280     1.007825032230
         H           -3.930359970121     1.445791500459     0.249544323280     1.007825032230
         H           -2.229575970121     1.893130500459    -0.058937676720     1.007825032230
         H           -3.800334970121     3.131132500459    -1.602512676720     1.007825032230
         H           -2.717009970121     2.053573500459    -2.504716676720     1.007825032230
         H           -4.400757970121     1.574573500459    -2.212565676720     1.007825032230

  Basis Set: AUG-CC-PVTZ
    Blend: AUG-CC-PVTZ
  Basis Set: (AUG-CC-PVTZ AUX)
    Blend: AUG-CC-PVTZ-JKFIT
	 Reference Energy          =   -1327.8541874132133671 [Eh]
	 Singles Energy            =      -0.0000000000000000 [Eh]
	 Same-Spin Energy          =      -1.0150180454041582 [Eh]
	 Opposite-Spin Energy      =      -3.0772640518312846 [Eh]
	 Correlation Energy        =      -4.0922820972354428 [Eh]
	 Total Energy              =   -1331.9464695104488783 [Eh]

	 ================> DF-SCS-MP2 Energies <==================
	-----------------------------------------------------------
	 SCS Same-Spin Scale       =       0.3333333333333333 [-]
	 SCS Opposite-Spin Scale   =       1.2000000000000000 [-]
	 SCS Same-Spin Energy      =      -0.3383393484680527 [Eh]
	 SCS Opposite-Spin Energy  =      -3.6927168621975412 [Eh]
	 SCS Correlation Energy    =      -4.0310562106655938 [Eh]
	 SCS Total Energy          =   -1331.8852436238789778 [Eh]
	-----------------------------------------------------------

  Dipole Moment: [D]
     X:    -1.1049      Y:     1.8734      Z:     0.7478     Total:     2.2999

*** Psi4 exiting successfully. Buy a developer a beer!
