                               Psi4 1.3.2 release

  ==> Input File <==

--------------------------------------------------------------------------
#psi4
#
memory 32 gb

molecule  {
0 1
  P       -2.2900960    -0.9400430     0.3446780
  O       -0.9821530    -0.2015620     0.9382890
  O        1.3422500    -1.6754830     1.2308510
  O        0.0787050     2.3596040     0.4621680
  O        3.0685150    -2.1870720    -0.8085900
  O        2.8473350     2.5031130     0.3715350
  O        4.1956880     0.4353970    -0.9728740
  O       -2.8470421     0.0421768    -0.7903355
  O       -3.2738948    -0.7042750     1.6069217
  O       -2.1189930    -2.3436440    -0.0996680
  C        0.1181620     0.0300090     0.0163190
  C        0.9532920    -1.2442050    -0.0757250
  C        0.8985890     1.2026440     0.5648510
  C        2.2596600    -1.0143070    -0.8180370
  C        2.1770750     1.3964720    -0.2280410
  C        3.0258420     0.1487050    -0.2103220
  C       -3.1242130     1.4315980    -0.4888860
  C       -3.5363170     2.0851650    -1.7841190
  H       -0.2830920     0.2988010    -0.9702380
  H        0.3702690    -2.0293640    -0.5720320
  H        1.1571200     0.9978770     1.6121560
  H        2.0609340    -0.7886600    -1.8727560
  H        1.9169870     1.6362870    -1.2735830
  H        3.2958550    -0.0945320     0.8276460
  H        0.5217750    -1.8880320     1.7115100
  H        0.6655400     3.1093110     0.6831840
  H        2.9735430    -2.5473740     0.0946540
  H        3.7214290     2.5491860    -0.0588690
  H        4.6397270    -0.4238340    -1.0970870
  H       -3.8083950    -1.5223380     1.7347280
  H       -3.9305460     1.4455410     0.2493860
  H       -2.2297620     1.8928800    -0.0590960
  H       -3.8005210     3.1308820    -1.6026710
  H       -2.7171960     2.0533230    -2.5048750
  H       -4.4009440     1.5743230    -2.2127240
units angstrom
no_reorient  #important for SAPT in psi4, default
symmetry c1  #important for SAPT in psi4, default
}

set PROPERTIES_ORIGIN ["COM"]
properties('MP2/aug-cc-pvtz', properties = ['dipole'])
--------------------------------------------------------------------------

    Molecular point group: c1
  Charge       = 0
  Multiplicity = 1
  Basis Set: AUG-CC-PVTZ
    Blend: AUG-CC-PVTZ
  Basis Set: (AUG-CC-PVTZ AUX)
    Blend: AUG-CC-PVTZ-JKFIT

    Orbital Energies [Eh]
    ---------------------

    Doubly Occupied:

       1A    -80.117778     2A    -20.614597     3A    -20.608095
       4A    -20.597023     5A    -20.583796     6A    -20.577049
       7A    -20.575045     8A    -20.574412     9A    -20.573572
      10A    -20.526105    11A    -11.321568    12A    -11.304212
      13A    -11.299830    14A    -11.299027    15A    -11.297016
      16A    -11.296503    17A    -11.291805    18A    -11.228473
      19A     -7.633187    20A     -5.531709    21A     -5.531359
      22A     -5.530093    23A     -1.460953    24A     -1.411393
      25A     -1.395092    26A     -1.393305    27A     -1.386771
      28A     -1.373356    29A     -1.364304    30A     -1.354195
      31A     -1.306065    32A     -1.119565    33A     -1.039242
      34A     -1.012439    35A     -1.003920    36A     -0.880780
      37A     -0.865146    38A     -0.859455    39A     -0.821185
      40A     -0.811131    41A     -0.752066    42A     -0.745129
      43A     -0.731171    44A     -0.729700    45A     -0.707709
      46A     -0.687472    47A     -0.678849    48A     -0.674299
      49A     -0.662592    50A     -0.661273    51A     -0.643380
      52A     -0.635617    53A     -0.627174    54A     -0.615845
      55A     -0.604065    56A     -0.598907    57A     -0.582619
      58A     -0.574870    59A     -0.571644    60A     -0.559782
      61A     -0.557024    62A     -0.548626    63A     -0.540783
      64A     -0.537003    65A     -0.529978    66A     -0.521987
      67A     -0.511564    68A     -0.504237    69A     -0.496175
      70A     -0.485107    71A     -0.480957    72A     -0.476296
      73A     -0.463107    74A     -0.456174    75A     -0.450691
      76A     -0.436816

  @DF-RHF Final Energy: -1327.86092025344828

   => Energetics <=

    Nuclear Repulsion Energy =           1772.5286839184805103
    One-Electron Energy =               -5357.1567267401242134
    Two-Electron Energy =                2256.7671225681951910
    Total Energy =                      -1327.8609202534485121
  Basis Set: (AUG-CC-PVTZ AUX)
    Blend: AUG-CC-PVTZ-RI
    Molecular point group: c1

    Geometry (in Angstrom), charge = 0, multiplicity = 1:

       Center              X                  Y                   Z               Mass
    ------------   -----------------  -----------------  -----------------  -----------------
         P           -2.288155167772    -0.941588430096     0.344542162742    30.973761998420
         O           -0.980212167772    -0.203107430096     0.938153162742    15.994914619570
         O            1.344190832228    -1.677028430096     1.230715162742    15.994914619570
         O            0.080645832228     2.358058569904     0.462032162742    15.994914619570
         O            3.070455832228    -2.188617430096    -0.808725837258    15.994914619570
         O            2.849275832228     2.501567569904     0.371399162742    15.994914619570
         O            4.197628832228     0.433851569904    -0.973009837258    15.994914619570
         O           -2.845101267772     0.040631369904    -0.790471337258    15.994914619570
         O           -3.271953967772    -0.705820430096     1.606785862742    15.994914619570
         O           -2.117052167772    -2.345189430096    -0.099803837258    15.994914619570
         C            0.120102832228     0.028463569904     0.016183162742    12.000000000000
         C            0.955232832228    -1.245750430096    -0.075860837258    12.000000000000
         C            0.900529832228     1.201098569904     0.564715162742    12.000000000000
         C            2.261600832228    -1.015852430096    -0.818172837258    12.000000000000
         C            2.179015832228     1.394926569904    -0.228176837258    12.000000000000
         C            3.027782832228     0.147159569904    -0.210457837258    12.000000000000
         C           -3.122272167772     1.430052569904    -0.489021837258    12.000000000000
         C           -3.534376167772     2.083619569904    -1.784254837258    12.000000000000
         H           -0.281151167772     0.297255569904    -0.970373837258     1.007825032230
         H            0.372209832228    -2.030909430096    -0.572167837258     1.007825032230
         H            1.159060832228     0.996331569904     1.612020162742     1.007825032230
         H            2.062874832228    -0.790205430096    -1.872891837258     1.007825032230
         H            1.918927832228     1.634741569904    -1.273718837258     1.007825032230
         H            3.297795832228    -0.096077430096     0.827510162742     1.007825032230
         H            0.523715832228    -1.889577430096     1.711374162742     1.007825032230
         H            0.667480832228     3.107765569904     0.683048162742     1.007825032230
         H            2.975483832228    -2.548919430096     0.094518162742     1.007825032230
         H            3.723369832228     2.547640569904    -0.059004837258     1.007825032230
         H            4.641667832228    -0.425379430096    -1.097222837258     1.007825032230
         H           -3.806454167772    -1.523883430096     1.734592162742     1.007825032230
         H           -3.928605167772     1.443995569904     0.249250162742     1.007825032230
         H           -2.227821167772     1.891334569904    -0.059231837258     1.007825032230
         H           -3.798580167772     3.129336569904    -1.602806837258     1.007825032230
         H           -2.715255167772     2.051777569904    -2.505010837258     1.007825032230
         H           -4.399003167772     1.572777569904    -2.212859837258     1.007825032230

  Basis Set: AUG-CC-PVTZ
    Blend: AUG-CC-PVTZ
  Basis Set: (AUG-CC-PVTZ AUX)
    Blend: AUG-CC-PVTZ-JKFIT
	 Reference Energy          =   -1327.8609202534482847 [Eh]
	 Singles Energy            =      -0.0000000000000000 [Eh]
	 Same-Spin Energy          =      -1.0147112518536596 [Eh]
	 Opposite-Spin Energy      =      -3.0761051873666823 [Eh]
	 Correlation Energy        =      -4.0908164392203421 [Eh]
	 Total Energy              =   -1331.9517366926686464 [Eh]

	 ================> DF-SCS-MP2 Energies <==================
	-----------------------------------------------------------
	 SCS Same-Spin Scale       =       0.3333333333333333 [-]
	 SCS Opposite-Spin Scale   =       1.2000000000000000 [-]
	 SCS Same-Spin Energy      =      -0.3382370839512199 [Eh]
	 SCS Opposite-Spin Energy  =      -3.6913262248400187 [Eh]
	 SCS Correlation Energy    =      -4.0295633087912384 [Eh]
	 SCS Total Energy          =   -1331.8904835622395240 [Eh]
	-----------------------------------------------------------

  Dipole Moment: [D]
     X:    -0.9967      Y:     1.7389      Z:     0.7411     Total:     2.1370

*** Psi4 exiting successfully. Buy a developer a beer!
