                               Psi4 1.3.2 release

  ==> Input File <==

--------------------------------------------------------------------------
#psi4
#
memory 32 gb

molecule  {
0 1
  P       -2.2900960    -0.9400430     0.3446780
  O       -0.9821530    -0.2015620     0.9382890
  O        1.3422500    -1.6754830     1.2308510
  O        0.0787050     2.3596040     0.4621680
  O        3.0685150    -2.1870720    -0.8085900
  O        2.8473350     2.5031130     0.3715350
  O        4.1956880     0.4353970    -0.9728740
  O       -2.8268630     0.0333510    -0.8075310
  O       -3.2591210    -0.7232820     1.6216710
  O       -2.1189930    -2.3436440    -0.0996680
  C        0.1181620     0.0300090     0.0163190
  C        0.9532920    -1.2442050    -0.0757250
  C        0.8985890     1.2026440     0.5648510
  C        2.2805713    -1.0300364    -0.8137204
  C        2.1967875     1.4097640    -0.2167039
  C        3.0258420     0.1487050    -0.2103220
  C       -3.1242130     1.4315980    -0.4888860
  C       -3.5363170     2.0851650    -1.7841190
  H       -0.2830920     0.2988010    -0.9702380
  H        0.3702690    -2.0293640    -0.5720320
  H        1.1571200     0.9978770     1.6121560
  H        2.0609340    -0.7886600    -1.8727560
  H        1.9169870     1.6362870    -1.2735830
  H        3.2958550    -0.0945320     0.8276460
  H        0.5217750    -1.8880320     1.7115100
  H        0.6655400     3.1093110     0.6831840
  H        2.9735430    -2.5473740     0.0946540
  H        3.7214290     2.5491860    -0.0588690
  H        4.6397270    -0.4238340    -1.0970870
  H       -3.8083950    -1.5223380     1.7347280
  H       -3.9305460     1.4455410     0.2493860
  H       -2.2297620     1.8928800    -0.0590960
  H       -3.8005210     3.1308820    -1.6026710
  H       -2.7171960     2.0533230    -2.5048750
  H       -4.4009440     1.5743230    -2.2127240
units angstrom
no_reorient  #important for SAPT in psi4, default
symmetry c1  #important for SAPT in psi4, default
}

set PROPERTIES_ORIGIN ["COM"]
properties('MP2/aug-cc-pvtz', properties = ['dipole'])
--------------------------------------------------------------------------

    Molecular point group: c1
  Charge       = 0
  Multiplicity = 1
  Basis Set: AUG-CC-PVTZ
    Blend: AUG-CC-PVTZ
  Basis Set: (AUG-CC-PVTZ AUX)
    Blend: AUG-CC-PVTZ-JKFIT

    Orbital Energies [Eh]
    ---------------------

    Doubly Occupied:

       1A    -80.116561     2A    -20.614411     3A    -20.606649
       4A    -20.598528     5A    -20.582234     6A    -20.579828
       7A    -20.577451     8A    -20.573186     9A    -20.572817
      10A    -20.523021    11A    -11.320125    12A    -11.302592
      13A    -11.299664    14A    -11.299013    15A    -11.297919
      16A    -11.297001    17A    -11.289918    18A    -11.229527
      19A     -7.632009    20A     -5.530515    21A     -5.530143
      22A     -5.528940    23A     -1.459869    24A     -1.413494
      25A     -1.399078    26A     -1.395931    27A     -1.386580
      28A     -1.372499    29A     -1.368182    30A     -1.358073
      31A     -1.303420    32A     -1.114714    33A     -1.040079
      34A     -1.010777    35A     -0.999488    36A     -0.879390
      37A     -0.864464    38A     -0.859499    39A     -0.822395
      40A     -0.809185    41A     -0.752357    42A     -0.746002
      43A     -0.730832    44A     -0.728402    45A     -0.709523
      46A     -0.686777    47A     -0.679808    48A     -0.673463
      49A     -0.664145    50A     -0.662038    51A     -0.644545
      52A     -0.634504    53A     -0.628688    54A     -0.616455
      55A     -0.604864    56A     -0.599783    57A     -0.581713
      58A     -0.575285    59A     -0.570914    60A     -0.561190
      61A     -0.556633    62A     -0.548206    63A     -0.541648
      64A     -0.538358    65A     -0.528302    66A     -0.520814
      67A     -0.512801    68A     -0.502618    69A     -0.496141
      70A     -0.483376    71A     -0.479381    72A     -0.476147
      73A     -0.459600    74A     -0.453967    75A     -0.447649
      76A     -0.434682

  @DF-RHF Final Energy: -1327.86090278660731

   => Energetics <=

    Nuclear Repulsion Energy =           1772.0842203007111948
    One-Electron Energy =               -5356.3086870540546442
    Two-Electron Energy =                2256.3635639667359101
    Total Energy =                      -1327.8609027866073120
  Basis Set: (AUG-CC-PVTZ AUX)
    Blend: AUG-CC-PVTZ-RI
    Molecular point group: c1

    Geometry (in Angstrom), charge = 0, multiplicity = 1:

       Center              X                  Y                   Z               Mass
    ------------   -----------------  -----------------  -----------------  -----------------
         P           -2.291788266948    -0.939941445505     0.344025891431    30.973761998420
         O           -0.983845266948    -0.201460445505     0.937636891431    15.994914619570
         O            1.340557733052    -1.675381445505     1.230198891431    15.994914619570
         O            0.077012733052     2.359705554495     0.461515891431    15.994914619570
         O            3.066822733052    -2.186970445505    -0.809242108569    15.994914619570
         O            2.845642733052     2.503214554495     0.370882891431    15.994914619570
         O            4.193995733052     0.435498554495    -0.973526108569    15.994914619570
         O           -2.828555266948     0.033452554495    -0.808183108569    15.994914619570
         O           -3.260813266948    -0.723180445505     1.621018891431    15.994914619570
         O           -2.120685266948    -2.343542445505    -0.100320108569    15.994914619570
         C            0.116469733052     0.030110554495     0.015666891431    12.000000000000
         C            0.951599733052    -1.244103445505    -0.076377108569    12.000000000000
         C            0.896896733052     1.202745554495     0.564198891431    12.000000000000
         C            2.278879033052    -1.029934845505    -0.814372508569    12.000000000000
         C            2.195095233052     1.409865554495    -0.217356008569    12.000000000000
         C            3.024149733052     0.148806554495    -0.210974108569    12.000000000000
         C           -3.125905266948     1.431699554495    -0.489538108569    12.000000000000
         C           -3.538009266948     2.085266554495    -1.784771108569    12.000000000000
         H           -0.284784266948     0.298902554495    -0.970890108569     1.007825032230
         H            0.368576733052    -2.029262445505    -0.572684108569     1.007825032230
         H            1.155427733052     0.997978554495     1.611503891431     1.007825032230
         H            2.059241733052    -0.788558445505    -1.873408108569     1.007825032230
         H            1.915294733052     1.636388554495    -1.274235108569     1.007825032230
         H            3.294162733052    -0.094430445505     0.826993891431     1.007825032230
         H            0.520082733052    -1.887930445505     1.710857891431     1.007825032230
         H            0.663847733052     3.109412554495     0.682531891431     1.007825032230
         H            2.971850733052    -2.547272445505     0.094001891431     1.007825032230
         H            3.719736733052     2.549287554495    -0.059521108569     1.007825032230
         H            4.638034733052    -0.423732445505    -1.097739108569     1.007825032230
         H           -3.810087266948    -1.522236445505     1.734075891431     1.007825032230
         H           -3.932238266948     1.445642554495     0.248733891431     1.007825032230
         H           -2.231454266948     1.892981554495    -0.059748108569     1.007825032230
         H           -3.802213266948     3.130983554495    -1.603323108569     1.007825032230
         H           -2.718888266948     2.053424554495    -2.505527108569     1.007825032230
         H           -4.402636266948     1.574424554495    -2.213376108569     1.007825032230

  Basis Set: AUG-CC-PVTZ
    Blend: AUG-CC-PVTZ
  Basis Set: (AUG-CC-PVTZ AUX)
    Blend: AUG-CC-PVTZ-JKFIT
	 Reference Energy          =   -1327.8609027866073120 [Eh]
	 Singles Energy            =      -0.0000000000000000 [Eh]
	 Same-Spin Energy          =      -1.0144669163068920 [Eh]
	 Opposite-Spin Energy      =      -3.0754078513127845 [Eh]
	 Correlation Energy        =      -4.0898747676196763 [Eh]
	 Total Energy              =   -1331.9507775542269883 [Eh]

	 ================> DF-SCS-MP2 Energies <==================
	-----------------------------------------------------------
	 SCS Same-Spin Scale       =       0.3333333333333333 [-]
	 SCS Opposite-Spin Scale   =       1.2000000000000000 [-]
	 SCS Same-Spin Energy      =      -0.3381556387689640 [Eh]
	 SCS Opposite-Spin Energy  =      -3.6904894215753412 [Eh]
	 SCS Correlation Energy    =      -4.0286450603443056 [Eh]
	 SCS Total Energy          =   -1331.8895478469517002 [Eh]
	-----------------------------------------------------------

  Dipole Moment: [D]
     X:    -1.0063      Y:     1.8592      Z:     0.7587     Total:     2.2461

*** Psi4 exiting successfully. Buy a developer a beer!
