                               Psi4 1.4a3.dev225

  ==> Input File <==

--------------------------------------------------------------------------
#psi4
#
memory 32 gb

molecule  {
0 1
  P       -2.3219140    -1.0563120    -0.0968450
  O       -1.0285840    -0.5623410     0.7549430
  O        1.3695440    -1.8069540     1.2202350
  O       -0.1592450     2.1412630     0.5207450
  O        3.3269040    -2.0858120    -0.6453880
  O        2.5724350     2.5270130     0.6374560
  O        4.2203020     0.6406430    -0.6358120
  O       -2.8667993     0.2478432    -0.8007649
  O       -3.3065970    -1.3497020     1.1531960
  O       -2.1044560    -2.1814480    -1.0350500
  C        0.1200290    -0.1583450    -0.0432010
  C        1.0698050    -1.3527180    -0.1046720
  C        0.7441670     1.0454510     0.6308160
  C        2.4193320    -0.9866070    -0.7068450
  C        2.0603010     1.3853380    -0.0470020
  C        3.0180900     0.2181970     0.0056710
  C       -3.2473180     1.4231610     0.0025120
  C       -3.2076300     2.6262440    -0.9075720
  H       -0.2047330     0.1313700    -1.0514980
  H        0.5965010    -2.1549610    -0.6866410
  H        0.9371260     0.8063110     1.6860210
  H        2.3054700    -0.7437210    -1.7704410
  H        1.8633300     1.6367370    -1.1028410
  H        3.2142070    -0.0417910     1.0561650
  H        0.5126160    -2.0057500     1.6426110
  H        0.3598300     2.9232990     0.7925780
  H        3.1793900    -2.4823080     0.2360710
  H        3.4672560     2.6739710     0.2770410
  H        4.7639490    -0.1654590    -0.7244900
  H       -3.7873380    -2.1826420     0.9908450
  H       -4.2474700     1.2335250     0.4005830
  H       -2.5352900     1.5309660     0.8217280
  H       -3.5402110     3.5125760    -0.3587690
  H       -2.1856630     2.7912820    -1.2511950
  H       -3.8637180     2.4807570    -1.7684970
units angstrom
no_reorient  #important for SAPT in psi4, default
symmetry c1  #important for SAPT in psi4, default
}

set PROPERTIES_ORIGIN ["COM"]
properties('MP2/aug-cc-pvtz', properties = ['dipole'])
--------------------------------------------------------------------------

    Molecular point group: c1
  Charge       = 0
  Multiplicity = 1
  Basis Set: AUG-CC-PVTZ
    Blend: AUG-CC-PVTZ
  Basis Set: (AUG-CC-PVTZ AUX)
    Blend: AUG-CC-PVTZ-JKFIT

    Orbital Energies [Eh]
    ---------------------

    Doubly Occupied:

       1A    -80.113748     2A    -20.613270     3A    -20.606407
       4A    -20.596022     5A    -20.583570     6A    -20.578390
       7A    -20.575143     8A    -20.574853     9A    -20.574700
      10A    -20.520404    11A    -11.320783    12A    -11.304711
      13A    -11.300348    14A    -11.299956    15A    -11.299172
      16A    -11.298199    17A    -11.292780    18A    -11.224800
      19A     -7.629447    20A     -5.527961    21A     -5.527539
      22A     -5.526411    23A     -1.459180    24A     -1.410617
      25A     -1.395101    26A     -1.392107    27A     -1.386008
      28A     -1.372339    29A     -1.364035    30A     -1.354036
      31A     -1.300844    32A     -1.118399    33A     -1.038273
      34A     -1.010970    35A     -1.003255    36A     -0.877631
      37A     -0.864236    38A     -0.859233    39A     -0.822007
      40A     -0.809682    41A     -0.754226    42A     -0.745678
      43A     -0.728960    44A     -0.726359    45A     -0.705345
      46A     -0.686840    47A     -0.679148    48A     -0.674007
      49A     -0.662117    50A     -0.658848    51A     -0.641613
      52A     -0.637289    53A     -0.623890    54A     -0.613634
      55A     -0.603883    56A     -0.596699    57A     -0.580418
      58A     -0.577700    59A     -0.570265    60A     -0.559699
      61A     -0.554639    62A     -0.549145    63A     -0.539194
      64A     -0.537872    65A     -0.529760    66A     -0.517762
      67A     -0.509884    68A     -0.503654    69A     -0.494695
      70A     -0.487739    71A     -0.478957    72A     -0.474695
      73A     -0.462072    74A     -0.457150    75A     -0.450528
      76A     -0.436377

  @DF-RHF Final Energy: -1327.86197838779822

   => Energetics <=

    Nuclear Repulsion Energy =           1775.2755219251903327
    One-Electron Energy =               -5362.8003905913137714
    Two-Electron Energy =                2259.6628902783254489
    Total Energy =                      -1327.8619783877979899
  Basis Set: (AUG-CC-PVTZ AUX)
    Blend: AUG-CC-PVTZ-RI
    Molecular point group: c1

    Geometry (in Angstrom), charge = 0, multiplicity = 1:

       Center              X                  Y                   Z               Mass
    ------------   -----------------  -----------------  -----------------  -----------------
         P           -2.311535841795    -1.017615716051    -0.099784554207    30.973761998420
         O           -1.018205841795    -0.523644716051     0.752003445793    15.994914619570
         O            1.379922158205    -1.768257716051     1.217295445793    15.994914619570
         O           -0.148866841795     2.179959283949     0.517805445793    15.994914619570
         O            3.337282158205    -2.047115716051    -0.648327554207    15.994914619570
         O            2.582813158205     2.565709283949     0.634516445793    15.994914619570
         O            4.230680158205     0.679339283949    -0.638751554207    15.994914619570
         O           -2.856421141795     0.286539483949    -0.803704454207    15.994914619570
         O           -3.296218841795    -1.311005716051     1.150256445793    15.994914619570
         O           -2.094077841795    -2.142751716051    -1.037989554207    15.994914619570
         C            0.130407158205    -0.119648716051    -0.046140554207    12.000000000000
         C            1.080183158205    -1.314021716051    -0.107611554207    12.000000000000
         C            0.754545158205     1.084147283949     0.627876445793    12.000000000000
         C            2.429710158205    -0.947910716051    -0.709784554207    12.000000000000
         C            2.070679158205     1.424034283949    -0.049941554207    12.000000000000
         C            3.028468158205     0.256893283949     0.002731445793    12.000000000000
         C           -3.236939841795     1.461857283949    -0.000427554207    12.000000000000
         C           -3.197251841795     2.664940283949    -0.910511554207    12.000000000000
         H           -0.194354841795     0.170066283949    -1.054437554207     1.007825032230
         H            0.606879158205    -2.116264716051    -0.689580554207     1.007825032230
         H            0.947504158205     0.845007283949     1.683081445793     1.007825032230
         H            2.315848158205    -0.705024716051    -1.773380554207     1.007825032230
         H            1.873708158205     1.675433283949    -1.105780554207     1.007825032230
         H            3.224585158205    -0.003094716051     1.053225445793     1.007825032230
         H            0.522994158205    -1.967053716051     1.639671445793     1.007825032230
         H            0.370208158205     2.961995283949     0.789638445793     1.007825032230
         H            3.189768158205    -2.443611716051     0.233131445793     1.007825032230
         H            3.477634158205     2.712667283949     0.274101445793     1.007825032230
         H            4.774327158205    -0.126762716051    -0.727429554207     1.007825032230
         H           -3.776959841795    -2.143945716051     0.987905445793     1.007825032230
         H           -4.237091841795     1.272221283949     0.397643445793     1.007825032230
         H           -2.524911841795     1.569662283949     0.818788445793     1.007825032230
         H           -3.529832841795     3.551272283949    -0.361708554207     1.007825032230
         H           -2.175284841795     2.829978283949    -1.254134554207     1.007825032230
         H           -3.853339841795     2.519453283949    -1.771436554207     1.007825032230

  Basis Set: AUG-CC-PVTZ
    Blend: AUG-CC-PVTZ
  Basis Set: (AUG-CC-PVTZ AUX)
    Blend: AUG-CC-PVTZ-JKFIT
	 Reference Energy          =   -1327.8619783877982172 [Eh]
	 Singles Energy            =      -0.0000000000000000 [Eh]
	 Same-Spin Energy          =      -1.0144327942903018 [Eh]
	 Opposite-Spin Energy      =      -3.0759208096342032 [Eh]
	 Correlation Energy        =      -4.0903536039245054 [Eh]
	 Total Energy              =   -1331.9523319917227582 [Eh]

	 ================> DF-SCS-MP2 Energies <==================
	-----------------------------------------------------------
	 SCS Same-Spin Scale       =       0.3333333333333333 [-]
	 SCS Opposite-Spin Scale   =       1.2000000000000000 [-]
	 SCS Same-Spin Energy      =      -0.3381442647634339 [Eh]
	 SCS Opposite-Spin Energy  =      -3.6911049715610438 [Eh]
	 SCS Correlation Energy    =      -4.0292492363244774 [Eh]
	 SCS Total Energy          =   -1331.8912276241226209 [Eh]
	-----------------------------------------------------------

  Dipole Moment: [D]
     X:    -0.9361      Y:     1.5595      Z:     1.8483     Total:     2.5931

*** Psi4 exiting successfully. Buy a developer a beer!
