                               Psi4 1.3.2 release

  ==> Input File <==

--------------------------------------------------------------------------
#psi4
#
memory 32 gb

molecule  {
0 1
  P       -2.2900960    -0.9400430     0.3446780
  O       -0.9821530    -0.2015620     0.9382890
  O        1.3422500    -1.6754830     1.2308510
  O        0.0787050     2.3596040     0.4621680
  O        3.0685150    -2.1870720    -0.8085900
  O        2.8473350     2.5031130     0.3715350
  O        4.1885978     0.4373926    -0.9828994
  O       -2.8268630     0.0333510    -0.8075310
  O       -3.2591210    -0.7232820     1.6216710
  O       -2.1189930    -2.3436440    -0.0996680
  C        0.1181620     0.0300090     0.0163190
  C        0.9532920    -1.2442050    -0.0757250
  C        0.8985890     1.2026440     0.5648510
  C        2.2596600    -1.0143070    -0.8180370
  C        2.1770750     1.3964720    -0.2280410
  C        3.0258420     0.1487050    -0.2103220
  C       -3.1242130     1.4315980    -0.4888860
  C       -3.5363170     2.0851650    -1.7841190
  H       -0.2830920     0.2988010    -0.9702380
  H        0.3702690    -2.0293640    -0.5720320
  H        1.1571200     0.9978770     1.6121560
  H        2.0609340    -0.7886600    -1.8727560
  H        1.9169870     1.6362870    -1.2735830
  H        3.2865703    -0.0957938     0.8297212
  H        0.5217750    -1.8880320     1.7115100
  H        0.6655400     3.1093110     0.6831840
  H        2.9735430    -2.5473740     0.0946540
  H        3.7214290     2.5491860    -0.0588690
  H        4.6397270    -0.4238340    -1.0970870
  H       -3.8083950    -1.5223380     1.7347280
  H       -3.9305460     1.4455410     0.2493860
  H       -2.2297620     1.8928800    -0.0590960
  H       -3.8005210     3.1308820    -1.6026710
  H       -2.7171960     2.0533230    -2.5048750
  H       -4.4009440     1.5743230    -2.2127240
units angstrom
no_reorient  #important for SAPT in psi4, default
symmetry c1  #important for SAPT in psi4, default
}

set PROPERTIES_ORIGIN ["COM"]
properties('MP2/aug-cc-pvtz', properties = ['dipole'])
--------------------------------------------------------------------------

    Molecular point group: c1
  Charge       = 0
  Multiplicity = 1
  Basis Set: AUG-CC-PVTZ
    Blend: AUG-CC-PVTZ
  Basis Set: (AUG-CC-PVTZ AUX)
    Blend: AUG-CC-PVTZ-JKFIT

    Orbital Energies [Eh]
    ---------------------

    Doubly Occupied:

       1A    -80.116908     2A    -20.614706     3A    -20.606988
       4A    -20.598901     5A    -20.583156     6A    -20.576793
       7A    -20.574941     8A    -20.574595     9A    -20.573405
      10A    -20.523399    11A    -11.320693    12A    -11.303404
      13A    -11.299349    14A    -11.299074    15A    -11.298530
      16A    -11.296497    17A    -11.291481    18A    -11.229829
      19A     -7.632358    20A     -5.530864    21A     -5.530491
      22A     -5.529289    23A     -1.460251    24A     -1.410807
      25A     -1.394634    26A     -1.392976    27A     -1.386820
      28A     -1.372604    29A     -1.363934    30A     -1.353671
      31A     -1.303796    32A     -1.118974    33A     -1.040424
      34A     -1.011922    35A     -1.003363    36A     -0.880166
      37A     -0.864857    38A     -0.858954    39A     -0.822212
      40A     -0.810644    41A     -0.751762    42A     -0.745288
      43A     -0.731188    44A     -0.728574    45A     -0.707750
      46A     -0.687061    47A     -0.678085    48A     -0.673524
      49A     -0.662583    50A     -0.661035    51A     -0.643056
      52A     -0.634444    53A     -0.627233    54A     -0.615295
      55A     -0.603547    56A     -0.598379    57A     -0.581631
      58A     -0.575524    59A     -0.571129    60A     -0.559332
      61A     -0.556809    62A     -0.548468    63A     -0.541142
      64A     -0.536456    65A     -0.529844    66A     -0.521575
      67A     -0.513060    68A     -0.504693    69A     -0.497036
      70A     -0.484804    71A     -0.479807    72A     -0.476595
      73A     -0.462334    74A     -0.456115    75A     -0.450032
      76A     -0.436028

  @DF-RHF Final Energy: -1327.86102791481539

   => Energetics <=

    Nuclear Repulsion Energy =           1772.5411200670337166
    One-Electron Energy =               -5357.2285360247751669
    Two-Electron Energy =                2256.8263880429262827
    Total Energy =                      -1327.8610279148151676
  Basis Set: (AUG-CC-PVTZ AUX)
    Blend: AUG-CC-PVTZ-RI
    Molecular point group: c1

    Geometry (in Angstrom), charge = 0, multiplicity = 1:

       Center              X                  Y                   Z               Mass
    ------------   -----------------  -----------------  -----------------  -----------------
         P           -2.289669791847    -0.940149375680     0.345227402068    30.973761998420
         O           -0.981726791847    -0.201668375680     0.938838402068    15.994914619570
         O            1.342676208153    -1.675589375680     1.231400402068    15.994914619570
         O            0.079131208153     2.359497624320     0.462717402068    15.994914619570
         O            3.068941208153    -2.187178375680    -0.808040597932    15.994914619570
         O            2.847761208153     2.503006624320     0.372084402068    15.994914619570
         O            4.189024008153     0.437286224320    -0.982349997932    15.994914619570
         O           -2.826436791847     0.033244624320    -0.806981597932    15.994914619570
         O           -3.258694791847    -0.723388375680     1.622220402068    15.994914619570
         O           -2.118566791847    -2.343750375680    -0.099118597932    15.994914619570
         C            0.118588208153     0.029902624320     0.016868402068    12.000000000000
         C            0.953718208153    -1.244311375680    -0.075175597932    12.000000000000
         C            0.899015208153     1.202537624320     0.565400402068    12.000000000000
         C            2.260086208153    -1.014413375680    -0.817487597932    12.000000000000
         C            2.177501208153     1.396365624320    -0.227491597932    12.000000000000
         C            3.026268208153     0.148598624320    -0.209772597932    12.000000000000
         C           -3.123786791847     1.431491624320    -0.488336597932    12.000000000000
         C           -3.535890791847     2.085058624320    -1.783569597932    12.000000000000
         H           -0.282665791847     0.298694624320    -0.969688597932     1.007825032230
         H            0.370695208153    -2.029470375680    -0.571482597932     1.007825032230
         H            1.157546208153     0.997770624320     1.612705402068     1.007825032230
         H            2.061360208153    -0.788766375680    -1.872206597932     1.007825032230
         H            1.917413208153     1.636180624320    -1.273033597932     1.007825032230
         H            3.286996508153    -0.095900175680     0.830270602068     1.007825032230
         H            0.522201208153    -1.888138375680     1.712059402068     1.007825032230
         H            0.665966208153     3.109204624320     0.683733402068     1.007825032230
         H            2.973969208153    -2.547480375680     0.095203402068     1.007825032230
         H            3.721855208153     2.549079624320    -0.058319597932     1.007825032230
         H            4.640153208153    -0.423940375680    -1.096537597932     1.007825032230
         H           -3.807968791847    -1.522444375680     1.735277402068     1.007825032230
         H           -3.930119791847     1.445434624320     0.249935402068     1.007825032230
         H           -2.229335791847     1.892773624320    -0.058546597932     1.007825032230
         H           -3.800094791847     3.130775624320    -1.602121597932     1.007825032230
         H           -2.716769791847     2.053216624320    -2.504325597932     1.007825032230
         H           -4.400517791847     1.574216624320    -2.212174597932     1.007825032230

  Basis Set: AUG-CC-PVTZ
    Blend: AUG-CC-PVTZ
  Basis Set: (AUG-CC-PVTZ AUX)
    Blend: AUG-CC-PVTZ-JKFIT
	 Reference Energy          =   -1327.8610279148153950 [Eh]
	 Singles Energy            =      -0.0000000000000000 [Eh]
	 Same-Spin Energy          =      -1.0147006071885663 [Eh]
	 Opposite-Spin Energy      =      -3.0762889593572798 [Eh]
	 Correlation Energy        =      -4.0909895665458462 [Eh]
	 Total Energy              =   -1331.9520174813612812 [Eh]

	 ================> DF-SCS-MP2 Energies <==================
	-----------------------------------------------------------
	 SCS Same-Spin Scale       =       0.3333333333333333 [-]
	 SCS Opposite-Spin Scale   =       1.2000000000000000 [-]
	 SCS Same-Spin Energy      =      -0.3382335357295221 [Eh]
	 SCS Opposite-Spin Energy  =      -3.6915467512287354 [Eh]
	 SCS Correlation Energy    =      -4.0297802869582577 [Eh]
	 SCS Total Energy          =   -1331.8908082017735524 [Eh]
	-----------------------------------------------------------

  Dipole Moment: [D]
     X:    -1.0928      Y:     1.8615      Z:     0.7380     Total:     2.2813

*** Psi4 exiting successfully. Buy a developer a beer!
