                               Psi4 1.3.2 release

  ==> Input File <==

--------------------------------------------------------------------------
#psi4
#
memory 32 gb

molecule  {
0 1
  P       -2.2900960    -0.9400430     0.3446780
  O       -0.9821530    -0.2015620     0.9382890
  O        1.3422500    -1.6754830     1.2308510
  O        0.0787050     2.3596040     0.4621680
  O        3.0685150    -2.1870720    -0.8085900
  O        2.8473350     2.5031130     0.3715350
  O        4.1956880     0.4353970    -0.9728740
  O       -2.8268630     0.0333510    -0.8075310
  O       -3.2591210    -0.7232820     1.6216710
  O       -2.1189930    -2.3436440    -0.0996680
  C        0.1181620     0.0300090     0.0163190
  C        0.9532920    -1.2442050    -0.0757250
  C        0.8985890     1.2026440     0.5648510
  C        2.2596600    -1.0143070    -0.8180370
  C        2.1770750     1.3964720    -0.2280410
  C        3.0258420     0.1487050    -0.2103220
  C       -3.1242130     1.4315980    -0.4888860
  C       -3.5363170     2.0851650    -1.7841190
  H       -0.2830920     0.2988010    -0.9702380
  H        0.3702690    -2.0293640    -0.5720320
  H        1.1571200     0.9978770     1.6121560
  H        2.0790537    -0.8092343    -1.7765875
  H        1.9169870     1.6362870    -1.2735830
  H        3.2958550    -0.0945320     0.8276460
  H        0.5217750    -1.8880320     1.7115100
  H        0.6655400     3.1093110     0.6831840
  H        2.9735430    -2.5473740     0.0946540
  H        3.7214290     2.5491860    -0.0588690
  H        4.6397270    -0.4238340    -1.0970870
  H       -3.8083950    -1.5223380     1.7347280
  H       -3.9305460     1.4455410     0.2493860
  H       -2.2297620     1.8928800    -0.0590960
  H       -3.8005210     3.1308820    -1.6026710
  H       -2.7171960     2.0533230    -2.5048750
  H       -4.4009440     1.5743230    -2.2127240
units angstrom
no_reorient  #important for SAPT in psi4, default
symmetry c1  #important for SAPT in psi4, default
}

set PROPERTIES_ORIGIN ["COM"]
properties('MP2/aug-cc-pvtz', properties = ['dipole'])
--------------------------------------------------------------------------

    Molecular point group: c1
  Charge       = 0
  Multiplicity = 1
  Basis Set: AUG-CC-PVTZ
    Blend: AUG-CC-PVTZ
  Basis Set: (AUG-CC-PVTZ AUX)
    Blend: AUG-CC-PVTZ-JKFIT

    Orbital Energies [Eh]
    ---------------------

    Doubly Occupied:

       1A    -80.116993     2A    -20.614765     3A    -20.607090
       4A    -20.599020     5A    -20.582668     6A    -20.576892
       7A    -20.574178     8A    -20.573545     9A    -20.573354
      10A    -20.523474    11A    -11.320889    12A    -11.302927
      13A    -11.299461    14A    -11.298708    15A    -11.296864
      16A    -11.290700    17A    -11.287130    18A    -11.229948
      19A     -7.632443    20A     -5.530949    21A     -5.530576
      22A     -5.529374    23A     -1.460334    24A     -1.410713
      25A     -1.394735    26A     -1.392845    27A     -1.386919
      28A     -1.372684    29A     -1.363716    30A     -1.353654
      31A     -1.303872    32A     -1.120404    33A     -1.040564
      34A     -1.013231    35A     -1.006497    36A     -0.880194
      37A     -0.865121    38A     -0.864875    39A     -0.824391
      40A     -0.814293    41A     -0.751639    42A     -0.746236
      43A     -0.731753    44A     -0.728670    45A     -0.707979
      46A     -0.688143    47A     -0.678148    48A     -0.673859
      49A     -0.662280    50A     -0.661193    51A     -0.643443
      52A     -0.635645    53A     -0.627443    54A     -0.615882
      55A     -0.605049    56A     -0.600497    57A     -0.582655
      58A     -0.576094    59A     -0.570964    60A     -0.560188
      61A     -0.558550    62A     -0.548653    63A     -0.541684
      64A     -0.538505    65A     -0.531023    66A     -0.522554
      67A     -0.513727    68A     -0.504507    69A     -0.497237
      70A     -0.485268    71A     -0.479865    72A     -0.476701
      73A     -0.462413    74A     -0.455786    75A     -0.450073
      76A     -0.436120

  @DF-RHF Final Energy: -1327.85587912912069

   => Energetics <=

    Nuclear Repulsion Energy =           1773.0955716414589460
    One-Electron Energy =               -5358.2800722480578770
    Two-Electron Energy =                2257.3286214774780092
    Total Energy =                      -1327.8558791291206944
  Basis Set: (AUG-CC-PVTZ AUX)
    Blend: AUG-CC-PVTZ-RI
    Molecular point group: c1

    Geometry (in Angstrom), charge = 0, multiplicity = 1:

       Center              X                  Y                   Z               Mass
    ------------   -----------------  -----------------  -----------------  -----------------
         P           -2.290159361676    -0.939971000026     0.344341530731    30.973761998420
         O           -0.982216361676    -0.201490000026     0.937952530731    15.994914619570
         O            1.342186638324    -1.675411000026     1.230514530731    15.994914619570
         O            0.078641638324     2.359675999974     0.461831530731    15.994914619570
         O            3.068451638324    -2.187000000026    -0.808926469269    15.994914619570
         O            2.847271638324     2.503184999974     0.371198530731    15.994914619570
         O            4.195624638324     0.435468999974    -0.973210469269    15.994914619570
         O           -2.826926361676     0.033422999974    -0.807867469269    15.994914619570
         O           -3.259184361676    -0.723210000026     1.621334530731    15.994914619570
         O           -2.119056361676    -2.343572000026    -0.100004469269    15.994914619570
         C            0.118098638324     0.030080999974     0.015982530731    12.000000000000
         C            0.953228638324    -1.244133000026    -0.076061469269    12.000000000000
         C            0.898525638324     1.202715999974     0.564514530731    12.000000000000
         C            2.259596638324    -1.014235000026    -0.818373469269    12.000000000000
         C            2.177011638324     1.396543999974    -0.228377469269    12.000000000000
         C            3.025778638324     0.148776999974    -0.210658469269    12.000000000000
         C           -3.124276361676     1.431669999974    -0.489222469269    12.000000000000
         C           -3.536380361676     2.085236999974    -1.784455469269    12.000000000000
         H           -0.283155361676     0.298872999974    -0.970574469269     1.007825032230
         H            0.370205638324    -2.029292000026    -0.572368469269     1.007825032230
         H            1.157056638324     0.997948999974     1.611819530731     1.007825032230
         H            2.078990338324    -0.809162300026    -1.776923969269     1.007825032230
         H            1.916923638324     1.636358999974    -1.273919469269     1.007825032230
         H            3.295791638324    -0.094460000026     0.827309530731     1.007825032230
         H            0.521711638324    -1.887960000026     1.711173530731     1.007825032230
         H            0.665476638324     3.109382999974     0.682847530731     1.007825032230
         H            2.973479638324    -2.547302000026     0.094317530731     1.007825032230
         H            3.721365638324     2.549257999974    -0.059205469269     1.007825032230
         H            4.639663638324    -0.423762000026    -1.097423469269     1.007825032230
         H           -3.808458361676    -1.522266000026     1.734391530731     1.007825032230
         H           -3.930609361676     1.445612999974     0.249049530731     1.007825032230
         H           -2.229825361676     1.892951999974    -0.059432469269     1.007825032230
         H           -3.800584361676     3.130953999974    -1.603007469269     1.007825032230
         H           -2.717259361676     2.053394999974    -2.505211469269     1.007825032230
         H           -4.401007361676     1.574394999974    -2.213060469269     1.007825032230

  Basis Set: AUG-CC-PVTZ
    Blend: AUG-CC-PVTZ
  Basis Set: (AUG-CC-PVTZ AUX)
    Blend: AUG-CC-PVTZ-JKFIT
	 Reference Energy          =   -1327.8558791291206944 [Eh]
	 Singles Energy            =      -0.0000000000000000 [Eh]
	 Same-Spin Energy          =      -1.0144560425848390 [Eh]
	 Opposite-Spin Energy      =      -3.0754399299277790 [Eh]
	 Correlation Energy        =      -4.0898959725126183 [Eh]
	 Total Energy              =   -1331.9457751016332168 [Eh]

	 ================> DF-SCS-MP2 Energies <==================
	-----------------------------------------------------------
	 SCS Same-Spin Scale       =       0.3333333333333333 [-]
	 SCS Opposite-Spin Scale   =       1.2000000000000000 [-]
	 SCS Same-Spin Energy      =      -0.3381520141949463 [Eh]
	 SCS Opposite-Spin Energy  =      -3.6905279159133348 [Eh]
	 SCS Correlation Energy    =      -4.0286799301082814 [Eh]
	 SCS Total Energy          =   -1331.8845590592288772 [Eh]
	-----------------------------------------------------------

  Dipole Moment: [D]
     X:    -1.1304      Y:     1.8827      Z:     0.7014     Total:     2.3053

*** Psi4 exiting successfully. Buy a developer a beer!
