                               Psi4 1.3.2 release

  ==> Input File <==

--------------------------------------------------------------------------
#psi4
#
memory 32 gb

molecule  {
0 1
  P       -2.2900960    -0.9400430     0.3446780
  O       -0.9821530    -0.2015620     0.9382890
  O        1.3422500    -1.6754830     1.2308510
  O        0.0787050     2.3596040     0.4621680
  O        3.0668308    -2.1875796    -0.8582871
  O        2.8473350     2.5031130     0.3715350
  O        4.1956880     0.4353970    -0.9728740
  O       -2.8268630     0.0333510    -0.8075310
  O       -3.2591210    -0.7232820     1.6216710
  O       -2.1189930    -2.3436440    -0.0996680
  C        0.1181620     0.0300090     0.0163190
  C        0.9532920    -1.2442050    -0.0757250
  C        0.8985890     1.2026440     0.5648510
  C        2.2596600    -1.0143070    -0.8180370
  C        2.1770750     1.3964720    -0.2280410
  C        3.0258420     0.1487050    -0.2103220
  C       -3.1242130     1.4315980    -0.4888860
  C       -3.5363170     2.0851650    -1.7841190
  H       -0.2830920     0.2988010    -0.9702380
  H        0.3702690    -2.0293640    -0.5720320
  H        1.1571200     0.9978770     1.6121560
  H        2.0816699    -0.8193197    -1.8825276
  H        1.9169870     1.6362870    -1.2735830
  H        3.2958550    -0.0945320     0.8276460
  H        0.5217750    -1.8880320     1.7115100
  H        0.6655400     3.1093110     0.6831840
  H        2.9735430    -2.5473740     0.0946540
  H        3.7214290     2.5491860    -0.0588690
  H        4.6397270    -0.4238340    -1.0970870
  H       -3.8083950    -1.5223380     1.7347280
  H       -3.9305460     1.4455410     0.2493860
  H       -2.2297620     1.8928800    -0.0590960
  H       -3.8005210     3.1308820    -1.6026710
  H       -2.7171960     2.0533230    -2.5048750
  H       -4.4009440     1.5743230    -2.2127240
units angstrom
no_reorient  #important for SAPT in psi4, default
symmetry c1  #important for SAPT in psi4, default
}

set PROPERTIES_ORIGIN ["COM"]
properties('MP2/aug-cc-pvtz', properties = ['dipole'])
--------------------------------------------------------------------------

    Molecular point group: c1
  Charge       = 0
  Multiplicity = 1
  Basis Set: AUG-CC-PVTZ
    Blend: AUG-CC-PVTZ
  Basis Set: (AUG-CC-PVTZ AUX)
    Blend: AUG-CC-PVTZ-JKFIT

    Orbital Energies [Eh]
    ---------------------

    Doubly Occupied:

       1A    -80.117057     2A    -20.614837     3A    -20.607256
       4A    -20.598997     5A    -20.584122     6A    -20.578990
       7A    -20.576979     8A    -20.574055     9A    -20.573617
      10A    -20.523530    11A    -11.321027    12A    -11.304035
      13A    -11.299425    14A    -11.298837    15A    -11.298176
      16A    -11.296984    17A    -11.292065    18A    -11.229863
      19A     -7.632507    20A     -5.531013    21A     -5.530641
      22A     -5.529438    23A     -1.460428    24A     -1.410086
      25A     -1.394862    26A     -1.391385    27A     -1.386819
      28A     -1.373016    29A     -1.362144    30A     -1.351546
      31A     -1.303927    32A     -1.118514    33A     -1.040474
      34A     -1.011903    35A     -1.002039    36A     -0.880357
      37A     -0.864965    38A     -0.857060    39A     -0.822043
      40A     -0.810312    41A     -0.751542    42A     -0.745677
      43A     -0.731503    44A     -0.728636    45A     -0.707469
      46A     -0.687268    47A     -0.675226    48A     -0.673430
      49A     -0.662341    50A     -0.656813    51A     -0.643266
      52A     -0.634449    53A     -0.627316    54A     -0.615349
      55A     -0.603592    56A     -0.597881    57A     -0.581379
      58A     -0.575436    59A     -0.571570    60A     -0.559388
      61A     -0.555225    62A     -0.548525    63A     -0.541083
      64A     -0.535397    65A     -0.529559    66A     -0.521236
      67A     -0.513327    68A     -0.504254    69A     -0.497260
      70A     -0.485527    71A     -0.479935    72A     -0.476781
      73A     -0.462492    74A     -0.456291    75A     -0.450180
      76A     -0.436512

  @DF-RHF Final Energy: -1327.85561463803924

   => Energetics <=

    Nuclear Repulsion Energy =           1771.7488287361309176
    One-Electron Energy =               -5355.6519985089616966
    Two-Electron Energy =                2256.0475551347913097
    Total Energy =                      -1327.8556146380392420
  Basis Set: (AUG-CC-PVTZ AUX)
    Blend: AUG-CC-PVTZ-RI
    Molecular point group: c1

    Geometry (in Angstrom), charge = 0, multiplicity = 1:

       Center              X                  Y                   Z               Mass
    ------------   -----------------  -----------------  -----------------  -----------------
         P           -2.290074997733    -0.939907529664     0.347471666002    30.973761998420
         O           -0.982131997733    -0.201426529664     0.941082666002    15.994914619570
         O            1.342271002267    -1.675347529664     1.233644666002    15.994914619570
         O            0.078726002267     2.359739470336     0.464961666002    15.994914619570
         O            3.066851802267    -2.187444129664    -0.855493433998    15.994914619570
         O            2.847356002267     2.503248470336     0.374328666002    15.994914619570
         O            4.195709002267     0.435532470336    -0.970080333998    15.994914619570
         O           -2.826841997733     0.033486470336    -0.804737333998    15.994914619570
         O           -3.259099997733    -0.723146529664     1.624464666002    15.994914619570
         O           -2.118971997733    -2.343508529664    -0.096874333998    15.994914619570
         C            0.118183002267     0.030144470336     0.019112666002    12.000000000000
         C            0.953313002267    -1.244069529664    -0.072931333998    12.000000000000
         C            0.898610002267     1.202779470336     0.567644666002    12.000000000000
         C            2.259681002267    -1.014171529664    -0.815243333998    12.000000000000
         C            2.177096002267     1.396607470336    -0.225247333998    12.000000000000
         C            3.025863002267     0.148840470336    -0.207528333998    12.000000000000
         C           -3.124191997733     1.431733470336    -0.486092333998    12.000000000000
         C           -3.536295997733     2.085300470336    -1.781325333998    12.000000000000
         H           -0.283070997733     0.298936470336    -0.967444333998     1.007825032230
         H            0.370290002267    -2.029228529664    -0.569238333998     1.007825032230
         H            1.157141002267     0.998012470336     1.614949666002     1.007825032230
         H            2.081690902267    -0.819184229664    -1.879733933998     1.007825032230
         H            1.917008002267     1.636422470336    -1.270789333998     1.007825032230
         H            3.295876002267    -0.094396529664     0.830439666002     1.007825032230
         H            0.521796002267    -1.887896529664     1.714303666002     1.007825032230
         H            0.665561002267     3.109446470336     0.685977666002     1.007825032230
         H            2.973564002267    -2.547238529664     0.097447666002     1.007825032230
         H            3.721450002267     2.549321470336    -0.056075333998     1.007825032230
         H            4.639748002267    -0.423698529664    -1.094293333998     1.007825032230
         H           -3.808373997733    -1.522202529664     1.737521666002     1.007825032230
         H           -3.930524997733     1.445676470336     0.252179666002     1.007825032230
         H           -2.229740997733     1.893015470336    -0.056302333998     1.007825032230
         H           -3.800499997733     3.131017470336    -1.599877333998     1.007825032230
         H           -2.717174997733     2.053458470336    -2.502081333998     1.007825032230
         H           -4.400922997733     1.574458470336    -2.209930333998     1.007825032230

  Basis Set: AUG-CC-PVTZ
    Blend: AUG-CC-PVTZ
  Basis Set: (AUG-CC-PVTZ AUX)
    Blend: AUG-CC-PVTZ-JKFIT
	 Reference Energy          =   -1327.8556146380392420 [Eh]
	 Singles Energy            =      -0.0000000000000000 [Eh]
	 Same-Spin Energy          =      -1.0153360918015362 [Eh]
	 Opposite-Spin Energy      =      -3.0779007830082517 [Eh]
	 Correlation Energy        =      -4.0932368748097883 [Eh]
	 Total Energy              =   -1331.9488515128489325 [Eh]

	 ================> DF-SCS-MP2 Energies <==================
	-----------------------------------------------------------
	 SCS Same-Spin Scale       =       0.3333333333333333 [-]
	 SCS Opposite-Spin Scale   =       1.2000000000000000 [-]
	 SCS Same-Spin Energy      =      -0.3384453639338454 [Eh]
	 SCS Opposite-Spin Energy  =      -3.6934809396099020 [Eh]
	 SCS Correlation Energy    =      -4.0319263035437469 [Eh]
	 SCS Total Energy          =   -1331.8875409415829836 [Eh]
	-----------------------------------------------------------

  Dipole Moment: [D]
     X:    -1.1100      Y:     1.8620      Z:     0.7884     Total:     2.3067

*** Psi4 exiting successfully. Buy a developer a beer!
