                               Psi4 1.3.2 release

  ==> Input File <==

--------------------------------------------------------------------------
#psi4
#
memory 32 gb

molecule  {
0 1
  P       -2.2871655    -1.0018045     0.2880875
  O       -0.9821530    -0.2015620     0.9382890
  O        1.3422500    -1.6754830     1.2308510
  O        0.0787050     2.3596040     0.4621680
  O        3.0685150    -2.1870720    -0.8085900
  O        2.8473350     2.5031130     0.3715350
  O        4.1956880     0.4353970    -0.9728740
  O       -2.8268630     0.0333510    -0.8075310
  O       -3.2591210    -0.7232820     1.6216710
  O       -2.1189930    -2.3436440    -0.0996680
  C        0.1181620     0.0300090     0.0163190
  C        0.9532920    -1.2442050    -0.0757250
  C        0.8985890     1.2026440     0.5648510
  C        2.2596600    -1.0143070    -0.8180370
  C        2.1770750     1.3964720    -0.2280410
  C        3.0258420     0.1487050    -0.2103220
  C       -3.1445298     1.4418613    -0.5621070
  C       -3.5363170     2.0851650    -1.7841190
  H       -0.2830920     0.2988010    -0.9702380
  H        0.3702690    -2.0293640    -0.5720320
  H        1.1571200     0.9978770     1.6121560
  H        2.0609340    -0.7886600    -1.8727560
  H        1.9169870     1.6362870    -1.2735830
  H        3.2958550    -0.0945320     0.8276460
  H        0.5217750    -1.8880320     1.7115100
  H        0.6655400     3.1093110     0.6831840
  H        2.9735430    -2.5473740     0.0946540
  H        3.7214290     2.5491860    -0.0588690
  H        4.6397270    -0.4238340    -1.0970870
  H       -3.8083950    -1.5223380     1.7347280
  H       -3.9305460     1.4455410     0.2493860
  H       -2.2297620     1.8928800    -0.0590960
  H       -3.8005210     3.1308820    -1.6026710
  H       -2.7171960     2.0533230    -2.5048750
  H       -4.4009440     1.5743230    -2.2127240
units angstrom
no_reorient  #important for SAPT in psi4, default
symmetry c1  #important for SAPT in psi4, default
}

set PROPERTIES_ORIGIN ["COM"]
properties('MP2/aug-cc-pvtz', properties = ['dipole'])
--------------------------------------------------------------------------

    Molecular point group: c1
  Charge       = 0
  Multiplicity = 1
  Basis Set: AUG-CC-PVTZ
    Blend: AUG-CC-PVTZ
  Basis Set: (AUG-CC-PVTZ AUX)
    Blend: AUG-CC-PVTZ-JKFIT

    Orbital Energies [Eh]
    ---------------------

    Doubly Occupied:

       1A    -80.114984     2A    -20.603183     3A    -20.598841
       4A    -20.596013     5A    -20.582463     6A    -20.575071
       7A    -20.574206     8A    -20.573278     9A    -20.570294
      10A    -20.540175    11A    -11.314989    12A    -11.303106
      13A    -11.302449    14A    -11.298681    15A    -11.295462
      16A    -11.294554    17A    -11.290383    18A    -11.227575
      19A     -7.632284    20A     -5.530341    21A     -5.530062
      22A     -5.529871    23A     -1.449818    24A     -1.407967
      25A     -1.392093    26A     -1.386440    27A     -1.374275
      28A     -1.364949    29A     -1.362400    30A     -1.351953
      31A     -1.347608    32A     -1.115835    33A     -1.057678
      34A     -1.007126    35A     -1.001766    36A     -0.875354
      37A     -0.860414    38A     -0.856476    39A     -0.811321
      40A     -0.805974    41A     -0.748941    42A     -0.740476
      43A     -0.724732    44A     -0.721799    45A     -0.699174
      46A     -0.684200    47A     -0.677406    48A     -0.670788
      49A     -0.660564    50A     -0.655561    51A     -0.638237
      52A     -0.632199    53A     -0.627626    54A     -0.616043
      55A     -0.599369    56A     -0.597472    57A     -0.591954
      58A     -0.579046    59A     -0.568190    60A     -0.564776
      61A     -0.556298    62A     -0.546929    63A     -0.538100
      64A     -0.537122    65A     -0.526858    66A     -0.521687
      67A     -0.513456    68A     -0.507562    69A     -0.505373
      70A     -0.502449    71A     -0.483529    72A     -0.465973
      73A     -0.460751    74A     -0.454210    75A     -0.448423
      76A     -0.436448

  @DF-RHF Final Energy: -1327.84173856602888

   => Energetics <=

    Nuclear Repulsion Energy =           1771.1122940836401085
    One-Electron Energy =               -5354.4852067701185661
    Two-Electron Energy =                2255.5311741204491227
    Total Energy =                      -1327.8417385660291075
  Basis Set: (AUG-CC-PVTZ AUX)
    Blend: AUG-CC-PVTZ-RI
    Molecular point group: c1

    Geometry (in Angstrom), charge = 0, multiplicity = 1:

       Center              X                  Y                   Z               Mass
    ------------   -----------------  -----------------  -----------------  -----------------
         P           -2.286634215173    -0.995591123756     0.297222613205    30.973761998420
         O           -0.981621715173    -0.195348623756     0.947424113205    15.994914619570
         O            1.342781284827    -1.669269623756     1.239986113205    15.994914619570
         O            0.079236284827     2.365817376244     0.471303113205    15.994914619570
         O            3.069046284827    -2.180858623756    -0.799454886795    15.994914619570
         O            2.847866284827     2.509326376244     0.380670113205    15.994914619570
         O            4.196219284827     0.441610376244    -0.963738886795    15.994914619570
         O           -2.826331715173     0.039564376244    -0.798395886795    15.994914619570
         O           -3.258589715173    -0.717068623756     1.630806113205    15.994914619570
         O           -2.118461715173    -2.337430623756    -0.090532886795    15.994914619570
         C            0.118693284827     0.036222376244     0.025454113205    12.000000000000
         C            0.953823284827    -1.237991623756    -0.066589886795    12.000000000000
         C            0.899120284827     1.208857376244     0.573986113205    12.000000000000
         C            2.260191284827    -1.008093623756    -0.808901886795    12.000000000000
         C            2.177606284827     1.402685376244    -0.218905886795    12.000000000000
         C            3.026373284827     0.154918376244    -0.201186886795    12.000000000000
         C           -3.143998515173     1.448074676244    -0.552971886795    12.000000000000
         C           -3.535785715173     2.091378376244    -1.774983886795    12.000000000000
         H           -0.282560715173     0.305014376244    -0.961102886795     1.007825032230
         H            0.370800284827    -2.023150623756    -0.562896886795     1.007825032230
         H            1.157651284827     1.004090376244     1.621291113205     1.007825032230
         H            2.061465284827    -0.782446623756    -1.863620886795     1.007825032230
         H            1.917518284827     1.642500376244    -1.264447886795     1.007825032230
         H            3.296386284827    -0.088318623756     0.836781113205     1.007825032230
         H            0.522306284827    -1.881818623756     1.720645113205     1.007825032230
         H            0.666071284827     3.115524376244     0.692319113205     1.007825032230
         H            2.974074284827    -2.541160623756     0.103789113205     1.007825032230
         H            3.721960284827     2.555399376244    -0.049733886795     1.007825032230
         H            4.640258284827    -0.417620623756    -1.087951886795     1.007825032230
         H           -3.807863715173    -1.516124623756     1.743863113205     1.007825032230
         H           -3.930014715173     1.451754376244     0.258521113205     1.007825032230
         H           -2.229230715173     1.899093376244    -0.049960886795     1.007825032230
         H           -3.799989715173     3.137095376244    -1.593535886795     1.007825032230
         H           -2.716664715173     2.059536376244    -2.495739886795     1.007825032230
         H           -4.400412715173     1.580536376244    -2.203588886795     1.007825032230

  Basis Set: AUG-CC-PVTZ
    Blend: AUG-CC-PVTZ
  Basis Set: (AUG-CC-PVTZ AUX)
    Blend: AUG-CC-PVTZ-JKFIT
	 Reference Energy          =   -1327.8417385660288801 [Eh]
	 Singles Energy            =      -0.0000000000000000 [Eh]
	 Same-Spin Energy          =      -1.0149101800256468 [Eh]
	 Opposite-Spin Energy      =      -3.0767031267642970 [Eh]
	 Correlation Energy        =      -4.0916133067899434 [Eh]
	 Total Energy              =   -1331.9333518728187755 [Eh]

	 ================> DF-SCS-MP2 Energies <==================
	-----------------------------------------------------------
	 SCS Same-Spin Scale       =       0.3333333333333333 [-]
	 SCS Opposite-Spin Scale   =       1.2000000000000000 [-]
	 SCS Same-Spin Energy      =      -0.3383033933418823 [Eh]
	 SCS Opposite-Spin Energy  =      -3.6920437521171561 [Eh]
	 SCS Correlation Energy    =      -4.0303471454590385 [Eh]
	 SCS Total Energy          =   -1331.8720857114878982 [Eh]
	-----------------------------------------------------------

  Dipole Moment: [D]
     X:    -1.2343      Y:     1.3834      Z:     0.1478     Total:     1.8598

*** Psi4 exiting successfully. Buy a developer a beer!
