                               Psi4 1.4a3.dev225

  ==> Input File <==

--------------------------------------------------------------------------
#psi4
#
memory 32 gb

molecule  {
0 1
  P       -2.3219140    -1.0563120    -0.0968450
  O       -1.0285840    -0.5623410     0.7549430
  O        1.3695440    -1.8069540     1.2202350
  O       -0.1592450     2.1412630     0.5207450
  O        3.3269040    -2.0858120    -0.6453880
  O        2.5724350     2.5270130     0.6374560
  O        4.2203020     0.6406430    -0.6358120
  O       -2.8737010     0.2643620    -0.8096810
  O       -3.3065970    -1.3497020     1.1531960
  O       -2.1044560    -2.1814480    -1.0350500
  C        0.1200290    -0.1583450    -0.0432010
  C        1.0698050    -1.3527180    -0.1046720
  C        0.7441670     1.0454510     0.6308160
  C        2.4193320    -0.9866070    -0.7068450
  C        2.1036252     1.3965263    -0.0693143
  C        3.0180900     0.2181970     0.0056710
  C       -3.2473180     1.4231610     0.0025120
  C       -3.2076300     2.6262440    -0.9075720
  H       -0.2047330     0.1313700    -1.0514980
  H        0.5965010    -2.1549610    -0.6866410
  H        0.9371260     0.8063110     1.6860210
  H        2.3054700    -0.7437210    -1.7704410
  H        1.8633300     1.6367370    -1.1028410
  H        3.2142070    -0.0417910     1.0561650
  H        0.5126160    -2.0057500     1.6426110
  H        0.3598300     2.9232990     0.7925780
  H        3.1793900    -2.4823080     0.2360710
  H        3.4672560     2.6739710     0.2770410
  H        4.7639490    -0.1654590    -0.7244900
  H       -3.7873380    -2.1826420     0.9908450
  H       -4.2474700     1.2335250     0.4005830
  H       -2.5352900     1.5309660     0.8217280
  H       -3.5402110     3.5125760    -0.3587690
  H       -2.1856630     2.7912820    -1.2511950
  H       -3.8637180     2.4807570    -1.7684970
units angstrom
no_reorient  #important for SAPT in psi4, default
symmetry c1  #important for SAPT in psi4, default
}

set PROPERTIES_ORIGIN ["COM"]
properties('MP2/aug-cc-pvtz', properties = ['dipole'])
--------------------------------------------------------------------------

    Molecular point group: c1
  Charge       = 0
  Multiplicity = 1
  Basis Set: AUG-CC-PVTZ
    Blend: AUG-CC-PVTZ
  Basis Set: (AUG-CC-PVTZ AUX)
    Blend: AUG-CC-PVTZ-JKFIT

    Orbital Energies [Eh]
    ---------------------

    Doubly Occupied:

       1A    -80.116312     2A    -20.614592     3A    -20.607230
       4A    -20.595623     5A    -20.583694     6A    -20.581305
       7A    -20.575695     8A    -20.574479     9A    -20.574035
      10A    -20.522105    11A    -11.320046    12A    -11.304791
      13A    -11.300784    14A    -11.300784    15A    -11.297558
      16A    -11.295839    17A    -11.291890    18A    -11.222681
      19A     -7.631577    20A     -5.530113    21A     -5.529607
      22A     -5.528550    23A     -1.457908    24A     -1.411315
      25A     -1.397951    26A     -1.392351    27A     -1.384784
      28A     -1.372285    29A     -1.365580    30A     -1.355515
      31A     -1.302290    32A     -1.115545    33A     -1.035245
      34A     -1.012844    35A     -0.998678    36A     -0.875364
      37A     -0.861859    38A     -0.860812    39A     -0.822525
      40A     -0.810037    41A     -0.754070    42A     -0.747164
      43A     -0.728921    44A     -0.725689    45A     -0.705198
      46A     -0.686569    47A     -0.678954    48A     -0.674366
      49A     -0.662919    50A     -0.658606    51A     -0.642472
      52A     -0.635836    53A     -0.624564    54A     -0.613533
      55A     -0.603680    56A     -0.596956    57A     -0.580818
      58A     -0.577104    59A     -0.569897    60A     -0.563735
      61A     -0.554698    62A     -0.547485    63A     -0.540154
      64A     -0.537840    65A     -0.529656    66A     -0.517594
      67A     -0.507658    68A     -0.503210    69A     -0.492211
      70A     -0.486974    71A     -0.478350    72A     -0.475104
      73A     -0.462419    74A     -0.457050    75A     -0.447586
      76A     -0.437253

  @DF-RHF Final Energy: -1327.85828130299979

   => Energetics <=

    Nuclear Repulsion Energy =           1773.9990331297028661
    One-Electron Energy =               -5360.2376758359514497
    Two-Electron Energy =                2258.3803614032485712
    Total Energy =                      -1327.8582813029997851
  Basis Set: (AUG-CC-PVTZ AUX)
    Blend: AUG-CC-PVTZ-RI
    Molecular point group: c1

    Geometry (in Angstrom), charge = 0, multiplicity = 1:

       Center              X                  Y                   Z               Mass
    ------------   -----------------  -----------------  -----------------  -----------------
         P           -2.312957409694    -1.018999021563    -0.098359995412    30.973761998420
         O           -1.019627409694    -0.525028021563     0.753428004588    15.994914619570
         O            1.378500590306    -1.769641021563     1.218720004588    15.994914619570
         O           -0.150288409694     2.178575978437     0.519230004588    15.994914619570
         O            3.335860590306    -2.048499021563    -0.646902995412    15.994914619570
         O            2.581391590306     2.564325978437     0.635941004588    15.994914619570
         O            4.229258590306     0.677955978437    -0.637326995412    15.994914619570
         O           -2.864744409694     0.301674978437    -0.811195995412    15.994914619570
         O           -3.297640409694    -1.312389021563     1.151681004588    15.994914619570
         O           -2.095499409694    -2.144135021563    -1.036564995412    15.994914619570
         C            0.128985590306    -0.121032021563    -0.044715995412    12.000000000000
         C            1.078761590306    -1.315405021563    -0.106186995412    12.000000000000
         C            0.753123590306     1.082763978437     0.629301004588    12.000000000000
         C            2.428288590306    -0.949294021563    -0.708359995412    12.000000000000
         C            2.112581790306     1.433839278437    -0.070829295412    12.000000000000
         C            3.027046590306     0.255509978437     0.004156004588    12.000000000000
         C           -3.238361409694     1.460473978437     0.000997004588    12.000000000000
         C           -3.198673409694     2.663556978437    -0.909086995412    12.000000000000
         H           -0.195776409694     0.168682978437    -1.053012995412     1.007825032230
         H            0.605457590306    -2.117648021563    -0.688155995412     1.007825032230
         H            0.946082590306     0.843623978437     1.684506004588     1.007825032230
         H            2.314426590306    -0.706408021563    -1.771955995412     1.007825032230
         H            1.872286590306     1.674049978437    -1.104355995412     1.007825032230
         H            3.223163590306    -0.004478021563     1.054650004588     1.007825032230
         H            0.521572590306    -1.968437021563     1.641096004588     1.007825032230
         H            0.368786590306     2.960611978437     0.791063004588     1.007825032230
         H            3.188346590306    -2.444995021563     0.234556004588     1.007825032230
         H            3.476212590306     2.711283978437     0.275526004588     1.007825032230
         H            4.772905590306    -0.128146021563    -0.726004995412     1.007825032230
         H           -3.778381409694    -2.145329021563     0.989330004588     1.007825032230
         H           -4.238513409694     1.270837978437     0.399068004588     1.007825032230
         H           -2.526333409694     1.568278978437     0.820213004588     1.007825032230
         H           -3.531254409694     3.549888978437    -0.360283995412     1.007825032230
         H           -2.176706409694     2.828594978437    -1.252709995412     1.007825032230
         H           -3.854761409694     2.518069978437    -1.770011995412     1.007825032230

  Basis Set: AUG-CC-PVTZ
    Blend: AUG-CC-PVTZ
  Basis Set: (AUG-CC-PVTZ AUX)
    Blend: AUG-CC-PVTZ-JKFIT
	 Reference Energy          =   -1327.8582813029997851 [Eh]
	 Singles Energy            =      -0.0000000000000000 [Eh]
	 Same-Spin Energy          =      -1.0147754909813451 [Eh]
	 Opposite-Spin Energy      =      -3.0768020013949471 [Eh]
	 Correlation Energy        =      -4.0915774923762918 [Eh]
	 Total Energy              =   -1331.9498587953760307 [Eh]

	 ================> DF-SCS-MP2 Energies <==================
	-----------------------------------------------------------
	 SCS Same-Spin Scale       =       0.3333333333333333 [-]
	 SCS Opposite-Spin Scale   =       1.2000000000000000 [-]
	 SCS Same-Spin Energy      =      -0.3382584969937817 [Eh]
	 SCS Opposite-Spin Energy  =      -3.6921624016739365 [Eh]
	 SCS Correlation Energy    =      -4.0304208986677184 [Eh]
	 SCS Total Energy          =   -1331.8887022016674564 [Eh]
	-----------------------------------------------------------

  Dipole Moment: [D]
     X:    -0.8009      Y:     1.4760      Z:     1.8785     Total:     2.5197

*** Psi4 exiting successfully. Buy a developer a beer!
