                               Psi4 1.3.2 release

  ==> Input File <==

--------------------------------------------------------------------------
#psi4
#
memory 32 gb

molecule  {
0 1
  P       -2.3252894    -0.9345108     0.4213616
  O       -0.9821530    -0.2015620     0.9382890
  O        1.3422500    -1.6754830     1.2308510
  O        0.0787050     2.3596040     0.4621680
  O        3.0685150    -2.1870720    -0.8085900
  O        2.8473350     2.5031130     0.3715350
  O        4.1956880     0.4353970    -0.9728740
  O       -2.8268630     0.0333510    -0.8075310
  O       -3.2591210    -0.7232820     1.6216710
  O       -2.1189930    -2.3436440    -0.0996680
  C        0.1565394     0.0625624     0.0734394
  C        0.9532920    -1.2442050    -0.0757250
  C        0.8985890     1.2026440     0.5648510
  C        2.2596600    -1.0143070    -0.8180370
  C        2.1770750     1.3964720    -0.2280410
  C        3.0258420     0.1487050    -0.2103220
  C       -3.1242130     1.4315980    -0.4888860
  C       -3.5363170     2.0851650    -1.7841190
  H       -0.2830920     0.2988010    -0.9702380
  H        0.3702690    -2.0293640    -0.5720320
  H        1.1571200     0.9978770     1.6121560
  H        2.0609340    -0.7886600    -1.8727560
  H        1.9169870     1.6362870    -1.2735830
  H        3.2958550    -0.0945320     0.8276460
  H        0.5217750    -1.8880320     1.7115100
  H        0.6655400     3.1093110     0.6831840
  H        2.9735430    -2.5473740     0.0946540
  H        3.7214290     2.5491860    -0.0588690
  H        4.6397270    -0.4238340    -1.0970870
  H       -3.8083950    -1.5223380     1.7347280
  H       -3.9305460     1.4455410     0.2493860
  H       -2.2297620     1.8928800    -0.0590960
  H       -3.8005210     3.1308820    -1.6026710
  H       -2.7171960     2.0533230    -2.5048750
  H       -4.4009440     1.5743230    -2.2127240
units angstrom
no_reorient  #important for SAPT in psi4, default
symmetry c1  #important for SAPT in psi4, default
}

set PROPERTIES_ORIGIN ["COM"]
properties('MP2/aug-cc-pvtz', properties = ['dipole'])
--------------------------------------------------------------------------

    Molecular point group: c1
  Charge       = 0
  Multiplicity = 1
  Basis Set: AUG-CC-PVTZ
    Blend: AUG-CC-PVTZ
  Basis Set: (AUG-CC-PVTZ AUX)
    Blend: AUG-CC-PVTZ-JKFIT

    Orbital Energies [Eh]
    ---------------------

    Doubly Occupied:

       1A    -80.119843     2A    -20.638344     3A    -20.601798
       4A    -20.589671     5A    -20.580211     6A    -20.576895
       7A    -20.573545     8A    -20.573468     9A    -20.573410
      10A    -20.517608    11A    -11.321681    12A    -11.302650
      13A    -11.297726    14A    -11.297548    15A    -11.295298
      16A    -11.293101    17A    -11.290881    18A    -11.225853
      19A     -7.635040    20A     -5.533872    21A     -5.533136
      22A     -5.531685    23A     -1.479215    24A     -1.418110
      25A     -1.400283    26A     -1.393159    27A     -1.380405
      28A     -1.368190    29A     -1.363515    30A     -1.353115
      31A     -1.284323    32A     -1.123050    33A     -1.033048
      34A     -1.015581    35A     -1.002741    36A     -0.885291
      37A     -0.861843    38A     -0.857387    39A     -0.834648
      40A     -0.805820    41A     -0.753929    42A     -0.745458
      43A     -0.733584    44A     -0.727326    45A     -0.712326
      46A     -0.693712    47A     -0.681930    48A     -0.675513
      49A     -0.664290    50A     -0.660355    51A     -0.644016
      52A     -0.633513    53A     -0.626493    54A     -0.615945
      55A     -0.607032    56A     -0.597911    57A     -0.587643
      58A     -0.577903    59A     -0.566416    60A     -0.557889
      61A     -0.553637    62A     -0.543782    63A     -0.538028
      64A     -0.534970    65A     -0.523661    66A     -0.520780
      67A     -0.508430    68A     -0.500935    69A     -0.494384
      70A     -0.475299    71A     -0.469983    72A     -0.465988
      73A     -0.459296    74A     -0.455196    75A     -0.447993
      76A     -0.435564

  @DF-RHF Final Energy: -1327.84549823564339

   => Energetics <=

    Nuclear Repulsion Energy =           1771.5811568056046781
    One-Electron Energy =               -5355.3451137928932440
    Two-Electron Energy =                2255.9184587516451757
    Total Energy =                      -1327.8454982356433902
  Basis Set: (AUG-CC-PVTZ AUX)
    Blend: AUG-CC-PVTZ-RI
    Molecular point group: c1

    Geometry (in Angstrom), charge = 0, multiplicity = 1:

       Center              X                  Y                   Z               Mass
    ------------   -----------------  -----------------  -----------------  -----------------
         P           -2.323103916328    -0.936461736495     0.410736673921    30.973761998420
         O           -0.979967516328    -0.203512936495     0.927664073921    15.994914619570
         O            1.344435483672    -1.677433936495     1.220226073921    15.994914619570
         O            0.080890483672     2.357653063505     0.451543073921    15.994914619570
         O            3.070700483672    -2.189022936495    -0.819214926079    15.994914619570
         O            2.849520483672     2.501162063505     0.360910073921    15.994914619570
         O            4.197873483672     0.433446063505    -0.983498926079    15.994914619570
         O           -2.824677516328     0.031400063505    -0.818155926079    15.994914619570
         O           -3.256935516328    -0.725232936495     1.611046073921    15.994914619570
         O           -2.116807516328    -2.345594936495    -0.110292926079    15.994914619570
         C            0.158724883672     0.060611463505     0.062814473921    12.000000000000
         C            0.955477483672    -1.246155936495    -0.086349926079    12.000000000000
         C            0.900774483672     1.200693063505     0.554226073921    12.000000000000
         C            2.261845483672    -1.016257936495    -0.828661926079    12.000000000000
         C            2.179260483672     1.394521063505    -0.238665926079    12.000000000000
         C            3.028027483672     0.146754063505    -0.220946926079    12.000000000000
         C           -3.122027516328     1.429647063505    -0.499510926079    12.000000000000
         C           -3.534131516328     2.083214063505    -1.794743926079    12.000000000000
         H           -0.280906516328     0.296850063505    -0.980862926079     1.007825032230
         H            0.372454483672    -2.031314936495    -0.582656926079     1.007825032230
         H            1.159305483672     0.995926063505     1.601531073921     1.007825032230
         H            2.063119483672    -0.790610936495    -1.883380926079     1.007825032230
         H            1.919172483672     1.634336063505    -1.284207926079     1.007825032230
         H            3.298040483672    -0.096482936495     0.817021073921     1.007825032230
         H            0.523960483672    -1.889982936495     1.700885073921     1.007825032230
         H            0.667725483672     3.107360063505     0.672559073921     1.007825032230
         H            2.975728483672    -2.549324936495     0.084029073921     1.007825032230
         H            3.723614483672     2.547235063505    -0.069493926079     1.007825032230
         H            4.641912483672    -0.425784936495    -1.107711926079     1.007825032230
         H           -3.806209516328    -1.524288936495     1.724103073921     1.007825032230
         H           -3.928360516328     1.443590063505     0.238761073921     1.007825032230
         H           -2.227576516328     1.890929063505    -0.069720926079     1.007825032230
         H           -3.798335516328     3.128931063505    -1.613295926079     1.007825032230
         H           -2.715010516328     2.051372063505    -2.515499926079     1.007825032230
         H           -4.398758516328     1.572372063505    -2.223348926079     1.007825032230

  Basis Set: AUG-CC-PVTZ
    Blend: AUG-CC-PVTZ
  Basis Set: (AUG-CC-PVTZ AUX)
    Blend: AUG-CC-PVTZ-JKFIT
	 Reference Energy          =   -1327.8454982356433902 [Eh]
	 Singles Energy            =      -0.0000000000000000 [Eh]
	 Same-Spin Energy          =      -1.0155168214542927 [Eh]
	 Opposite-Spin Energy      =      -3.0770479010611882 [Eh]
	 Correlation Energy        =      -4.0925647225154806 [Eh]
	 Total Energy              =   -1331.9380629581589801 [Eh]

	 ================> DF-SCS-MP2 Energies <==================
	-----------------------------------------------------------
	 SCS Same-Spin Scale       =       0.3333333333333333 [-]
	 SCS Opposite-Spin Scale   =       1.2000000000000000 [-]
	 SCS Same-Spin Energy      =      -0.3385056071514309 [Eh]
	 SCS Opposite-Spin Energy  =      -3.6924574812734257 [Eh]
	 SCS Correlation Energy    =      -4.0309630884248566 [Eh]
	 SCS Total Energy          =   -1331.8764613240682593 [Eh]
	-----------------------------------------------------------

  Dipole Moment: [D]
     X:    -1.3864      Y:     1.7900      Z:     1.4796     Total:     2.7047

*** Psi4 exiting successfully. Buy a developer a beer!
