                               Psi4 1.3.2 release

  ==> Input File <==

--------------------------------------------------------------------------
#psi4
#
memory 32 gb

molecule  {
0 1
  P       -2.2900960    -0.9400430     0.3446780
  O       -0.9901672    -0.1778083     0.9343415
  O        1.3422500    -1.6754830     1.2308510
  O        0.0787050     2.3596040     0.4621680
  O        3.0685150    -2.1870720    -0.8085900
  O        2.8473350     2.5031130     0.3715350
  O        4.1956880     0.4353970    -0.9728740
  O       -2.8268630     0.0333510    -0.8075310
  O       -3.2591210    -0.7232820     1.6216710
  O       -2.1189930    -2.3436440    -0.0996680
  C        0.1181620     0.0300090     0.0163190
  C        0.9695237    -1.2320408    -0.0929924
  C        0.8985890     1.2026440     0.5648510
  C        2.2596600    -1.0143070    -0.8180370
  C        2.1770750     1.3964720    -0.2280410
  C        3.0258420     0.1487050    -0.2103220
  C       -3.1242130     1.4315980    -0.4888860
  C       -3.5363170     2.0851650    -1.7841190
  H       -0.2830920     0.2988010    -0.9702380
  H        0.3702690    -2.0293640    -0.5720320
  H        1.1571200     0.9978770     1.6121560
  H        2.0609340    -0.7886600    -1.8727560
  H        1.9169870     1.6362870    -1.2735830
  H        3.2958550    -0.0945320     0.8276460
  H        0.5217750    -1.8880320     1.7115100
  H        0.6655400     3.1093110     0.6831840
  H        2.9735430    -2.5473740     0.0946540
  H        3.7214290     2.5491860    -0.0588690
  H        4.6397270    -0.4238340    -1.0970870
  H       -3.8083950    -1.5223380     1.7347280
  H       -3.9305460     1.4455410     0.2493860
  H       -2.2297620     1.8928800    -0.0590960
  H       -3.8005210     3.1308820    -1.6026710
  H       -2.7171960     2.0533230    -2.5048750
  H       -4.4009440     1.5743230    -2.2127240
units angstrom
no_reorient  #important for SAPT in psi4, default
symmetry c1  #important for SAPT in psi4, default
}

set PROPERTIES_ORIGIN ["COM"]
properties('MP2/aug-cc-pvtz', properties = ['dipole'])
--------------------------------------------------------------------------

    Molecular point group: c1
  Charge       = 0
  Multiplicity = 1
  Basis Set: AUG-CC-PVTZ
    Blend: AUG-CC-PVTZ
  Basis Set: (AUG-CC-PVTZ AUX)
    Blend: AUG-CC-PVTZ-JKFIT

    Orbital Energies [Eh]
    ---------------------

    Doubly Occupied:

       1A    -80.117525     2A    -20.615019     3A    -20.607830
       4A    -20.598153     5A    -20.581339     6A    -20.576849
       7A    -20.575572     8A    -20.574426     9A    -20.572994
      10A    -20.525070    11A    -11.321243    12A    -11.304938
      13A    -11.299688    14A    -11.298846    15A    -11.298226
      16A    -11.296711    17A    -11.291920    18A    -11.229521
      19A     -7.632933    20A     -5.531444    21A     -5.531064
      22A     -5.529862    23A     -1.460064    24A     -1.409650
      25A     -1.394422    26A     -1.392237    27A     -1.386503
      28A     -1.371351    29A     -1.362812    30A     -1.353602
      31A     -1.305082    32A     -1.121434    33A     -1.040077
      34A     -1.012206    35A     -1.006701    36A     -0.880731
      37A     -0.864760    38A     -0.859018    39A     -0.822462
      40A     -0.810643    41A     -0.751448    42A     -0.745072
      43A     -0.731130    44A     -0.727548    45A     -0.708207
      46A     -0.686720    47A     -0.677782    48A     -0.673501
      49A     -0.662714    50A     -0.661163    51A     -0.642708
      52A     -0.634756    53A     -0.627647    54A     -0.614714
      55A     -0.603078    56A     -0.598521    57A     -0.582089
      58A     -0.575792    59A     -0.570356    60A     -0.559237
      61A     -0.556187    62A     -0.546831    63A     -0.540717
      64A     -0.536641    65A     -0.528529    66A     -0.522000
      67A     -0.513619    68A     -0.505677    69A     -0.496966
      70A     -0.486350    71A     -0.480055    72A     -0.477397
      73A     -0.463454    74A     -0.456037    75A     -0.450585
      76A     -0.436648

  @DF-RHF Final Energy: -1327.85967567959392

   => Energetics <=

    Nuclear Repulsion Energy =           1772.4461024509105300
    One-Electron Energy =               -5357.0179473972948472
    Two-Electron Energy =                2256.7121692667901698
    Total Energy =                      -1327.8596756795941474
  Basis Set: (AUG-CC-PVTZ AUX)
    Blend: AUG-CC-PVTZ-RI
    Molecular point group: c1

    Geometry (in Angstrom), charge = 0, multiplicity = 1:

       Center              X                  Y                   Z               Mass
    ------------   -----------------  -----------------  -----------------  -----------------
         P           -2.290327147197    -0.941868667748     0.345616502778    30.973761998420
         O           -0.990398347197    -0.179633967748     0.935280002778    15.994914619570
         O            1.342018852803    -1.677308667748     1.231789502778    15.994914619570
         O            0.078473852803     2.357778332252     0.463106502778    15.994914619570
         O            3.068283852803    -2.188897667748    -0.807651497222    15.994914619570
         O            2.847103852803     2.501287332252     0.372473502778    15.994914619570
         O            4.195456852803     0.433571332252    -0.971935497222    15.994914619570
         O           -2.827094147197     0.031525332252    -0.806592497222    15.994914619570
         O           -3.259352147197    -0.725107667748     1.622609502778    15.994914619570
         O           -2.119224147197    -2.345469667748    -0.098729497222    15.994914619570
         C            0.117930852803     0.028183332252     0.017257502778    12.000000000000
         C            0.969292552803    -1.233866467748    -0.092053897222    12.000000000000
         C            0.898357852803     1.200818332252     0.565789502778    12.000000000000
         C            2.259428852803    -1.016132667748    -0.817098497222    12.000000000000
         C            2.176843852803     1.394646332252    -0.227102497222    12.000000000000
         C            3.025610852803     0.146879332252    -0.209383497222    12.000000000000
         C           -3.124444147197     1.429772332252    -0.487947497222    12.000000000000
         C           -3.536548147197     2.083339332252    -1.783180497222    12.000000000000
         H           -0.283323147197     0.296975332252    -0.969299497222     1.007825032230
         H            0.370037852803    -2.031189667748    -0.571093497222     1.007825032230
         H            1.156888852803     0.996051332252     1.613094502778     1.007825032230
         H            2.060702852803    -0.790485667748    -1.871817497222     1.007825032230
         H            1.916755852803     1.634461332252    -1.272644497222     1.007825032230
         H            3.295623852803    -0.096357667748     0.828584502778     1.007825032230
         H            0.521543852803    -1.889857667748     1.712448502778     1.007825032230
         H            0.665308852803     3.107485332252     0.684122502778     1.007825032230
         H            2.973311852803    -2.549199667748     0.095592502778     1.007825032230
         H            3.721197852803     2.547360332252    -0.057930497222     1.007825032230
         H            4.639495852803    -0.425659667748    -1.096148497222     1.007825032230
         H           -3.808626147197    -1.524163667748     1.735666502778     1.007825032230
         H           -3.930777147197     1.443715332252     0.250324502778     1.007825032230
         H           -2.229993147197     1.891054332252    -0.058157497222     1.007825032230
         H           -3.800752147197     3.129056332252    -1.601732497222     1.007825032230
         H           -2.717427147197     2.051497332252    -2.503936497222     1.007825032230
         H           -4.401175147197     1.572497332252    -2.211785497222     1.007825032230

  Basis Set: AUG-CC-PVTZ
    Blend: AUG-CC-PVTZ
  Basis Set: (AUG-CC-PVTZ AUX)
    Blend: AUG-CC-PVTZ-JKFIT
	 Reference Energy          =   -1327.8596756795939200 [Eh]
	 Singles Energy            =      -0.0000000000000000 [Eh]
	 Same-Spin Energy          =      -1.0148651373079587 [Eh]
	 Opposite-Spin Energy      =      -3.0766543574282221 [Eh]
	 Correlation Energy        =      -4.0915194947361808 [Eh]
	 Total Energy              =   -1331.9511951743299960 [Eh]

	 ================> DF-SCS-MP2 Energies <==================
	-----------------------------------------------------------
	 SCS Same-Spin Scale       =       0.3333333333333333 [-]
	 SCS Opposite-Spin Scale   =       1.2000000000000000 [-]
	 SCS Same-Spin Energy      =      -0.3382883791026529 [Eh]
	 SCS Opposite-Spin Energy  =      -3.6919852289138664 [Eh]
	 SCS Correlation Energy    =      -4.0302736080165191 [Eh]
	 SCS Total Energy          =   -1331.8899492876105342 [Eh]
	-----------------------------------------------------------

  Dipole Moment: [D]
     X:    -1.1020      Y:     1.8188      Z:     0.6891     Total:     2.2355

*** Psi4 exiting successfully. Buy a developer a beer!
