                               Psi4 1.3.2 release

  ==> Input File <==

--------------------------------------------------------------------------
#psi4
#
memory 32 gb

molecule  {
0 1
  P       -2.2900960    -0.9400430     0.3446780
  O       -0.9821530    -0.2015620     0.9382890
  O        1.3422500    -1.6754830     1.2308510
  O        0.0787050     2.3596040     0.4621680
  O        3.0685150    -2.1870720    -0.8085900
  O        2.8473350     2.5031130     0.3715350
  O        4.1956880     0.4353970    -0.9728740
  O       -2.8268630     0.0333510    -0.8075310
  O       -3.2591210    -0.7232820     1.6216710
  O       -2.1189930    -2.3436440    -0.0996680
  C        0.1181620     0.0300090     0.0163190
  C        0.8890767    -1.2816711    -0.1050129
  C        0.8334298     1.2469069     0.5572239
  C        2.2596600    -1.0143070    -0.8180370
  C        2.1770750     1.3964720    -0.2280410
  C        3.0258420     0.1487050    -0.2103220
  C       -3.1242130     1.4315980    -0.4888860
  C       -3.5363170     2.0851650    -1.7841190
  H       -0.2830920     0.2988010    -0.9702380
  H        0.3702690    -2.0293640    -0.5720320
  H        1.1571200     0.9978770     1.6121560
  H        2.0609340    -0.7886600    -1.8727560
  H        1.9169870     1.6362870    -1.2735830
  H        3.2958550    -0.0945320     0.8276460
  H        0.5217750    -1.8880320     1.7115100
  H        0.6655400     3.1093110     0.6831840
  H        2.9735430    -2.5473740     0.0946540
  H        3.7214290     2.5491860    -0.0588690
  H        4.6397270    -0.4238340    -1.0970870
  H       -3.8083950    -1.5223380     1.7347280
  H       -3.9305460     1.4455410     0.2493860
  H       -2.2297620     1.8928800    -0.0590960
  H       -3.8005210     3.1308820    -1.6026710
  H       -2.7171960     2.0533230    -2.5048750
  H       -4.4009440     1.5743230    -2.2127240
units angstrom
no_reorient  #important for SAPT in psi4, default
symmetry c1  #important for SAPT in psi4, default
}

set PROPERTIES_ORIGIN ["COM"]
properties('MP2/aug-cc-pvtz', properties = ['dipole'])
--------------------------------------------------------------------------

    Molecular point group: c1
  Charge       = 0
  Multiplicity = 1
  Basis Set: AUG-CC-PVTZ
    Blend: AUG-CC-PVTZ
  Basis Set: (AUG-CC-PVTZ AUX)
    Blend: AUG-CC-PVTZ-JKFIT

    Orbital Energies [Eh]
    ---------------------

    Doubly Occupied:

       1A    -80.116514     2A    -20.614503     3A    -20.604390
       4A    -20.599224     5A    -20.581925     6A    -20.580239
       7A    -20.575315     8A    -20.573524     9A    -20.572614
      10A    -20.523819    11A    -11.320001    12A    -11.303035
      13A    -11.302145    14A    -11.300607    15A    -11.299910
      16A    -11.294927    17A    -11.290778    18A    -11.230778
      19A     -7.632012    20A     -5.530521    21A     -5.530129
      22A     -5.528953    23A     -1.460178    24A     -1.419369
      25A     -1.398635    26A     -1.393310    27A     -1.387050
      28A     -1.376242    29A     -1.363031    30A     -1.352027
      31A     -1.304306    32A     -1.109138    33A     -1.041339
      34A     -1.011397    35A     -0.995963    36A     -0.880344
      37A     -0.866507    38A     -0.860948    39A     -0.821712
      40A     -0.804457    41A     -0.758747    42A     -0.742973
      43A     -0.735799    44A     -0.728399    45A     -0.706377
      46A     -0.692633    47A     -0.675882    48A     -0.671628
      49A     -0.662676    50A     -0.659092    51A     -0.648518
      52A     -0.637417    53A     -0.626152    54A     -0.617788
      55A     -0.606353    56A     -0.600283    57A     -0.584915
      58A     -0.575789    59A     -0.570392    60A     -0.561369
      61A     -0.558644    62A     -0.549969    63A     -0.542360
      64A     -0.537995    65A     -0.528034    66A     -0.517058
      67A     -0.512036    68A     -0.498820    69A     -0.496752
      70A     -0.480830    71A     -0.478288    72A     -0.474207
      73A     -0.459411    74A     -0.454570    75A     -0.442205
      76A     -0.437228

  @DF-RHF Final Energy: -1327.84725559206072

   => Energetics <=

    Nuclear Repulsion Energy =           1771.6170466645837678
    One-Electron Energy =               -5355.3617894479384631
    Two-Electron Energy =                2255.8974871912942035
    Total Energy =                      -1327.8472555920607192
  Basis Set: (AUG-CC-PVTZ AUX)
    Blend: AUG-CC-PVTZ-RI
    Molecular point group: c1

    Geometry (in Angstrom), charge = 0, multiplicity = 1:

       Center              X                  Y                   Z               Mass
    ------------   -----------------  -----------------  -----------------  -----------------
         P           -2.284706504875    -0.940326122336     0.346215789953    30.973761998420
         O           -0.976763504875    -0.201845122336     0.939826789953    15.994914619570
         O            1.347639495125    -1.675766122336     1.232388789953    15.994914619570
         O            0.084094495125     2.359320877664     0.463705789953    15.994914619570
         O            3.073904495125    -2.187355122336    -0.807052210047    15.994914619570
         O            2.852724495125     2.502829877664     0.373072789953    15.994914619570
         O            4.201077495125     0.435113877664    -0.971336210047    15.994914619570
         O           -2.821473504875     0.033067877664    -0.805993210047    15.994914619570
         O           -3.253731504875    -0.723565122336     1.623208789953    15.994914619570
         O           -2.113603504875    -2.343927122336    -0.098130210047    15.994914619570
         C            0.123551495125     0.029725877664     0.017856789953    12.000000000000
         C            0.894466195125    -1.281954222336    -0.103475110047    12.000000000000
         C            0.838819295125     1.246623777664     0.558761689953    12.000000000000
         C            2.265049495125    -1.014590122336    -0.816499210047    12.000000000000
         C            2.182464495125     1.396188877664    -0.226503210047    12.000000000000
         C            3.031231495125     0.148421877664    -0.208784210047    12.000000000000
         C           -3.118823504875     1.431314877664    -0.487348210047    12.000000000000
         C           -3.530927504875     2.084881877664    -1.782581210047    12.000000000000
         H           -0.277702504875     0.298517877664    -0.968700210047     1.007825032230
         H            0.375658495125    -2.029647122336    -0.570494210047     1.007825032230
         H            1.162509495125     0.997593877664     1.613693789953     1.007825032230
         H            2.066323495125    -0.788943122336    -1.871218210047     1.007825032230
         H            1.922376495125     1.636003877664    -1.272045210047     1.007825032230
         H            3.301244495125    -0.094815122336     0.829183789953     1.007825032230
         H            0.527164495125    -1.888315122336     1.713047789953     1.007825032230
         H            0.670929495125     3.109027877664     0.684721789953     1.007825032230
         H            2.978932495125    -2.547657122336     0.096191789953     1.007825032230
         H            3.726818495125     2.548902877664    -0.057331210047     1.007825032230
         H            4.645116495125    -0.424117122336    -1.095549210047     1.007825032230
         H           -3.803005504875    -1.522621122336     1.736265789953     1.007825032230
         H           -3.925156504875     1.445257877664     0.250923789953     1.007825032230
         H           -2.224372504875     1.892596877664    -0.057558210047     1.007825032230
         H           -3.795131504875     3.130598877664    -1.601133210047     1.007825032230
         H           -2.711806504875     2.053039877664    -2.503337210047     1.007825032230
         H           -4.395554504875     1.574039877664    -2.211186210047     1.007825032230

  Basis Set: AUG-CC-PVTZ
    Blend: AUG-CC-PVTZ
  Basis Set: (AUG-CC-PVTZ AUX)
    Blend: AUG-CC-PVTZ-JKFIT
	 Reference Energy          =   -1327.8472555920607192 [Eh]
	 Singles Energy            =      -0.0000000000000000 [Eh]
	 Same-Spin Energy          =      -1.0144647785782857 [Eh]
	 Opposite-Spin Energy      =      -3.0760483750924421 [Eh]
	 Correlation Energy        =      -4.0905131536707273 [Eh]
	 Total Energy              =   -1331.9377687457315460 [Eh]

	 ================> DF-SCS-MP2 Energies <==================
	-----------------------------------------------------------
	 SCS Same-Spin Scale       =       0.3333333333333333 [-]
	 SCS Opposite-Spin Scale   =       1.2000000000000000 [-]
	 SCS Same-Spin Energy      =      -0.3381549261927619 [Eh]
	 SCS Opposite-Spin Energy  =      -3.6912580501109304 [Eh]
	 SCS Correlation Energy    =      -4.0294129763036928 [Eh]
	 SCS Total Energy          =   -1331.8766685683644937 [Eh]
	-----------------------------------------------------------

  Dipole Moment: [D]
     X:    -1.3082      Y:     2.0754      Z:     0.6509     Total:     2.5381

*** Psi4 exiting successfully. Buy a developer a beer!
