                               Psi4 1.4a3.dev225

  ==> Input File <==

--------------------------------------------------------------------------
#psi4
#
memory 32 gb

molecule  {
0 1
  P       -2.3219140    -1.0563120    -0.0968450
  O       -1.0126710    -0.5562632     0.7654233
  O        1.3695440    -1.8069540     1.2202350
  O       -0.1592450     2.1412630     0.5207450
  O        3.3269040    -2.0858120    -0.6453880
  O        2.5724350     2.5270130     0.6374560
  O        4.2203020     0.6406430    -0.6358120
  O       -2.8737010     0.2643620    -0.8096810
  O       -3.3065970    -1.3497020     1.1531960
  O       -2.1044560    -2.1814480    -1.0350500
  C        0.1200290    -0.1583450    -0.0432010
  C        1.0698050    -1.3527180    -0.1046720
  C        0.7441670     1.0454510     0.6308160
  C        2.4193320    -0.9866070    -0.7068450
  C        2.0603010     1.3853380    -0.0470020
  C        3.0180900     0.2181970     0.0056710
  C       -3.2473180     1.4231610     0.0025120
  C       -3.2076300     2.6262440    -0.9075720
  H       -0.2047330     0.1313700    -1.0514980
  H        0.5965010    -2.1549610    -0.6866410
  H        0.9371260     0.8063110     1.6860210
  H        2.3054700    -0.7437210    -1.7704410
  H        1.8633300     1.6367370    -1.1028410
  H        3.2142070    -0.0417910     1.0561650
  H        0.5126160    -2.0057500     1.6426110
  H        0.3598300     2.9232990     0.7925780
  H        3.1793900    -2.4823080     0.2360710
  H        3.4672560     2.6739710     0.2770410
  H        4.7639490    -0.1654590    -0.7244900
  H       -3.7873380    -2.1826420     0.9908450
  H       -4.2474700     1.2335250     0.4005830
  H       -2.5352900     1.5309660     0.8217280
  H       -3.5402110     3.5125760    -0.3587690
  H       -2.1856630     2.7912820    -1.2511950
  H       -3.8637180     2.4807570    -1.7684970
units angstrom
no_reorient  #important for SAPT in psi4, default
symmetry c1  #important for SAPT in psi4, default
}

set PROPERTIES_ORIGIN ["COM"]
properties('MP2/aug-cc-pvtz', properties = ['dipole'])
--------------------------------------------------------------------------

    Molecular point group: c1
  Charge       = 0
  Multiplicity = 1
  Basis Set: AUG-CC-PVTZ
    Blend: AUG-CC-PVTZ
  Basis Set: (AUG-CC-PVTZ AUX)
    Blend: AUG-CC-PVTZ-JKFIT

    Orbital Energies [Eh]
    ---------------------

    Doubly Occupied:

       1A    -80.119714     2A    -20.616732     3A    -20.608053
       4A    -20.597873     5A    -20.583176     6A    -20.577727
       7A    -20.574720     8A    -20.574454     9A    -20.573942
      10A    -20.524665    11A    -11.319108    12A    -11.304073
      13A    -11.299456    14A    -11.299187    15A    -11.297326
      16A    -11.296906    17A    -11.292265    18A    -11.223365
      19A     -7.634637    20A     -5.533169    21A     -5.532627
      22A     -5.531610    23A     -1.457455    24A     -1.410853
      25A     -1.394946    26A     -1.392293    27A     -1.386486
      28A     -1.371703    29A     -1.363481    30A     -1.353480
      31A     -1.304546    32A     -1.117290    33A     -1.036186
      34A     -1.009619    35A     -1.002653    36A     -0.876969
      37A     -0.862802    38A     -0.858777    39A     -0.823420
      40A     -0.809570    41A     -0.754063    42A     -0.745353
      43A     -0.728755    44A     -0.725959    45A     -0.705149
      46A     -0.686528    47A     -0.679350    48A     -0.673805
      49A     -0.661996    50A     -0.659645    51A     -0.641559
      52A     -0.637068    53A     -0.623559    54A     -0.613265
      55A     -0.603618    56A     -0.596212    57A     -0.581050
      58A     -0.576881    59A     -0.571457    60A     -0.559347
      61A     -0.555073    62A     -0.548169    63A     -0.538794
      64A     -0.537580    65A     -0.529783    66A     -0.516861
      67A     -0.508628    68A     -0.503248    69A     -0.495003
      70A     -0.486903    71A     -0.479602    72A     -0.476710
      73A     -0.461849    74A     -0.456554    75A     -0.450141
      76A     -0.436007

  @DF-RHF Final Energy: -1327.85925405168109

   => Energetics <=

    Nuclear Repulsion Energy =           1774.2946170476136558
    One-Electron Energy =               -5360.8020738076711496
    Two-Electron Energy =                2258.6482027083766297
    Total Energy =                      -1327.8592540516810914
  Basis Set: (AUG-CC-PVTZ AUX)
    Blend: AUG-CC-PVTZ-RI
    Molecular point group: c1

    Geometry (in Angstrom), charge = 0, multiplicity = 1:

       Center              X                  Y                   Z               Mass
    ------------   -----------------  -----------------  -----------------  -----------------
         P           -2.312036204442    -1.018870417880    -0.099871408185    30.973761998420
         O           -1.002793204442    -0.518821617880     0.762396891815    15.994914619570
         O            1.379421795558    -1.769512417880     1.217208591815    15.994914619570
         O           -0.149367204442     2.178704582120     0.517718591815    15.994914619570
         O            3.336781795558    -2.048370417880    -0.648414408185    15.994914619570
         O            2.582312795558     2.564454582120     0.634429591815    15.994914619570
         O            4.230179795558     0.678084582120    -0.638838408185    15.994914619570
         O           -2.863823204442     0.301803582120    -0.812707408185    15.994914619570
         O           -3.296719204442    -1.312260417880     1.150169591815    15.994914619570
         O           -2.094578204442    -2.144006417880    -1.038076408185    15.994914619570
         C            0.129906795558    -0.120903417880    -0.046227408185    12.000000000000
         C            1.079682795558    -1.315276417880    -0.107698408185    12.000000000000
         C            0.754044795558     1.082892582120     0.627789591815    12.000000000000
         C            2.429209795558    -0.949165417880    -0.709871408185    12.000000000000
         C            2.070178795558     1.422779582120    -0.050028408185    12.000000000000
         C            3.027967795558     0.255638582120     0.002644591815    12.000000000000
         C           -3.237440204442     1.460602582120    -0.000514408185    12.000000000000
         C           -3.197752204442     2.663685582120    -0.910598408185    12.000000000000
         H           -0.194855204442     0.168811582120    -1.054524408185     1.007825032230
         H            0.606378795558    -2.117519417880    -0.689667408185     1.007825032230
         H            0.947003795558     0.843752582120     1.682994591815     1.007825032230
         H            2.315347795558    -0.706279417880    -1.773467408185     1.007825032230
         H            1.873207795558     1.674178582120    -1.105867408185     1.007825032230
         H            3.224084795558    -0.004349417880     1.053138591815     1.007825032230
         H            0.522493795558    -1.968308417880     1.639584591815     1.007825032230
         H            0.369707795558     2.960740582120     0.789551591815     1.007825032230
         H            3.189267795558    -2.444866417880     0.233044591815     1.007825032230
         H            3.477133795558     2.711412582120     0.274014591815     1.007825032230
         H            4.773826795558    -0.128017417880    -0.727516408185     1.007825032230
         H           -3.777460204442    -2.145200417880     0.987818591815     1.007825032230
         H           -4.237592204442     1.270966582120     0.397556591815     1.007825032230
         H           -2.525412204442     1.568407582120     0.818701591815     1.007825032230
         H           -3.530333204442     3.550017582120    -0.361795408185     1.007825032230
         H           -2.175785204442     2.828723582120    -1.254221408185     1.007825032230
         H           -3.853840204442     2.518198582120    -1.771523408185     1.007825032230

  Basis Set: AUG-CC-PVTZ
    Blend: AUG-CC-PVTZ
  Basis Set: (AUG-CC-PVTZ AUX)
    Blend: AUG-CC-PVTZ-JKFIT
	 Reference Energy          =   -1327.8592540516810914 [Eh]
	 Singles Energy            =      -0.0000000000000000 [Eh]
	 Same-Spin Energy          =      -1.0150316827538906 [Eh]
	 Opposite-Spin Energy      =      -3.0772853290204907 [Eh]
	 Correlation Energy        =      -4.0923170117743810 [Eh]
	 Total Energy              =   -1331.9515710634555035 [Eh]

	 ================> DF-SCS-MP2 Energies <==================
	-----------------------------------------------------------
	 SCS Same-Spin Scale       =       0.3333333333333333 [-]
	 SCS Opposite-Spin Scale   =       1.2000000000000000 [-]
	 SCS Same-Spin Energy      =      -0.3383438942512969 [Eh]
	 SCS Opposite-Spin Energy  =      -3.6927423948245885 [Eh]
	 SCS Correlation Energy    =      -4.0310862890758852 [Eh]
	 SCS Total Energy          =   -1331.8903403407568931 [Eh]
	-----------------------------------------------------------

  Dipole Moment: [D]
     X:    -1.0215      Y:     1.3844      Z:     1.8436     Total:     2.5217

*** Psi4 exiting successfully. Buy a developer a beer!
