                               Psi4 1.3.2 release

  ==> Input File <==

--------------------------------------------------------------------------
#psi4
#
memory 32 gb

molecule  {
0 1
  P       -2.2900960    -0.9400430     0.3446780
  O       -0.9821530    -0.2015620     0.9382890
  O        1.3422500    -1.6754830     1.2308510
  O        0.0787050     2.3596040     0.4621680
  O        3.0685150    -2.1870720    -0.8085900
  O        2.8473350     2.5031130     0.3715350
  O        4.1956880     0.4353970    -0.9728740
  O       -2.8268630     0.0333510    -0.8075310
  O       -3.2591210    -0.7232820     1.6216710
  O       -2.1189930    -2.3436440    -0.0996680
  C        0.1181620     0.0300090     0.0163190
  C        0.9532920    -1.2442050    -0.0757250
  C        0.8985890     1.2026440     0.5648510
  C        2.1737162    -1.0294316    -0.7692015
  C        2.1770750     1.3964720    -0.2280410
  C        3.0258420     0.1487050    -0.2103220
  C       -3.1242130     1.4315980    -0.4888860
  C       -3.5363170     2.0851650    -1.7841190
  H       -0.2830920     0.2988010    -0.9702380
  H        0.3702690    -2.0293640    -0.5720320
  H        1.1571200     0.9978770     1.6121560
  H        2.0609340    -0.7886600    -1.8727560
  H        1.9169870     1.6362870    -1.2735830
  H        3.2958550    -0.0945320     0.8276460
  H        0.5217750    -1.8880320     1.7115100
  H        0.6655400     3.1093110     0.6831840
  H        2.9735430    -2.5473740     0.0946540
  H        3.7214290     2.5491860    -0.0588690
  H        4.6397270    -0.4238340    -1.0970870
  H       -3.8083950    -1.5223380     1.7347280
  H       -3.9305460     1.4455410     0.2493860
  H       -2.2297620     1.8928800    -0.0590960
  H       -3.8005210     3.1308820    -1.6026710
  H       -2.7171960     2.0533230    -2.5048750
  H       -4.4009440     1.5743230    -2.2127240
units angstrom
no_reorient  #important for SAPT in psi4, default
symmetry c1  #important for SAPT in psi4, default
}

set PROPERTIES_ORIGIN ["COM"]
properties('MP2/aug-cc-pvtz', properties = ['dipole'])
--------------------------------------------------------------------------

    Molecular point group: c1
  Charge       = 0
  Multiplicity = 1
  Basis Set: AUG-CC-PVTZ
    Blend: AUG-CC-PVTZ
  Basis Set: (AUG-CC-PVTZ AUX)
    Blend: AUG-CC-PVTZ-JKFIT

    Orbital Energies [Eh]
    ---------------------

    Doubly Occupied:

       1A    -80.118004     2A    -20.615584     3A    -20.608788
       4A    -20.599770     5A    -20.584827     6A    -20.576409
       7A    -20.575536     8A    -20.574070     9A    -20.572965
      10A    -20.524462    11A    -11.323586    12A    -11.302038
      13A    -11.300719    14A    -11.300005    15A    -11.299419
      16A    -11.295558    17A    -11.293737    18A    -11.230306
      19A     -7.633457    20A     -5.531962    21A     -5.531591
      22A     -5.530387    23A     -1.461547    24A     -1.411749
      25A     -1.394783    26A     -1.392003    27A     -1.387406
      28A     -1.373575    29A     -1.360359    30A     -1.349467
      31A     -1.304851    32A     -1.126894    33A     -1.041001
      34A     -1.017967    35A     -1.008686    36A     -0.882733
      37A     -0.866388    38A     -0.854549    39A     -0.822982
      40A     -0.808648    41A     -0.754944    42A     -0.745579
      43A     -0.733913    44A     -0.729506    45A     -0.708941
      46A     -0.686944    47A     -0.678221    48A     -0.674645
      49A     -0.662981    50A     -0.653473    51A     -0.645217
      52A     -0.634688    53A     -0.626369    54A     -0.614314
      55A     -0.603301    56A     -0.594860    57A     -0.581232
      58A     -0.575725    59A     -0.572562    60A     -0.559433
      61A     -0.554524    62A     -0.548468    63A     -0.540998
      64A     -0.533598    65A     -0.532536    66A     -0.523147
      67A     -0.516155    68A     -0.508330    69A     -0.498245
      70A     -0.489760    71A     -0.480844    72A     -0.477724
      73A     -0.464331    74A     -0.455100    75A     -0.451808
      76A     -0.430146

  @DF-RHF Final Energy: -1327.84739046626760

   => Energetics <=

    Nuclear Repulsion Energy =           1773.6984978636512551
    One-Electron Energy =               -5359.4291205668432667
    Two-Electron Energy =                2257.8832322369244139
    Total Energy =                      -1327.8473904662678251
  Basis Set: (AUG-CC-PVTZ AUX)
    Blend: AUG-CC-PVTZ-RI
    Molecular point group: c1

    Geometry (in Angstrom), charge = 0, multiplicity = 1:

       Center              X                  Y                   Z               Mass
    ------------   -----------------  -----------------  -----------------  -----------------
         P           -2.286515734050    -0.939412924151     0.342643609298    30.973761998420
         O           -0.978572734050    -0.200931924151     0.936254609298    15.994914619570
         O            1.345830265950    -1.674852924151     1.228816609298    15.994914619570
         O            0.082285265950     2.360234075849     0.460133609298    15.994914619570
         O            3.072095265950    -2.186441924151    -0.810624390702    15.994914619570
         O            2.850915265950     2.503743075849     0.369500609298    15.994914619570
         O            4.199268265950     0.436027075849    -0.974908390702    15.994914619570
         O           -2.823282734050     0.033981075849    -0.809565390702    15.994914619570
         O           -3.255540734050    -0.722651924151     1.619636609298    15.994914619570
         O           -2.115412734050    -2.343013924151    -0.101702390702    15.994914619570
         C            0.121742265950     0.030639075849     0.014284609298    12.000000000000
         C            0.956872265950    -1.243574924151    -0.077759390702    12.000000000000
         C            0.902169265950     1.203274075849     0.562816609298    12.000000000000
         C            2.177296465950    -1.028801524151    -0.771235890702    12.000000000000
         C            2.180655265950     1.397102075849    -0.230075390702    12.000000000000
         C            3.029422265950     0.149335075849    -0.212356390702    12.000000000000
         C           -3.120632734050     1.432228075849    -0.490920390702    12.000000000000
         C           -3.532736734050     2.085795075849    -1.786153390702    12.000000000000
         H           -0.279511734050     0.299431075849    -0.972272390702     1.007825032230
         H            0.373849265950    -2.028733924151    -0.574066390702     1.007825032230
         H            1.160700265950     0.998507075849     1.610121609298     1.007825032230
         H            2.064514265950    -0.788029924151    -1.874790390702     1.007825032230
         H            1.920567265950     1.636917075849    -1.275617390702     1.007825032230
         H            3.299435265950    -0.093901924151     0.825611609298     1.007825032230
         H            0.525355265950    -1.887401924151     1.709475609298     1.007825032230
         H            0.669120265950     3.109941075849     0.681149609298     1.007825032230
         H            2.977123265950    -2.546743924151     0.092619609298     1.007825032230
         H            3.725009265950     2.549816075849    -0.060903390702     1.007825032230
         H            4.643307265950    -0.423203924151    -1.099121390702     1.007825032230
         H           -3.804814734050    -1.521707924151     1.732693609298     1.007825032230
         H           -3.926965734050     1.446171075849     0.247351609298     1.007825032230
         H           -2.226181734050     1.893510075849    -0.061130390702     1.007825032230
         H           -3.796940734050     3.131512075849    -1.604705390702     1.007825032230
         H           -2.713615734050     2.053953075849    -2.506909390702     1.007825032230
         H           -4.397363734050     1.574953075849    -2.214758390702     1.007825032230

  Basis Set: AUG-CC-PVTZ
    Blend: AUG-CC-PVTZ
  Basis Set: (AUG-CC-PVTZ AUX)
    Blend: AUG-CC-PVTZ-JKFIT
	 Reference Energy          =   -1327.8473904662675977 [Eh]
	 Singles Energy            =      -0.0000000000000000 [Eh]
	 Same-Spin Energy          =      -1.0159156696210574 [Eh]
	 Opposite-Spin Energy      =      -3.0786008464495453 [Eh]
	 Correlation Energy        =      -4.0945165160706027 [Eh]
	 Total Energy              =   -1331.9419069823381960 [Eh]

	 ================> DF-SCS-MP2 Energies <==================
	-----------------------------------------------------------
	 SCS Same-Spin Scale       =       0.3333333333333333 [-]
	 SCS Opposite-Spin Scale   =       1.2000000000000000 [-]
	 SCS Same-Spin Energy      =      -0.3386385565403525 [Eh]
	 SCS Opposite-Spin Energy  =      -3.6943210157394542 [Eh]
	 SCS Correlation Energy    =      -4.0329595722798066 [Eh]
	 SCS Total Energy          =   -1331.8803500385474763 [Eh]
	-----------------------------------------------------------

  Dipole Moment: [D]
     X:    -1.2482      Y:     1.8964      Z:     0.7602     Total:     2.3942

*** Psi4 exiting successfully. Buy a developer a beer!
