                               Psi4 1.3.2 release

  ==> Input File <==

--------------------------------------------------------------------------
#psi4
#
memory 32 gb

molecule  {
0 1
  P       -2.2900960    -0.9400430     0.3446780
  O       -0.9653982    -0.2066876     0.9566481
  O        1.3422500    -1.6754830     1.2308510
  O        0.0787050     2.3596040     0.4621680
  O        3.0685150    -2.1870720    -0.8085900
  O        2.8473350     2.5031130     0.3715350
  O        4.1956880     0.4353970    -0.9728740
  O       -2.8268630     0.0333510    -0.8075310
  O       -3.2591210    -0.7232820     1.6216710
  O       -2.1189930    -2.3436440    -0.0996680
  C        0.1181620     0.0300090     0.0163190
  C        0.9532920    -1.2442050    -0.0757250
  C        0.8985890     1.2026440     0.5648510
  C        2.2596600    -1.0143070    -0.8180370
  C        2.1770750     1.3964720    -0.2280410
  C        3.0258420     0.1487050    -0.2103220
  C       -3.1242130     1.4315980    -0.4888860
  C       -3.5363170     2.0851650    -1.7841190
  H       -0.2651872     0.3003454    -0.9769132
  H        0.3702690    -2.0293640    -0.5720320
  H        1.1571200     0.9978770     1.6121560
  H        2.0609340    -0.7886600    -1.8727560
  H        1.9169870     1.6362870    -1.2735830
  H        3.2958550    -0.0945320     0.8276460
  H        0.5217750    -1.8880320     1.7115100
  H        0.6655400     3.1093110     0.6831840
  H        2.9735430    -2.5473740     0.0946540
  H        3.7214290     2.5491860    -0.0588690
  H        4.6397270    -0.4238340    -1.0970870
  H       -3.8083950    -1.5223380     1.7347280
  H       -3.9305460     1.4455410     0.2493860
  H       -2.2297620     1.8928800    -0.0590960
  H       -3.8005210     3.1308820    -1.6026710
  H       -2.7171960     2.0533230    -2.5048750
  H       -4.4009440     1.5743230    -2.2127240
units angstrom
no_reorient  #important for SAPT in psi4, default
symmetry c1  #important for SAPT in psi4, default
}

set PROPERTIES_ORIGIN ["COM"]
properties('MP2/aug-cc-pvtz', properties = ['dipole'])
--------------------------------------------------------------------------

    Molecular point group: c1
  Charge       = 0
  Multiplicity = 1
  Basis Set: AUG-CC-PVTZ
    Blend: AUG-CC-PVTZ
  Basis Set: (AUG-CC-PVTZ AUX)
    Blend: AUG-CC-PVTZ-JKFIT

    Orbital Energies [Eh]
    ---------------------

    Doubly Occupied:

       1A    -80.119190     2A    -20.615647     3A    -20.607784
       4A    -20.601237     5A    -20.582005     6A    -20.576284
       7A    -20.574011     8A    -20.573643     9A    -20.573045
      10A    -20.524585    11A    -11.319499    12A    -11.302489
      13A    -11.300370    14A    -11.298670    15A    -11.297614
      16A    -11.295988    17A    -11.290881    18A    -11.230554
      19A     -7.634343    20A     -5.532859    21A     -5.532413
      22A     -5.531279    23A     -1.458529    24A     -1.410451
      25A     -1.393992    26A     -1.392209    27A     -1.388200
      28A     -1.371515    29A     -1.363354    30A     -1.353200
      31A     -1.304793    32A     -1.118104    33A     -1.041320
      34A     -1.010593    35A     -1.002718    36A     -0.879045
      37A     -0.865286    38A     -0.858352    39A     -0.823114
      40A     -0.810247    41A     -0.751076    42A     -0.744379
      43A     -0.731187    44A     -0.728399    45A     -0.706795
      46A     -0.686725    47A     -0.677747    48A     -0.673965
      49A     -0.662030    50A     -0.660823    51A     -0.642219
      52A     -0.634350    53A     -0.626910    54A     -0.615549
      55A     -0.603155    56A     -0.597953    57A     -0.581805
      58A     -0.575981    59A     -0.570425    60A     -0.559218
      61A     -0.556203    62A     -0.548695    63A     -0.541796
      64A     -0.536175    65A     -0.530439    66A     -0.521058
      67A     -0.513356    68A     -0.504029    69A     -0.497367
      70A     -0.484167    71A     -0.480709    72A     -0.477376
      73A     -0.461672    74A     -0.455374    75A     -0.449481
      76A     -0.435709

  @DF-RHF Final Energy: -1327.85956601678026

   => Energetics <=

    Nuclear Repulsion Energy =           1771.8662146203123484
    One-Electron Energy =               -5355.8841491355524340
    Two-Electron Energy =                2256.1583684984598221
    Total Energy =                      -1327.8595660167802635
  Basis Set: (AUG-CC-PVTZ AUX)
    Blend: AUG-CC-PVTZ-RI
    Molecular point group: c1

    Geometry (in Angstrom), charge = 0, multiplicity = 1:

       Center              X                  Y                   Z               Mass
    ------------   -----------------  -----------------  -----------------  -----------------
         P           -2.291088939078    -0.939763780893     0.343681935128    30.973761998420
         O           -0.966391139078    -0.206408380893     0.955652035128    15.994914619570
         O            1.341257060922    -1.675203780893     1.229854935128    15.994914619570
         O            0.077712060922     2.359883219107     0.461171935128    15.994914619570
         O            3.067522060922    -2.186792780893    -0.809586064872    15.994914619570
         O            2.846342060922     2.503392219107     0.370538935128    15.994914619570
         O            4.194695060922     0.435676219107    -0.973870064872    15.994914619570
         O           -2.827855939078     0.033630219107    -0.808527064872    15.994914619570
         O           -3.260113939078    -0.723002780893     1.620674935128    15.994914619570
         O           -2.119985939078    -2.343364780893    -0.100664064872    15.994914619570
         C            0.117169060922     0.030288219107     0.015322935128    12.000000000000
         C            0.952299060922    -1.243925780893    -0.076721064872    12.000000000000
         C            0.897596060922     1.202923219107     0.563854935128    12.000000000000
         C            2.258667060922    -1.014027780893    -0.819033064872    12.000000000000
         C            2.176082060922     1.396751219107    -0.229037064872    12.000000000000
         C            3.024849060922     0.148984219107    -0.211318064872    12.000000000000
         C           -3.125205939078     1.431877219107    -0.489882064872    12.000000000000
         C           -3.537309939078     2.085444219107    -1.785115064872    12.000000000000
         H           -0.266180139078     0.300624619107    -0.977909264872     1.007825032230
         H            0.369276060922    -2.029084780893    -0.573028064872     1.007825032230
         H            1.156127060922     0.998156219107     1.611159935128     1.007825032230
         H            2.059941060922    -0.788380780893    -1.873752064872     1.007825032230
         H            1.915994060922     1.636566219107    -1.274579064872     1.007825032230
         H            3.294862060922    -0.094252780893     0.826649935128     1.007825032230
         H            0.520782060922    -1.887752780893     1.710513935128     1.007825032230
         H            0.664547060922     3.109590219107     0.682187935128     1.007825032230
         H            2.972550060922    -2.547094780893     0.093657935128     1.007825032230
         H            3.720436060922     2.549465219107    -0.059865064872     1.007825032230
         H            4.638734060922    -0.423554780893    -1.098083064872     1.007825032230
         H           -3.809387939078    -1.522058780893     1.733731935128     1.007825032230
         H           -3.931538939078     1.445820219107     0.248389935128     1.007825032230
         H           -2.230754939078     1.893159219107    -0.060092064872     1.007825032230
         H           -3.801513939078     3.131161219107    -1.603667064872     1.007825032230
         H           -2.718188939078     2.053602219107    -2.505871064872     1.007825032230
         H           -4.401936939078     1.574602219107    -2.213720064872     1.007825032230

  Basis Set: AUG-CC-PVTZ
    Blend: AUG-CC-PVTZ
  Basis Set: (AUG-CC-PVTZ AUX)
    Blend: AUG-CC-PVTZ-JKFIT
	 Reference Energy          =   -1327.8595660167802635 [Eh]
	 Singles Energy            =      -0.0000000000000000 [Eh]
	 Same-Spin Energy          =      -1.0149396778143311 [Eh]
	 Opposite-Spin Energy      =      -3.0769226815536261 [Eh]
	 Correlation Energy        =      -4.0918623593679575 [Eh]
	 Total Energy              =   -1331.9514283761482147 [Eh]

	 ================> DF-SCS-MP2 Energies <==================
	-----------------------------------------------------------
	 SCS Same-Spin Scale       =       0.3333333333333333 [-]
	 SCS Opposite-Spin Scale   =       1.2000000000000000 [-]
	 SCS Same-Spin Energy      =      -0.3383132259381104 [Eh]
	 SCS Opposite-Spin Energy  =      -3.6923072178643510 [Eh]
	 SCS Correlation Energy    =      -4.0306204438024613 [Eh]
	 SCS Total Energy          =   -1331.8901864605827541 [Eh]
	-----------------------------------------------------------

  Dipole Moment: [D]
     X:    -1.2429      Y:     1.8634      Z:     0.6787     Total:     2.3405

*** Psi4 exiting successfully. Buy a developer a beer!
