                               Psi4 1.3.2 release

  ==> Input File <==

--------------------------------------------------------------------------
#psi4
#
memory 32 gb

molecule  {
0 1
  P       -2.2900960    -0.9400430     0.3446780
  O       -0.9821530    -0.2015620     0.9382890
  O        1.2939966    -1.6790115     1.2430978
  O        0.0787050     2.3596040     0.4621680
  O        3.0685150    -2.1870720    -0.8085900
  O        2.8473350     2.5031130     0.3715350
  O        4.1956880     0.4353970    -0.9728740
  O       -2.8268630     0.0333510    -0.8075310
  O       -3.2591210    -0.7232820     1.6216710
  O       -2.1189930    -2.3436440    -0.0996680
  C        0.1181620     0.0300090     0.0163190
  C        0.9532920    -1.2442050    -0.0757250
  C        0.8985890     1.2026440     0.5648510
  C        2.2317485    -1.0000285    -0.8608393
  C        2.1770750     1.3964720    -0.2280410
  C        3.0258420     0.1487050    -0.2103220
  C       -3.1242130     1.4315980    -0.4888860
  C       -3.5363170     2.0851650    -1.7841190
  H       -0.2830920     0.2988010    -0.9702380
  H        0.3702690    -2.0293640    -0.5720320
  H        1.1571200     0.9978770     1.6121560
  H        2.0609340    -0.7886600    -1.8727560
  H        1.9169870     1.6362870    -1.2735830
  H        3.2958550    -0.0945320     0.8276460
  H        0.5217750    -1.8880320     1.7115100
  H        0.6655400     3.1093110     0.6831840
  H        2.9735430    -2.5473740     0.0946540
  H        3.7214290     2.5491860    -0.0588690
  H        4.6397270    -0.4238340    -1.0970870
  H       -3.8083950    -1.5223380     1.7347280
  H       -3.9305460     1.4455410     0.2493860
  H       -2.2297620     1.8928800    -0.0590960
  H       -3.8005210     3.1308820    -1.6026710
  H       -2.7171960     2.0533230    -2.5048750
  H       -4.4009440     1.5743230    -2.2127240
units angstrom
no_reorient  #important for SAPT in psi4, default
symmetry c1  #important for SAPT in psi4, default
}

set PROPERTIES_ORIGIN ["COM"]
properties('MP2/aug-cc-pvtz', properties = ['dipole'])
--------------------------------------------------------------------------

    Molecular point group: c1
  Charge       = 0
  Multiplicity = 1
  Basis Set: AUG-CC-PVTZ
    Blend: AUG-CC-PVTZ
  Basis Set: (AUG-CC-PVTZ AUX)
    Blend: AUG-CC-PVTZ-JKFIT

    Orbital Energies [Eh]
    ---------------------

    Doubly Occupied:

       1A    -80.116336     2A    -20.614236     3A    -20.605957
       4A    -20.598560     5A    -20.577769     6A    -20.576855
       7A    -20.574676     8A    -20.573537     9A    -20.572042
      10A    -20.522783    11A    -11.320153    12A    -11.305272
      13A    -11.300751    14A    -11.299163    15A    -11.298670
      16A    -11.296674    17A    -11.293819    18A    -11.229778
      19A     -7.631781    20A     -5.530287    21A     -5.529915
      22A     -5.528712    23A     -1.459782    24A     -1.411350
      25A     -1.396025    26A     -1.390883    27A     -1.386264
      28A     -1.374169    29A     -1.361890    30A     -1.351250
      31A     -1.303193    32A     -1.121069    33A     -1.040274
      34A     -1.011487    35A     -1.006725    36A     -0.880017
      37A     -0.864761    38A     -0.862056    39A     -0.823070
      40A     -0.815704    41A     -0.751494    42A     -0.744104
      43A     -0.731539    44A     -0.728884    45A     -0.707668
      46A     -0.686670    47A     -0.682319    48A     -0.672958
      49A     -0.662694    50A     -0.659630    51A     -0.643194
      52A     -0.635619    53A     -0.626090    54A     -0.616351
      55A     -0.604180    56A     -0.600015    57A     -0.582176
      58A     -0.575848    59A     -0.569400    60A     -0.559889
      61A     -0.557966    62A     -0.548087    63A     -0.542334
      64A     -0.536994    65A     -0.531084    66A     -0.521916
      67A     -0.512877    68A     -0.505673    69A     -0.496708
      70A     -0.484379    71A     -0.479330    72A     -0.476054
      73A     -0.462239    74A     -0.456064    75A     -0.450008
      76A     -0.434281

  @DF-RHF Final Energy: -1327.85883546026525

   => Energetics <=

    Nuclear Repulsion Energy =           1772.3190447019887870
    One-Electron Energy =               -5356.7669300567613391
    Two-Electron Energy =                2256.5890498945072977
    Total Energy =                      -1327.8588354602652544
  Basis Set: (AUG-CC-PVTZ AUX)
    Blend: AUG-CC-PVTZ-RI
    Molecular point group: c1

    Geometry (in Angstrom), charge = 0, multiplicity = 1:

       Center              X                  Y                   Z               Mass
    ------------   -----------------  -----------------  -----------------  -----------------
         P           -2.286253909617    -0.940441869840     0.345781024705    30.973761998420
         O           -0.978310909617    -0.201960869840     0.939392024705    15.994914619570
         O            1.297838690383    -1.679410369840     1.244200824705    15.994914619570
         O            0.082547090383     2.359205130160     0.463271024705    15.994914619570
         O            3.072357090383    -2.187470869840    -0.807486975295    15.994914619570
         O            2.851177090383     2.502714130160     0.372638024705    15.994914619570
         O            4.199530090383     0.434998130160    -0.971770975295    15.994914619570
         O           -2.823020909617     0.032952130160    -0.806427975295    15.994914619570
         O           -3.255278909617    -0.723680869840     1.622774024705    15.994914619570
         O           -2.115150909617    -2.344042869840    -0.098564975295    15.994914619570
         C            0.122004090383     0.029610130160     0.017422024705    12.000000000000
         C            0.957134090383    -1.244603869840    -0.074621975295    12.000000000000
         C            0.902431090383     1.202245130160     0.565954024705    12.000000000000
         C            2.235590590383    -1.000427369840    -0.859736275295    12.000000000000
         C            2.180917090383     1.396073130160    -0.226937975295    12.000000000000
         C            3.029684090383     0.148306130160    -0.209218975295    12.000000000000
         C           -3.120370909617     1.431199130160    -0.487782975295    12.000000000000
         C           -3.532474909617     2.084766130160    -1.783015975295    12.000000000000
         H           -0.279249909617     0.298402130160    -0.969134975295     1.007825032230
         H            0.374111090383    -2.029762869840    -0.570928975295     1.007825032230
         H            1.160962090383     0.997478130160     1.613259024705     1.007825032230
         H            2.064776090383    -0.789058869840    -1.871652975295     1.007825032230
         H            1.920829090383     1.635888130160    -1.272479975295     1.007825032230
         H            3.299697090383    -0.094930869840     0.828749024705     1.007825032230
         H            0.525617090383    -1.888430869840     1.712613024705     1.007825032230
         H            0.669382090383     3.108912130160     0.684287024705     1.007825032230
         H            2.977385090383    -2.547772869840     0.095757024705     1.007825032230
         H            3.725271090383     2.548787130160    -0.057765975295     1.007825032230
         H            4.643569090383    -0.424232869840    -1.095983975295     1.007825032230
         H           -3.804552909617    -1.522736869840     1.735831024705     1.007825032230
         H           -3.926703909617     1.445142130160     0.250489024705     1.007825032230
         H           -2.225919909617     1.892481130160    -0.057992975295     1.007825032230
         H           -3.796678909617     3.130483130160    -1.601567975295     1.007825032230
         H           -2.713353909617     2.052924130160    -2.503771975295     1.007825032230
         H           -4.397101909617     1.573924130160    -2.211620975295     1.007825032230

  Basis Set: AUG-CC-PVTZ
    Blend: AUG-CC-PVTZ
  Basis Set: (AUG-CC-PVTZ AUX)
    Blend: AUG-CC-PVTZ-JKFIT
	 Reference Energy          =   -1327.8588354602652544 [Eh]
	 Singles Energy            =      -0.0000000000000000 [Eh]
	 Same-Spin Energy          =      -1.0136114771605489 [Eh]
	 Opposite-Spin Energy      =      -3.0744841072739790 [Eh]
	 Correlation Energy        =      -4.0880955844345284 [Eh]
	 Total Energy              =   -1331.9469310446997952 [Eh]

	 ================> DF-SCS-MP2 Energies <==================
	-----------------------------------------------------------
	 SCS Same-Spin Scale       =       0.3333333333333333 [-]
	 SCS Opposite-Spin Scale   =       1.2000000000000000 [-]
	 SCS Same-Spin Energy      =      -0.3378704923868496 [Eh]
	 SCS Opposite-Spin Energy  =      -3.6893809287287747 [Eh]
	 SCS Correlation Energy    =      -4.0272514211156238 [Eh]
	 SCS Total Energy          =   -1331.8860868813808338 [Eh]
	-----------------------------------------------------------

  Dipole Moment: [D]
     X:    -1.0551      Y:     1.9320      Z:     0.6303     Total:     2.2898

*** Psi4 exiting successfully. Buy a developer a beer!
