                               Psi4 1.4a3.dev225

  ==> Input File <==

--------------------------------------------------------------------------
#psi4
#
memory 32 gb

molecule  {
0 1
  P       -2.3219140    -1.0563120    -0.0968450
  O       -1.0285840    -0.5623410     0.7549430
  O        1.3695440    -1.8069540     1.2202350
  O       -0.1592450     2.1412630     0.5207450
  O        3.3269040    -2.0858120    -0.6453880
  O        2.5724350     2.5270130     0.6374560
  O        4.2203020     0.6406430    -0.6358120
  O       -2.8737010     0.2643620    -0.8096810
  O       -3.3065970    -1.3497020     1.1531960
  O       -2.1044560    -2.1814480    -1.0350500
  C        0.1200290    -0.1583450    -0.0432010
  C        1.0698050    -1.3527180    -0.1046720
  C        0.7441670     1.0454510     0.6308160
  C        2.4193320    -0.9866070    -0.7068450
  C        2.0603010     1.3853380    -0.0470020
  C        3.0180900     0.2181970     0.0056710
  C       -3.2473180     1.4231610     0.0025120
  C       -3.2076300     2.6262440    -0.9075720
  H       -0.2047330     0.1313700    -1.0514980
  H        0.5965010    -2.1549610    -0.6866410
  H        0.9371260     0.8063110     1.6860210
  H        2.3002798    -0.7326495    -1.8189228
  H        1.8633300     1.6367370    -1.1028410
  H        3.2142070    -0.0417910     1.0561650
  H        0.5126160    -2.0057500     1.6426110
  H        0.3598300     2.9232990     0.7925780
  H        3.1793900    -2.4823080     0.2360710
  H        3.4672560     2.6739710     0.2770410
  H        4.7639490    -0.1654590    -0.7244900
  H       -3.7873380    -2.1826420     0.9908450
  H       -4.2474700     1.2335250     0.4005830
  H       -2.5352900     1.5309660     0.8217280
  H       -3.5402110     3.5125760    -0.3587690
  H       -2.1856630     2.7912820    -1.2511950
  H       -3.8637180     2.4807570    -1.7684970
units angstrom
no_reorient  #important for SAPT in psi4, default
symmetry c1  #important for SAPT in psi4, default
}

set PROPERTIES_ORIGIN ["COM"]
properties('MP2/aug-cc-pvtz', properties = ['dipole'])
--------------------------------------------------------------------------

    Molecular point group: c1
  Charge       = 0
  Multiplicity = 1
  Basis Set: AUG-CC-PVTZ
    Blend: AUG-CC-PVTZ
  Basis Set: (AUG-CC-PVTZ AUX)
    Blend: AUG-CC-PVTZ-JKFIT

    Orbital Energies [Eh]
    ---------------------

    Doubly Occupied:

       1A    -80.116830     2A    -20.615016     3A    -20.608106
       4A    -20.596017     5A    -20.584420     6A    -20.578512
       7A    -20.575935     8A    -20.575350     9A    -20.574655
      10A    -20.522534    11A    -11.321403    12A    -11.306334
      13A    -11.305489    14A    -11.300619    15A    -11.298350
      16A    -11.296146    17A    -11.293536    18A    -11.222886
      19A     -7.632093    20A     -5.530628    21A     -5.530126
      22A     -5.529064    23A     -1.458513    24A     -1.411078
      25A     -1.395515    26A     -1.392858    27A     -1.385193
      28A     -1.372825    29A     -1.364448    30A     -1.354459
      31A     -1.302717    32A     -1.118394    33A     -1.035501
      34A     -1.011271    35A     -1.002319    36A     -0.877922
      37A     -0.862412    38A     -0.857721    39A     -0.822110
      40A     -0.808117    41A     -0.754576    42A     -0.745576
      43A     -0.729004    44A     -0.726182    45A     -0.705686
      46A     -0.686596    47A     -0.679355    48A     -0.674243
      49A     -0.662479    50A     -0.659305    51A     -0.642170
      52A     -0.637468    53A     -0.623595    54A     -0.612989
      55A     -0.604101    56A     -0.595674    57A     -0.580766
      58A     -0.577748    59A     -0.570002    60A     -0.559496
      61A     -0.554781    62A     -0.548039    63A     -0.538782
      64A     -0.536909    65A     -0.528679    66A     -0.516986
      67A     -0.508648    68A     -0.503061    69A     -0.494496
      70A     -0.487093    71A     -0.478707    72A     -0.475493
      73A     -0.462704    74A     -0.457383    75A     -0.451043
      76A     -0.436885

  @DF-RHF Final Energy: -1327.85865379163010

   => Energetics <=

    Nuclear Repulsion Energy =           1774.3132466751208085
    One-Electron Energy =               -5360.8355502454005546
    Two-Electron Energy =                2258.6636497786498694
    Total Energy =                      -1327.8586537916298767
  Basis Set: (AUG-CC-PVTZ AUX)
    Blend: AUG-CC-PVTZ-RI
    Molecular point group: c1

    Geometry (in Angstrom), charge = 0, multiplicity = 1:

       Center              X                  Y                   Z               Mass
    ------------   -----------------  -----------------  -----------------  -----------------
         P           -2.311134458380    -1.018571676463    -0.099119856740    30.973761998420
         O           -1.017804458380    -0.524600676463     0.752668143260    15.994914619570
         O            1.380323541620    -1.769213676463     1.217960143260    15.994914619570
         O           -0.148465458380     2.179003323537     0.518470143260    15.994914619570
         O            3.337683541620    -2.048071676463    -0.647662856740    15.994914619570
         O            2.583214541620     2.564753323537     0.635181143260    15.994914619570
         O            4.231081541620     0.678383323537    -0.638086856740    15.994914619570
         O           -2.862921458380     0.302102323537    -0.811955856740    15.994914619570
         O           -3.295817458380    -1.311961676463     1.150921143260    15.994914619570
         O           -2.093676458380    -2.143707676463    -1.037324856740    15.994914619570
         C            0.130808541620    -0.120604676463    -0.045475856740    12.000000000000
         C            1.080584541620    -1.314977676463    -0.106946856740    12.000000000000
         C            0.754946541620     1.083191323537     0.628541143260    12.000000000000
         C            2.430111541620    -0.948866676463    -0.709119856740    12.000000000000
         C            2.071080541620     1.423078323537    -0.049276856740    12.000000000000
         C            3.028869541620     0.255937323537     0.003396143260    12.000000000000
         C           -3.236538458380     1.460901323537     0.000237143260    12.000000000000
         C           -3.196850458380     2.663984323537    -0.909846856740    12.000000000000
         H           -0.193953458380     0.169110323537    -1.053772856740     1.007825032230
         H            0.607280541620    -2.117220676463    -0.688915856740     1.007825032230
         H            0.947905541620     0.844051323537     1.683746143260     1.007825032230
         H            2.311059341620    -0.694909176463    -1.821197656740     1.007825032230
         H            1.874109541620     1.674477323537    -1.105115856740     1.007825032230
         H            3.224986541620    -0.004050676463     1.053890143260     1.007825032230
         H            0.523395541620    -1.968009676463     1.640336143260     1.007825032230
         H            0.370609541620     2.961039323537     0.790303143260     1.007825032230
         H            3.190169541620    -2.444567676463     0.233796143260     1.007825032230
         H            3.478035541620     2.711711323537     0.274766143260     1.007825032230
         H            4.774728541620    -0.127718676463    -0.726764856740     1.007825032230
         H           -3.776558458380    -2.144901676463     0.988570143260     1.007825032230
         H           -4.236690458380     1.271265323537     0.398308143260     1.007825032230
         H           -2.524510458380     1.568706323537     0.819453143260     1.007825032230
         H           -3.529431458380     3.550316323537    -0.361043856740     1.007825032230
         H           -2.174883458380     2.829022323537    -1.253469856740     1.007825032230
         H           -3.852938458380     2.518497323537    -1.770771856740     1.007825032230

  Basis Set: AUG-CC-PVTZ
    Blend: AUG-CC-PVTZ
  Basis Set: (AUG-CC-PVTZ AUX)
    Blend: AUG-CC-PVTZ-JKFIT
	 Reference Energy          =   -1327.8586537916301040 [Eh]
	 Singles Energy            =      -0.0000000000000000 [Eh]
	 Same-Spin Energy          =      -1.0148061587999437 [Eh]
	 Opposite-Spin Energy      =      -3.0770135362595372 [Eh]
	 Correlation Energy        =      -4.0918196950594812 [Eh]
	 Total Energy              =   -1331.9504734866895888 [Eh]

	 ================> DF-SCS-MP2 Energies <==================
	-----------------------------------------------------------
	 SCS Same-Spin Scale       =       0.3333333333333333 [-]
	 SCS Opposite-Spin Scale   =       1.2000000000000000 [-]
	 SCS Same-Spin Energy      =      -0.3382687195999812 [Eh]
	 SCS Opposite-Spin Energy  =      -3.6924162435114445 [Eh]
	 SCS Correlation Energy    =      -4.0306849631114261 [Eh]
	 SCS Total Energy          =   -1331.8893387547416296 [Eh]
	-----------------------------------------------------------

  Dipole Moment: [D]
     X:    -0.8540      Y:     1.4091      Z:     1.8921     Total:     2.5090

*** Psi4 exiting successfully. Buy a developer a beer!
