                               Psi4 1.3.2 release

  ==> Input File <==

--------------------------------------------------------------------------
#psi4
#
memory 32 gb

molecule  {
0 1
  P       -2.2900960    -0.9400430     0.3446780
  O       -0.9821530    -0.2015620     0.9382890
  O        1.3422500    -1.6754830     1.2308510
  O        0.0787050     2.3596040     0.4621680
  O        3.0685150    -2.1870720    -0.8085900
  O        2.8473350     2.5031130     0.3715350
  O        4.1956880     0.4353970    -0.9728740
  O       -2.8268630     0.0333510    -0.8075310
  O       -3.2591210    -0.7232820     1.6216710
  O       -2.1189930    -2.3436440    -0.0996680
  C        0.1181620     0.0300090     0.0163190
  C        0.9532920    -1.2442050    -0.0757250
  C        0.8985890     1.2026440     0.5648510
  C        2.2596600    -1.0143070    -0.8180370
  C        2.1770750     1.3964720    -0.2280410
  C        3.0258420     0.1487050    -0.2103220
  C       -3.1242130     1.4315980    -0.4888860
  C       -3.5363170     2.0851650    -1.7841190
  H       -0.2830920     0.2988010    -0.9702380
  H        0.3702690    -2.0293640    -0.5720320
  H        1.1571200     0.9978770     1.6121560
  H        2.0609340    -0.7886600    -1.8727560
  H        1.9169870     1.6362870    -1.2735830
  H        3.2958550    -0.0945320     0.8276460
  H        0.5217750    -1.8880320     1.7115100
  H        0.6655400     3.1093110     0.6831840
  H        2.9638230    -2.5842494     0.1870971
  H        3.7214290     2.5491860    -0.0588690
  H        4.6397270    -0.4238340    -1.0970870
  H       -3.8083950    -1.5223380     1.7347280
  H       -3.9305460     1.4455410     0.2493860
  H       -2.2297620     1.8928800    -0.0590960
  H       -3.8005210     3.1308820    -1.6026710
  H       -2.7171960     2.0533230    -2.5048750
  H       -4.4009440     1.5743230    -2.2127240
units angstrom
no_reorient  #important for SAPT in psi4, default
symmetry c1  #important for SAPT in psi4, default
}

set PROPERTIES_ORIGIN ["COM"]
properties('MP2/aug-cc-pvtz', properties = ['dipole'])
--------------------------------------------------------------------------

    Molecular point group: c1
  Charge       = 0
  Multiplicity = 1
  Basis Set: AUG-CC-PVTZ
    Blend: AUG-CC-PVTZ
  Basis Set: (AUG-CC-PVTZ AUX)
    Blend: AUG-CC-PVTZ-JKFIT

    Orbital Energies [Eh]
    ---------------------

    Doubly Occupied:

       1A    -80.116935     2A    -20.614755     3A    -20.606955
       4A    -20.598903     5A    -20.584337     6A    -20.579959
       7A    -20.576413     8A    -20.573356     9A    -20.573303
      10A    -20.523452    11A    -11.320580    12A    -11.303240
      13A    -11.299338    14A    -11.298424    15A    -11.298069
      16A    -11.296212    17A    -11.290626    18A    -11.229806
      19A     -7.632386    20A     -5.530892    21A     -5.530519
      22A     -5.529317    23A     -1.460267    24A     -1.409186
      25A     -1.394400    26A     -1.389593    27A     -1.386407
      28A     -1.372629    29A     -1.359635    30A     -1.344120
      31A     -1.303848    32A     -1.117745    33A     -1.040389
      34A     -1.011164    35A     -1.000816    36A     -0.879959
      37A     -0.864791    38A     -0.855049    39A     -0.821349
      40A     -0.808492    41A     -0.750894    42A     -0.744742
      43A     -0.730628    44A     -0.728285    45A     -0.706878
      46A     -0.686784    47A     -0.674008    48A     -0.672441
      49A     -0.661935    50A     -0.651474    51A     -0.642931
      52A     -0.634130    53A     -0.626465    54A     -0.614535
      55A     -0.603202    56A     -0.596875    57A     -0.581313
      58A     -0.575469    59A     -0.571374    60A     -0.559000
      61A     -0.553829    62A     -0.548412    63A     -0.540612
      64A     -0.535173    65A     -0.529514    66A     -0.519780
      67A     -0.511868    68A     -0.502520    69A     -0.496426
      70A     -0.484109    71A     -0.479841    72A     -0.476580
      73A     -0.461957    74A     -0.455186    75A     -0.449769
      76A     -0.434802

  @DF-RHF Final Energy: -1327.84823609730029

   => Energetics <=

    Nuclear Repulsion Energy =           1771.9267557841258167
    One-Electron Energy =               -5356.1072756719613608
    Two-Electron Energy =                2256.3322837905352571
    Total Energy =                      -1327.8482360973002869
  Basis Set: (AUG-CC-PVTZ AUX)
    Blend: AUG-CC-PVTZ-RI
    Molecular point group: c1

    Geometry (in Angstrom), charge = 0, multiplicity = 1:

       Center              X                  Y                   Z               Mass
    ------------   -----------------  -----------------  -----------------  -----------------
         P           -2.290061960276    -0.939913968163     0.344354564606    30.973761998420
         O           -0.982118960276    -0.201432968163     0.937965564606    15.994914619570
         O            1.342284039724    -1.675353968163     1.230527564606    15.994914619570
         O            0.078739039724     2.359733031837     0.461844564606    15.994914619570
         O            3.068549039724    -2.186942968163    -0.808913435394    15.994914619570
         O            2.847369039724     2.503242031837     0.371211564606    15.994914619570
         O            4.195722039724     0.435526031837    -0.973197435394    15.994914619570
         O           -2.826828960276     0.033480031837    -0.807854435394    15.994914619570
         O           -3.259086960276    -0.723152968163     1.621347564606    15.994914619570
         O           -2.118958960276    -2.343514968163    -0.099991435394    15.994914619570
         C            0.118196039724     0.030138031837     0.015995564606    12.000000000000
         C            0.953326039724    -1.244075968163    -0.076048435394    12.000000000000
         C            0.898623039724     1.202773031837     0.564527564606    12.000000000000
         C            2.259694039724    -1.014177968163    -0.818360435394    12.000000000000
         C            2.177109039724     1.396601031837    -0.228364435394    12.000000000000
         C            3.025876039724     0.148834031837    -0.210645435394    12.000000000000
         C           -3.124178960276     1.431727031837    -0.489209435394    12.000000000000
         C           -3.536282960276     2.085294031837    -1.784442435394    12.000000000000
         H           -0.283057960276     0.298930031837    -0.970561435394     1.007825032230
         H            0.370303039724    -2.029234968163    -0.572355435394     1.007825032230
         H            1.157154039724     0.998006031837     1.611832564606     1.007825032230
         H            2.060968039724    -0.788530968163    -1.873079435394     1.007825032230
         H            1.917021039724     1.636416031837    -1.273906435394     1.007825032230
         H            3.295889039724    -0.094402968163     0.827322564606     1.007825032230
         H            0.521809039724    -1.887902968163     1.711186564606     1.007825032230
         H            0.665574039724     3.109440031837     0.682860564606     1.007825032230
         H            2.963857039724    -2.584120368163     0.186773664606     1.007825032230
         H            3.721463039724     2.549315031837    -0.059192435394     1.007825032230
         H            4.639761039724    -0.423704968163    -1.097410435394     1.007825032230
         H           -3.808360960276    -1.522208968163     1.734404564606     1.007825032230
         H           -3.930511960276     1.445670031837     0.249062564606     1.007825032230
         H           -2.229727960276     1.893009031837    -0.059419435394     1.007825032230
         H           -3.800486960276     3.131011031837    -1.602994435394     1.007825032230
         H           -2.717161960276     2.053452031837    -2.505198435394     1.007825032230
         H           -4.400909960276     1.574452031837    -2.213047435394     1.007825032230

  Basis Set: AUG-CC-PVTZ
    Blend: AUG-CC-PVTZ
  Basis Set: (AUG-CC-PVTZ AUX)
    Blend: AUG-CC-PVTZ-JKFIT
	 Reference Energy          =   -1327.8482360973002869 [Eh]
	 Singles Energy            =      -0.0000000000000000 [Eh]
	 Same-Spin Energy          =      -1.0159568689209877 [Eh]
	 Opposite-Spin Energy      =      -3.0794036454218934 [Eh]
	 Correlation Energy        =      -4.0953605143428806 [Eh]
	 Total Energy              =   -1331.9435966116432155 [Eh]

	 ================> DF-SCS-MP2 Energies <==================
	-----------------------------------------------------------
	 SCS Same-Spin Scale       =       0.3333333333333333 [-]
	 SCS Opposite-Spin Scale   =       1.2000000000000000 [-]
	 SCS Same-Spin Energy      =      -0.3386522896403292 [Eh]
	 SCS Opposite-Spin Energy  =      -3.6952843745062718 [Eh]
	 SCS Correlation Energy    =      -4.0339366641466015 [Eh]
	 SCS Total Energy          =   -1331.8821727614467818 [Eh]
	-----------------------------------------------------------

  Dipole Moment: [D]
     X:    -1.1360      Y:     1.8067      Z:     0.8179     Total:     2.2855

*** Psi4 exiting successfully. Buy a developer a beer!
