                               Psi4 1.3.2 release

  ==> Input File <==

--------------------------------------------------------------------------
#psi4
#
memory 32 gb

molecule  {
0 1
  P       -2.2900960    -0.9400430     0.3446780
  O       -0.9821530    -0.2015620     0.9382890
  O        1.3422500    -1.6754830     1.2308510
  O        0.0787050     2.3596040     0.4621680
  O        3.0685150    -2.1870720    -0.8085900
  O        2.8473350     2.5031130     0.3715350
  O        4.1956880     0.4353970    -0.9728740
  O       -2.8268630     0.0333510    -0.8075310
  O       -3.2591210    -0.7232820     1.6216710
  O       -2.1189930    -2.3436440    -0.0996680
  C        0.1181620     0.0300090     0.0163190
  C        0.9532920    -1.2442050    -0.0757250
  C        0.8985890     1.2026440     0.5648510
  C        2.2596600    -1.0143070    -0.8180370
  C        2.3456484     1.4220290    -0.3325869
  C        3.0258420     0.1487050    -0.2103220
  C       -3.1242130     1.4315980    -0.4888860
  C       -3.5363170     2.0851650    -1.7841190
  H       -0.2830920     0.2988010    -0.9702380
  H        0.3702690    -2.0293640    -0.5720320
  H        1.1571200     0.9978770     1.6121560
  H        2.0609340    -0.7886600    -1.8727560
  H        1.9169870     1.6362870    -1.2735830
  H        3.2958550    -0.0945320     0.8276460
  H        0.5217750    -1.8880320     1.7115100
  H        0.6655400     3.1093110     0.6831840
  H        2.9735430    -2.5473740     0.0946540
  H        3.7214290     2.5491860    -0.0588690
  H        4.6397270    -0.4238340    -1.0970870
  H       -3.8083950    -1.5223380     1.7347280
  H       -3.9305460     1.4455410     0.2493860
  H       -2.2297620     1.8928800    -0.0590960
  H       -3.8005210     3.1308820    -1.6026710
  H       -2.7171960     2.0533230    -2.5048750
  H       -4.4009440     1.5743230    -2.2127240
units angstrom
no_reorient  #important for SAPT in psi4, default
symmetry c1  #important for SAPT in psi4, default
}

set PROPERTIES_ORIGIN ["COM"]
properties('MP2/aug-cc-pvtz', properties = ['dipole'])
--------------------------------------------------------------------------

    Molecular point group: c1
  Charge       = 0
  Multiplicity = 1
  Basis Set: AUG-CC-PVTZ
    Blend: AUG-CC-PVTZ
  Basis Set: (AUG-CC-PVTZ AUX)
    Blend: AUG-CC-PVTZ-JKFIT

    Orbital Energies [Eh]
    ---------------------

    Doubly Occupied:

       1A    -80.114666     2A    -20.612935     3A    -20.603328
       4A    -20.597160     5A    -20.588042     6A    -20.581552
       7A    -20.576748     8A    -20.571183     9A    -20.571036
      10A    -20.521598    11A    -11.315365    12A    -11.301861
      13A    -11.301165    14A    -11.297977    15A    -11.297635
      16A    -11.296289    17A    -11.289026    18A    -11.228908
      19A     -7.630138    20A     -5.528646    21A     -5.528259
      22A     -5.527076    23A     -1.457764    24A     -1.416734
      25A     -1.403153    26A     -1.392054    27A     -1.385126
      28A     -1.372989    29A     -1.365364    30A     -1.357514
      31A     -1.301995    32A     -1.108862    33A     -1.039306
      34A     -1.017225    35A     -0.987599    36A     -0.873472
      37A     -0.865406    38A     -0.858527    39A     -0.822171
      40A     -0.809369    41A     -0.753609    42A     -0.746241
      43A     -0.731078    44A     -0.726266    45A     -0.706755
      46A     -0.686372    47A     -0.678268    48A     -0.672683
      49A     -0.664042    50A     -0.658384    51A     -0.643340
      52A     -0.631532    53A     -0.629543    54A     -0.618539
      55A     -0.603199    56A     -0.598502    57A     -0.581081
      58A     -0.574352    59A     -0.571490    60A     -0.567400
      61A     -0.555096    62A     -0.546763    63A     -0.542145
      64A     -0.539622    65A     -0.528365    66A     -0.519569
      67A     -0.510124    68A     -0.503967    69A     -0.492316
      70A     -0.482595    71A     -0.477426    72A     -0.475010
      73A     -0.471860    74A     -0.452021    75A     -0.438430
      76A     -0.411275

  @DF-RHF Final Energy: -1327.82401634483381

   => Energetics <=

    Nuclear Repulsion Energy =           1770.0412353305325723
    One-Electron Energy =               -5352.3215440631329329
    Two-Electron Energy =                2254.4562923877660978
    Total Energy =                      -1327.8240163448340354
  Basis Set: (AUG-CC-PVTZ AUX)
    Blend: AUG-CC-PVTZ-RI
    Molecular point group: c1

    Geometry (in Angstrom), charge = 0, multiplicity = 1:

       Center              X                  Y                   Z               Mass
    ------------   -----------------  -----------------  -----------------  -----------------
         P           -2.297118370982    -0.941107631756     0.349033147201    30.973761998420
         O           -0.989175370982    -0.202626631756     0.942644147201    15.994914619570
         O            1.335227629018    -1.676547631756     1.235206147201    15.994914619570
         O            0.071682629018     2.358539368244     0.466523147201    15.994914619570
         O            3.061492629018    -2.188136631756    -0.804234852799    15.994914619570
         O            2.840312629018     2.502048368244     0.375890147201    15.994914619570
         O            4.188665629018     0.434332368244    -0.968518852799    15.994914619570
         O           -2.833885370982     0.032286368244    -0.803175852799    15.994914619570
         O           -3.266143370982    -0.724346631756     1.626026147201    15.994914619570
         O           -2.126015370982    -2.344708631756    -0.095312852799    15.994914619570
         C            0.111139629018     0.028944368244     0.020674147201    12.000000000000
         C            0.946269629018    -1.245269631756    -0.071369852799    12.000000000000
         C            0.891566629018     1.201579368244     0.569206147201    12.000000000000
         C            2.252637629018    -1.015371631756    -0.813681852799    12.000000000000
         C            2.338626029018     1.420964368244    -0.328231752799    12.000000000000
         C            3.018819629018     0.147640368244    -0.205966852799    12.000000000000
         C           -3.131235370982     1.430533368244    -0.484530852799    12.000000000000
         C           -3.543339370982     2.084100368244    -1.779763852799    12.000000000000
         H           -0.290114370982     0.297736368244    -0.965882852799     1.007825032230
         H            0.363246629018    -2.030428631756    -0.567676852799     1.007825032230
         H            1.150097629018     0.996812368244     1.616511147201     1.007825032230
         H            2.053911629018    -0.789724631756    -1.868400852799     1.007825032230
         H            1.909964629018     1.635222368244    -1.269227852799     1.007825032230
         H            3.288832629018    -0.095596631756     0.832001147201     1.007825032230
         H            0.514752629018    -1.889096631756     1.715865147201     1.007825032230
         H            0.658517629018     3.108246368244     0.687539147201     1.007825032230
         H            2.966520629018    -2.548438631756     0.099009147201     1.007825032230
         H            3.714406629018     2.548121368244    -0.054513852799     1.007825032230
         H            4.632704629018    -0.424898631756    -1.092731852799     1.007825032230
         H           -3.815417370982    -1.523402631756     1.739083147201     1.007825032230
         H           -3.937568370982     1.444476368244     0.253741147201     1.007825032230
         H           -2.236784370982     1.891815368244    -0.054740852799     1.007825032230
         H           -3.807543370982     3.129817368244    -1.598315852799     1.007825032230
         H           -2.724218370982     2.052258368244    -2.500519852799     1.007825032230
         H           -4.407966370982     1.573258368244    -2.208368852799     1.007825032230

  Basis Set: AUG-CC-PVTZ
    Blend: AUG-CC-PVTZ
  Basis Set: (AUG-CC-PVTZ AUX)
    Blend: AUG-CC-PVTZ-JKFIT
	 Reference Energy          =   -1327.8240163448338080 [Eh]
	 Singles Energy            =      -0.0000000000000000 [Eh]
	 Same-Spin Energy          =      -1.0164128089064233 [Eh]
	 Opposite-Spin Energy      =      -3.0798158684174419 [Eh]
	 Correlation Energy        =      -4.0962286773238654 [Eh]
	 Total Energy              =   -1331.9202450221575873 [Eh]

	 ================> DF-SCS-MP2 Energies <==================
	-----------------------------------------------------------
	 SCS Same-Spin Scale       =       0.3333333333333333 [-]
	 SCS Opposite-Spin Scale   =       1.2000000000000000 [-]
	 SCS Same-Spin Energy      =      -0.3388042696354744 [Eh]
	 SCS Opposite-Spin Energy  =      -3.6957790421009302 [Eh]
	 SCS Correlation Energy    =      -4.0345833117364043 [Eh]
	 SCS Total Energy          =   -1331.8585996565702771 [Eh]
	-----------------------------------------------------------

  Dipole Moment: [D]
     X:    -0.8587      Y:     2.0605      Z:     0.7029     Total:     2.3404

*** Psi4 exiting successfully. Buy a developer a beer!
