                               Psi4 1.3.2 release

  ==> Input File <==

--------------------------------------------------------------------------
#psi4
#
memory 32 gb

molecule  {
0 1
  P       -2.2900960    -0.9400430     0.3446780
  O       -0.9821530    -0.2015620     0.9382890
  O        1.3422500    -1.6754830     1.2308510
  O        0.0787050     2.3596040     0.4621680
  O        3.0685150    -2.1870720    -0.8085900
  O        2.9017971     2.4949148     0.3211360
  O        4.1956880     0.4353970    -0.9728740
  O       -2.8268630     0.0333510    -0.8075310
  O       -3.2591210    -0.7232820     1.6216710
  O       -2.1189930    -2.3436440    -0.0996680
  C        0.1181620     0.0300090     0.0163190
  C        0.9532920    -1.2442050    -0.0757250
  C        0.8807048     1.1417289     0.5171460
  C        2.2596600    -1.0143070    -0.8180370
  C        2.1770750     1.3964720    -0.2280410
  C        3.0258420     0.1487050    -0.2103220
  C       -3.1242130     1.4315980    -0.4888860
  C       -3.5363170     2.0851650    -1.7841190
  H       -0.2830920     0.2988010    -0.9702380
  H        0.3702690    -2.0293640    -0.5720320
  H        1.1571200     0.9978770     1.6121560
  H        2.0609340    -0.7886600    -1.8727560
  H        1.9169870     1.6362870    -1.2735830
  H        3.2958550    -0.0945320     0.8276460
  H        0.5217750    -1.8880320     1.7115100
  H        0.6655400     3.1093110     0.6831840
  H        2.9735430    -2.5473740     0.0946540
  H        3.7214290     2.5491860    -0.0588690
  H        4.6397270    -0.4238340    -1.0970870
  H       -3.8083950    -1.5223380     1.7347280
  H       -3.9305460     1.4455410     0.2493860
  H       -2.2297620     1.8928800    -0.0590960
  H       -3.8005210     3.1308820    -1.6026710
  H       -2.7171960     2.0533230    -2.5048750
  H       -4.4009440     1.5743230    -2.2127240
units angstrom
no_reorient  #important for SAPT in psi4, default
symmetry c1  #important for SAPT in psi4, default
}

set PROPERTIES_ORIGIN ["COM"]
properties('MP2/aug-cc-pvtz', properties = ['dipole'])
--------------------------------------------------------------------------

    Molecular point group: c1
  Charge       = 0
  Multiplicity = 1
  Basis Set: AUG-CC-PVTZ
    Blend: AUG-CC-PVTZ
  Basis Set: (AUG-CC-PVTZ AUX)
    Blend: AUG-CC-PVTZ-JKFIT

    Orbital Energies [Eh]
    ---------------------

    Doubly Occupied:

       1A    -80.118618     2A    -20.615932     3A    -20.609965
       4A    -20.599913     5A    -20.584723     6A    -20.575142
       7A    -20.572946     8A    -20.569575     9A    -20.569326
      10A    -20.524806    11A    -11.322219    12A    -11.306107
      13A    -11.303268    14A    -11.300678    15A    -11.300010
      16A    -11.299652    17A    -11.290871    18A    -11.230067
      19A     -7.634049    20A     -5.532553    21A     -5.532194
      22A     -5.530976    23A     -1.462380    24A     -1.412778
      25A     -1.400205    26A     -1.393141    27A     -1.387740
      28A     -1.372540    29A     -1.359830    30A     -1.353991
      31A     -1.305203    32A     -1.130791    33A     -1.040970
      34A     -1.021375    35A     -1.007949    36A     -0.883912
      37A     -0.867021    38A     -0.859522    39A     -0.826505
      40A     -0.811061    41A     -0.752475    42A     -0.747153
      43A     -0.733492    44A     -0.730731    45A     -0.716542
      46A     -0.684491    47A     -0.679779    48A     -0.675071
      49A     -0.664548    50A     -0.660015    51A     -0.648282
      52A     -0.636503    53A     -0.628153    54A     -0.615868
      55A     -0.603304    56A     -0.597865    57A     -0.584495
      58A     -0.576266    59A     -0.571712    60A     -0.557891
      61A     -0.556483    62A     -0.549243    63A     -0.541508
      64A     -0.537892    65A     -0.530322    66A     -0.524113
      67A     -0.512435    68A     -0.504146    69A     -0.499697
      70A     -0.485671    71A     -0.481250    72A     -0.477828
      73A     -0.463108    74A     -0.455196    75A     -0.448441
      76A     -0.437148

  @DF-RHF Final Energy: -1327.85116351479746

   => Energetics <=

    Nuclear Repulsion Energy =           1773.5050862963400959
    One-Electron Energy =               -5358.9332524198671308
    Two-Electron Energy =                2257.5770026087297992
    Total Energy =                      -1327.8511635147974630
  Basis Set: (AUG-CC-PVTZ AUX)
    Blend: AUG-CC-PVTZ-RI
    Molecular point group: c1

    Geometry (in Angstrom), charge = 0, multiplicity = 1:

       Center              X                  Y                   Z               Mass
    ------------   -----------------  -----------------  -----------------  -----------------
         P           -2.292375019852    -0.937050176456     0.349463739658    30.973761998420
         O           -0.984432019852    -0.198569176456     0.943074739658    15.994914619570
         O            1.339970980148    -1.672490176456     1.235636739658    15.994914619570
         O            0.076425980148     2.362596823544     0.466953739658    15.994914619570
         O            3.066235980148    -2.184079176456    -0.803804260342    15.994914619570
         O            2.899518080148     2.497907623544     0.325921739658    15.994914619570
         O            4.193408980148     0.438389823544    -0.968088260342    15.994914619570
         O           -2.829142019852     0.036343823544    -0.802745260342    15.994914619570
         O           -3.261400019852    -0.720289176456     1.626456739658    15.994914619570
         O           -2.121272019852    -2.340651176456    -0.094882260342    15.994914619570
         C            0.115882980148     0.033001823544     0.021104739658    12.000000000000
         C            0.951012980148    -1.241212176456    -0.070939260342    12.000000000000
         C            0.878425780148     1.144721723544     0.521931739658    12.000000000000
         C            2.257380980148    -1.011314176456    -0.813251260342    12.000000000000
         C            2.174795980148     1.399464823544    -0.223255260342    12.000000000000
         C            3.023562980148     0.151697823544    -0.205536260342    12.000000000000
         C           -3.126492019852     1.434590823544    -0.484100260342    12.000000000000
         C           -3.538596019852     2.088157823544    -1.779333260342    12.000000000000
         H           -0.285371019852     0.301793823544    -0.965452260342     1.007825032230
         H            0.367989980148    -2.026371176456    -0.567246260342     1.007825032230
         H            1.154840980148     1.000869823544     1.616941739658     1.007825032230
         H            2.058654980148    -0.785667176456    -1.867970260342     1.007825032230
         H            1.914707980148     1.639279823544    -1.268797260342     1.007825032230
         H            3.293575980148    -0.091539176456     0.832431739658     1.007825032230
         H            0.519495980148    -1.885039176456     1.716295739658     1.007825032230
         H            0.663260980148     3.112303823544     0.687969739658     1.007825032230
         H            2.971263980148    -2.544381176456     0.099439739658     1.007825032230
         H            3.719149980148     2.552178823544    -0.054083260342     1.007825032230
         H            4.637447980148    -0.420841176456    -1.092301260342     1.007825032230
         H           -3.810674019852    -1.519345176456     1.739513739658     1.007825032230
         H           -3.932825019852     1.448533823544     0.254171739658     1.007825032230
         H           -2.232041019852     1.895872823544    -0.054310260342     1.007825032230
         H           -3.802800019852     3.133874823544    -1.597885260342     1.007825032230
         H           -2.719475019852     2.056315823544    -2.500089260342     1.007825032230
         H           -4.403223019852     1.577315823544    -2.207938260342     1.007825032230

  Basis Set: AUG-CC-PVTZ
    Blend: AUG-CC-PVTZ
  Basis Set: (AUG-CC-PVTZ AUX)
    Blend: AUG-CC-PVTZ-JKFIT
	 Reference Energy          =   -1327.8511635147974630 [Eh]
	 Singles Energy            =      -0.0000000000000000 [Eh]
	 Same-Spin Energy          =      -1.0142931411858189 [Eh]
	 Opposite-Spin Energy      =      -3.0749190376265885 [Eh]
	 Correlation Energy        =      -4.0892121788124074 [Eh]
	 Total Energy              =   -1331.9403756936098944 [Eh]

	 ================> DF-SCS-MP2 Energies <==================
	-----------------------------------------------------------
	 SCS Same-Spin Scale       =       0.3333333333333333 [-]
	 SCS Opposite-Spin Scale   =       1.2000000000000000 [-]
	 SCS Same-Spin Energy      =      -0.3380977137286063 [Eh]
	 SCS Opposite-Spin Energy  =      -3.6899028451519058 [Eh]
	 SCS Correlation Energy    =      -4.0280005588805121 [Eh]
	 SCS Total Energy          =   -1331.8791640736778845 [Eh]
	-----------------------------------------------------------

  Dipole Moment: [D]
     X:    -1.2192      Y:     1.6891      Z:     0.7500     Total:     2.2141

*** Psi4 exiting successfully. Buy a developer a beer!
