                               Psi4 1.3.2 release

  ==> Input File <==

--------------------------------------------------------------------------
#psi4
#
memory 32 gb

molecule  {
0 1
  P       -2.2900960    -0.9400430     0.3446780
  O       -0.9821530    -0.2015620     0.9382890
  O        1.3422500    -1.6754830     1.2308510
  O        0.0787050     2.3596040     0.4621680
  O        3.0685150    -2.1870720    -0.8085900
  O        2.8473350     2.5031130     0.3715350
  O        4.1956880     0.4353970    -0.9728740
  O       -2.8268630     0.0333510    -0.8075310
  O       -3.2591210    -0.7232820     1.6216710
  O       -2.1189930    -2.3436440    -0.0996680
  C        0.0782951     0.0045355    -0.0081740
  C        0.9532920    -1.2442050    -0.0757250
  C        0.8985890     1.2026440     0.5648510
  C        2.2596600    -1.0143070    -0.8180370
  C        2.1770750     1.3964720    -0.2280410
  C        3.0258420     0.1487050    -0.2103220
  C       -3.1242130     1.4315980    -0.4888860
  C       -3.5363170     2.0851650    -1.7841190
  H       -0.2830920     0.2988010    -0.9702380
  H        0.3411927    -2.0046981    -0.5754206
  H        1.1571200     0.9978770     1.6121560
  H        2.0609340    -0.7886600    -1.8727560
  H        1.9169870     1.6362870    -1.2735830
  H        3.2958550    -0.0945320     0.8276460
  H        0.5217750    -1.8880320     1.7115100
  H        0.6655400     3.1093110     0.6831840
  H        2.9735430    -2.5473740     0.0946540
  H        3.7214290     2.5491860    -0.0588690
  H        4.6397270    -0.4238340    -1.0970870
  H       -3.8083950    -1.5223380     1.7347280
  H       -3.9305460     1.4455410     0.2493860
  H       -2.2297620     1.8928800    -0.0590960
  H       -3.8005210     3.1308820    -1.6026710
  H       -2.7171960     2.0533230    -2.5048750
  H       -4.4009440     1.5743230    -2.2127240
units angstrom
no_reorient  #important for SAPT in psi4, default
symmetry c1  #important for SAPT in psi4, default
}

set PROPERTIES_ORIGIN ["COM"]
properties('MP2/aug-cc-pvtz', properties = ['dipole'])
--------------------------------------------------------------------------

    Molecular point group: c1
  Charge       = 0
  Multiplicity = 1
  Basis Set: AUG-CC-PVTZ
    Blend: AUG-CC-PVTZ
  Basis Set: (AUG-CC-PVTZ AUX)
    Blend: AUG-CC-PVTZ-JKFIT

    Orbital Energies [Eh]
    ---------------------

    Doubly Occupied:

       1A    -80.118265     2A    -20.615795     3A    -20.611170
       4A    -20.600289     5A    -20.584017     6A    -20.575677
       7A    -20.574105     8A    -20.573369     9A    -20.571801
      10A    -20.525080    11A    -11.318405    12A    -11.302287
      13A    -11.300276    14A    -11.299299    15A    -11.298442
      16A    -11.294950    17A    -11.290570    18A    -11.230504
      19A     -7.633884    20A     -5.532416    21A     -5.531966
      22A     -5.530782    23A     -1.464330    24A     -1.411320
      25A     -1.396527    26A     -1.392288    27A     -1.388130
      28A     -1.373412    29A     -1.362930    30A     -1.353098
      31A     -1.305564    32A     -1.114068    33A     -1.041283
      34A     -1.011465    35A     -0.998885    36A     -0.880826
      37A     -0.865817    38A     -0.857290    39A     -0.823519
      40A     -0.811684    41A     -0.751557    42A     -0.746661
      43A     -0.731854    44A     -0.730543    45A     -0.706973
      46A     -0.687107    47A     -0.677840    48A     -0.674982
      49A     -0.662479    50A     -0.660613    51A     -0.643190
      52A     -0.634895    53A     -0.628481    54A     -0.615653
      55A     -0.604897    56A     -0.596890    57A     -0.579836
      58A     -0.576914    59A     -0.572815    60A     -0.560109
      61A     -0.555951    62A     -0.549841    63A     -0.542198
      64A     -0.535380    65A     -0.533174    66A     -0.519129
      67A     -0.513555    68A     -0.504631    69A     -0.496426
      70A     -0.485904    71A     -0.480584    72A     -0.477884
      73A     -0.460037    74A     -0.454850    75A     -0.446587
      76A     -0.433793

  @DF-RHF Final Energy: -1327.85842214030799

   => Energetics <=

    Nuclear Repulsion Energy =           1772.4207102871637289
    One-Electron Energy =               -5356.9582786050414143
    Two-Electron Energy =                2256.6791461775696916
    Total Energy =                      -1327.8584221403079937
  Basis Set: (AUG-CC-PVTZ AUX)
    Blend: AUG-CC-PVTZ-RI
    Molecular point group: c1

    Geometry (in Angstrom), charge = 0, multiplicity = 1:

       Center              X                  Y                   Z               Mass
    ------------   -----------------  -----------------  -----------------  -----------------
         P           -2.288333470371    -0.939068108706     0.345710171788    30.973761998420
         O           -0.980390470371    -0.200587108706     0.939321171788    15.994914619570
         O            1.344012529629    -1.674508108706     1.231883171788    15.994914619570
         O            0.080467529629     2.360578891294     0.463200171788    15.994914619570
         O            3.070277529629    -2.186097108706    -0.807557828212    15.994914619570
         O            2.849097529629     2.504087891294     0.372567171788    15.994914619570
         O            4.197450529629     0.436371891294    -0.971841828212    15.994914619570
         O           -2.825100470371     0.034325891294    -0.806498828212    15.994914619570
         O           -3.257358470371    -0.722307108706     1.622703171788    15.994914619570
         O           -2.117230470371    -2.342669108706    -0.098635828212    15.994914619570
         C            0.080057629629     0.005510391294    -0.007141828212    12.000000000000
         C            0.955054529629    -1.243230108706    -0.074692828212    12.000000000000
         C            0.900351529629     1.203618891294     0.565883171788    12.000000000000
         C            2.261422529629    -1.013332108706    -0.817004828212    12.000000000000
         C            2.178837529629     1.397446891294    -0.227008828212    12.000000000000
         C            3.027604529629     0.149679891294    -0.209289828212    12.000000000000
         C           -3.122450470371     1.432572891294    -0.487853828212    12.000000000000
         C           -3.534554470371     2.086139891294    -1.783086828212    12.000000000000
         H           -0.281329470371     0.299775891294    -0.969205828212     1.007825032230
         H            0.342955229629    -2.003723208706    -0.574388428212     1.007825032230
         H            1.158882529629     0.998851891294     1.613188171788     1.007825032230
         H            2.062696529629    -0.787685108706    -1.871723828212     1.007825032230
         H            1.918749529629     1.637261891294    -1.272550828212     1.007825032230
         H            3.297617529629    -0.093557108706     0.828678171788     1.007825032230
         H            0.523537529629    -1.887057108706     1.712542171788     1.007825032230
         H            0.667302529629     3.110285891294     0.684216171788     1.007825032230
         H            2.975305529629    -2.546399108706     0.095686171788     1.007825032230
         H            3.723191529629     2.550160891294    -0.057836828212     1.007825032230
         H            4.641489529629    -0.422859108706    -1.096054828212     1.007825032230
         H           -3.806632470371    -1.521363108706     1.735760171788     1.007825032230
         H           -3.928783470371     1.446515891294     0.250418171788     1.007825032230
         H           -2.227999470371     1.893854891294    -0.058063828212     1.007825032230
         H           -3.798758470371     3.131856891294    -1.601638828212     1.007825032230
         H           -2.715433470371     2.054297891294    -2.503842828212     1.007825032230
         H           -4.399181470371     1.575297891294    -2.211691828212     1.007825032230

  Basis Set: AUG-CC-PVTZ
    Blend: AUG-CC-PVTZ
  Basis Set: (AUG-CC-PVTZ AUX)
    Blend: AUG-CC-PVTZ-JKFIT
	 Reference Energy          =   -1327.8584221403079937 [Eh]
	 Singles Energy            =      -0.0000000000000000 [Eh]
	 Same-Spin Energy          =      -1.0145705057434311 [Eh]
	 Opposite-Spin Energy      =      -3.0762140973287568 [Eh]
	 Correlation Energy        =      -4.0907846030721879 [Eh]
	 Total Energy              =   -1331.9492067433802731 [Eh]

	 ================> DF-SCS-MP2 Energies <==================
	-----------------------------------------------------------
	 SCS Same-Spin Scale       =       0.3333333333333333 [-]
	 SCS Opposite-Spin Scale   =       1.2000000000000000 [-]
	 SCS Same-Spin Energy      =      -0.3381901685811437 [Eh]
	 SCS Opposite-Spin Energy  =      -3.6914569167945079 [Eh]
	 SCS Correlation Energy    =      -4.0296470853756521 [Eh]
	 SCS Total Energy          =   -1331.8880692256836937 [Eh]
	-----------------------------------------------------------

  Dipole Moment: [D]
     X:    -1.2742      Y:     1.8232      Z:     0.7305     Total:     2.3412

*** Psi4 exiting successfully. Buy a developer a beer!
