                               Psi4 1.3.2 release

  ==> Input File <==

--------------------------------------------------------------------------
#psi4
#
memory 32 gb

molecule  {
0 1
  P       -2.2900960    -0.9400430     0.3446780
  O       -0.9821530    -0.2015620     0.9382890
  O        1.3422500    -1.6754830     1.2308510
  O        0.0791334     2.3609352     0.4744958
  O        3.0685150    -2.1870720    -0.8085900
  O        2.8473350     2.5031130     0.3715350
  O        4.1956880     0.4353970    -0.9728740
  O       -2.8268630     0.0333510    -0.8075310
  O       -3.2591210    -0.7232820     1.6216710
  O       -2.1189930    -2.3436440    -0.0996680
  C        0.1181620     0.0300090     0.0163190
  C        0.9532920    -1.2442050    -0.0757250
  C        0.8985890     1.2026440     0.5648510
  C        2.2596600    -1.0143070    -0.8180370
  C        2.1770750     1.3964720    -0.2280410
  C        3.0258420     0.1487050    -0.2103220
  C       -3.1242130     1.4315980    -0.4888860
  C       -3.5363170     2.0851650    -1.7841190
  H       -0.2830920     0.2988010    -0.9702380
  H        0.3702690    -2.0293640    -0.5720320
  H        1.1520568     1.0055486     1.6148620
  H        2.0609340    -0.7886600    -1.8727560
  H        1.9169870     1.6362870    -1.2735830
  H        3.2958550    -0.0945320     0.8276460
  H        0.5217750    -1.8880320     1.7115100
  H        0.6655400     3.1093110     0.6831840
  H        2.9735430    -2.5473740     0.0946540
  H        3.7214290     2.5491860    -0.0588690
  H        4.6397270    -0.4238340    -1.0970870
  H       -3.8083950    -1.5223380     1.7347280
  H       -3.9305460     1.4455410     0.2493860
  H       -2.2297620     1.8928800    -0.0590960
  H       -3.8005210     3.1308820    -1.6026710
  H       -2.7171960     2.0533230    -2.5048750
  H       -4.4009440     1.5743230    -2.2127240
units angstrom
no_reorient  #important for SAPT in psi4, default
symmetry c1  #important for SAPT in psi4, default
}

set PROPERTIES_ORIGIN ["COM"]
properties('MP2/aug-cc-pvtz', properties = ['dipole'])
--------------------------------------------------------------------------

    Molecular point group: c1
  Charge       = 0
  Multiplicity = 1
  Basis Set: AUG-CC-PVTZ
    Blend: AUG-CC-PVTZ
  Basis Set: (AUG-CC-PVTZ AUX)
    Blend: AUG-CC-PVTZ-JKFIT

    Orbital Energies [Eh]
    ---------------------

    Doubly Occupied:

       1A    -80.116981     2A    -20.614752     3A    -20.607084
       4A    -20.598993     5A    -20.583149     6A    -20.576884
       7A    -20.574700     8A    -20.574215     9A    -20.572622
      10A    -20.523476    11A    -11.321004    12A    -11.303683
      13A    -11.299471    14A    -11.299445    15A    -11.298612
      16A    -11.297001    17A    -11.291608    18A    -11.229924
      19A     -7.632432    20A     -5.530938    21A     -5.530565
      22A     -5.529363    23A     -1.460328    24A     -1.410898
      25A     -1.394787    26A     -1.393134    27A     -1.386906
      28A     -1.372884    29A     -1.364146    30A     -1.353988
      31A     -1.303875    32A     -1.119222    33A     -1.040519
      34A     -1.012174    35A     -1.003600    36A     -0.880340
      37A     -0.864983    38A     -0.859368    39A     -0.822369
      40A     -0.810752    41A     -0.751726    42A     -0.745439
      43A     -0.731857    44A     -0.728647    45A     -0.707978
      46A     -0.687107    47A     -0.678208    48A     -0.673760
      49A     -0.662343    50A     -0.661124    51A     -0.643224
      52A     -0.635588    53A     -0.627348    54A     -0.615488
      55A     -0.603530    56A     -0.598588    57A     -0.581794
      58A     -0.575594    59A     -0.571132    60A     -0.559407
      61A     -0.556764    62A     -0.548518    63A     -0.541253
      64A     -0.536682    65A     -0.530018    66A     -0.521622
      67A     -0.513132    68A     -0.504224    69A     -0.497111
      70A     -0.484662    71A     -0.479920    72A     -0.476663
      73A     -0.462464    74A     -0.456136    75A     -0.450040
      76A     -0.436403

  @DF-RHF Final Energy: -1327.86177366441916

   => Energetics <=

    Nuclear Repulsion Energy =           1772.3429299802219248
    One-Electron Energy =               -5356.8160631235559777
    Two-Electron Energy =                2256.6113594789148920
    Total Energy =                      -1327.8617736644191609
  Basis Set: (AUG-CC-PVTZ AUX)
    Blend: AUG-CC-PVTZ-RI
    Molecular point group: c1

    Geometry (in Angstrom), charge = 0, multiplicity = 1:

       Center              X                  Y                   Z               Mass
    ------------   -----------------  -----------------  -----------------  -----------------
         P           -2.290102040191    -0.940143738967     0.343984008350    30.973761998420
         O           -0.982159040191    -0.201662738967     0.937595008350    15.994914619570
         O            1.342243959809    -1.675583738967     1.230157008350    15.994914619570
         O            0.079127359809     2.360834461033     0.473801808350    15.994914619570
         O            3.068508959809    -2.187172738967    -0.809283991650    15.994914619570
         O            2.847328959809     2.503012261033     0.370841008350    15.994914619570
         O            4.195681959809     0.435296261033    -0.973567991650    15.994914619570
         O           -2.826869040191     0.033250261033    -0.808224991650    15.994914619570
         O           -3.259127040191    -0.723382738967     1.620977008350    15.994914619570
         O           -2.118999040191    -2.343744738967    -0.100361991650    15.994914619570
         C            0.118155959809     0.029908261033     0.015625008350    12.000000000000
         C            0.953285959809    -1.244305738967    -0.076418991650    12.000000000000
         C            0.898582959809     1.202543261033     0.564157008350    12.000000000000
         C            2.259653959809    -1.014407738967    -0.818730991650    12.000000000000
         C            2.177068959809     1.396371261033    -0.228734991650    12.000000000000
         C            3.025835959809     0.148604261033    -0.211015991650    12.000000000000
         C           -3.124219040191     1.431497261033    -0.489579991650    12.000000000000
         C           -3.536323040191     2.085064261033    -1.784812991650    12.000000000000
         H           -0.283098040191     0.298700261033    -0.970931991650     1.007825032230
         H            0.370262959809    -2.029464738967    -0.572725991650     1.007825032230
         H            1.152050759809     1.005447861033     1.614168008350     1.007825032230
         H            2.060927959809    -0.788760738967    -1.873449991650     1.007825032230
         H            1.916980959809     1.636186261033    -1.274276991650     1.007825032230
         H            3.295848959809    -0.094632738967     0.826952008350     1.007825032230
         H            0.521768959809    -1.888132738967     1.710816008350     1.007825032230
         H            0.665533959809     3.109210261033     0.682490008350     1.007825032230
         H            2.973536959809    -2.547474738967     0.093960008350     1.007825032230
         H            3.721422959809     2.549085261033    -0.059562991650     1.007825032230
         H            4.639720959809    -0.423934738967    -1.097780991650     1.007825032230
         H           -3.808401040191    -1.522438738967     1.734034008350     1.007825032230
         H           -3.930552040191     1.445440261033     0.248692008350     1.007825032230
         H           -2.229768040191     1.892779261033    -0.059789991650     1.007825032230
         H           -3.800527040191     3.130781261033    -1.603364991650     1.007825032230
         H           -2.717202040191     2.053222261033    -2.505568991650     1.007825032230
         H           -4.400950040191     1.574222261033    -2.213417991650     1.007825032230

  Basis Set: AUG-CC-PVTZ
    Blend: AUG-CC-PVTZ
  Basis Set: (AUG-CC-PVTZ AUX)
    Blend: AUG-CC-PVTZ-JKFIT
	 Reference Energy          =   -1327.8617736644191609 [Eh]
	 Singles Energy            =      -0.0000000000000000 [Eh]
	 Same-Spin Energy          =      -1.0145118573025049 [Eh]
	 Opposite-Spin Energy      =      -3.0759027571081035 [Eh]
	 Correlation Energy        =      -4.0904146144106086 [Eh]
	 Total Energy              =   -1331.9521882788296807 [Eh]

	 ================> DF-SCS-MP2 Energies <==================
	-----------------------------------------------------------
	 SCS Same-Spin Scale       =       0.3333333333333333 [-]
	 SCS Opposite-Spin Scale   =       1.2000000000000000 [-]
	 SCS Same-Spin Energy      =      -0.3381706191008350 [Eh]
	 SCS Opposite-Spin Energy  =      -3.6910833085297239 [Eh]
	 SCS Correlation Energy    =      -4.0292539276305588 [Eh]
	 SCS Total Energy          =   -1331.8910275920497952 [Eh]
	-----------------------------------------------------------

  Dipole Moment: [D]
     X:    -1.1095      Y:     1.8557      Z:     0.6981     Total:     2.2720

*** Psi4 exiting successfully. Buy a developer a beer!
