                               Psi4 1.3.2 release

  ==> Input File <==

--------------------------------------------------------------------------
#psi4
#
memory 32 gb

molecule  {
0 1
  P       -2.2900960    -0.9400430     0.3446780
  O       -1.0146520    -0.1911008     0.9007339
  O        1.3422500    -1.6754830     1.2308510
  O        0.0787050     2.3596040     0.4621680
  O        3.0685150    -2.1870720    -0.8085900
  O        2.8473350     2.5031130     0.3715350
  O        4.1956880     0.4353970    -0.9728740
  O       -2.8268630     0.0333510    -0.8075310
  O       -3.2591210    -0.7232820     1.6216710
  O       -2.1189930    -2.3436440    -0.0996680
  C        0.1181620     0.0300090     0.0163190
  C        0.9532920    -1.2442050    -0.0757250
  C        0.8985890     1.2026440     0.5648510
  C        2.2596600    -1.0143070    -0.8180370
  C        2.1770750     1.3964720    -0.2280410
  C        3.0258420     0.1487050    -0.2103220
  C       -3.1242130     1.4315980    -0.4888860
  C       -3.5363170     2.0851650    -1.7841190
  H       -0.3185295     0.2954670    -0.9559881
  H        0.3702690    -2.0293640    -0.5720320
  H        1.1571200     0.9978770     1.6121560
  H        2.0609340    -0.7886600    -1.8727560
  H        1.9169870     1.6362870    -1.2735830
  H        3.2958550    -0.0945320     0.8276460
  H        0.5217750    -1.8880320     1.7115100
  H        0.6655400     3.1093110     0.6831840
  H        2.9735430    -2.5473740     0.0946540
  H        3.7214290     2.5491860    -0.0588690
  H        4.6397270    -0.4238340    -1.0970870
  H       -3.8083950    -1.5223380     1.7347280
  H       -3.9305460     1.4455410     0.2493860
  H       -2.2297620     1.8928800    -0.0590960
  H       -3.8005210     3.1308820    -1.6026710
  H       -2.7171960     2.0533230    -2.5048750
  H       -4.4009440     1.5743230    -2.2127240
units angstrom
no_reorient  #important for SAPT in psi4, default
symmetry c1  #important for SAPT in psi4, default
}

set PROPERTIES_ORIGIN ["COM"]
properties('MP2/aug-cc-pvtz', properties = ['dipole'])
--------------------------------------------------------------------------

    Molecular point group: c1
  Charge       = 0
  Multiplicity = 1
  Basis Set: AUG-CC-PVTZ
    Blend: AUG-CC-PVTZ
  Basis Set: (AUG-CC-PVTZ AUX)
    Blend: AUG-CC-PVTZ-JKFIT

    Orbital Energies [Eh]
    ---------------------

    Doubly Occupied:

       1A    -80.112415     2A    -20.612988     3A    -20.605443
       4A    -20.594268     5A    -20.585400     6A    -20.577883
       7A    -20.575861     8A    -20.575065     9A    -20.574395
      10A    -20.521254    11A    -11.323364    12A    -11.305696
      13A    -11.300781    14A    -11.300718    15A    -11.298147
      16A    -11.297423    17A    -11.292620    18A    -11.228486
      19A     -7.628531    20A     -5.527038    21A     -5.526764
      22A     -5.525441    23A     -1.464719    24A     -1.411569
      25A     -1.396100    26A     -1.394619    27A     -1.384173
      28A     -1.374935    29A     -1.365220    30A     -1.355137
      31A     -1.301998    32A     -1.121084    33A     -1.038798
      34A     -1.014993    35A     -1.004979    36A     -0.883399
      37A     -0.863815    38A     -0.860559    39A     -0.821293
      40A     -0.811005    41A     -0.753182    42A     -0.747164
      43A     -0.732974    44A     -0.728558    45A     -0.709879
      46A     -0.688141    47A     -0.679156    48A     -0.673305
      49A     -0.663025    50A     -0.660927    51A     -0.645078
      52A     -0.636411    53A     -0.628273    54A     -0.615087
      55A     -0.604400    56A     -0.599631    57A     -0.581821
      58A     -0.574945    59A     -0.572148    60A     -0.559773
      61A     -0.557232    62A     -0.548007    63A     -0.540078
      64A     -0.537531    65A     -0.528495    66A     -0.523063
      67A     -0.512864    68A     -0.504840    69A     -0.496448
      70A     -0.485791    71A     -0.477978    72A     -0.475066
      73A     -0.463724    74A     -0.456959    75A     -0.451376
      76A     -0.437496

  @DF-RHF Final Energy: -1327.86272072683028

   => Energetics <=

    Nuclear Repulsion Energy =           1773.6282902105217545
    One-Electron Energy =               -5359.3636204642143639
    Two-Electron Energy =                2257.8726095268625613
    Total Energy =                      -1327.8627207268300481
  Basis Set: (AUG-CC-PVTZ AUX)
    Blend: AUG-CC-PVTZ-RI
    Molecular point group: c1

    Geometry (in Angstrom), charge = 0, multiplicity = 1:

       Center              X                  Y                   Z               Mass
    ------------   -----------------  -----------------  -----------------  -----------------
         P           -2.288167439899    -0.940612187811     0.346713424838    30.973761998420
         O           -1.012723439899    -0.191669987811     0.902769324838    15.994914619570
         O            1.344178560101    -1.676052187811     1.232886424838    15.994914619570
         O            0.080633560101     2.359034812189     0.464203424838    15.994914619570
         O            3.070443560101    -2.187641187811    -0.806554575162    15.994914619570
         O            2.849263560101     2.502543812189     0.373570424838    15.994914619570
         O            4.197616560101     0.434827812189    -0.970838575162    15.994914619570
         O           -2.824934439899     0.032781812189    -0.805495575162    15.994914619570
         O           -3.257192439899    -0.723851187811     1.623706424838    15.994914619570
         O           -2.117064439899    -2.344213187811    -0.097632575162    15.994914619570
         C            0.120090560101     0.029439812189     0.018354424838    12.000000000000
         C            0.955220560101    -1.244774187811    -0.073689575162    12.000000000000
         C            0.900517560101     1.202074812189     0.566886424838    12.000000000000
         C            2.261588560101    -1.014876187811    -0.816001575162    12.000000000000
         C            2.179003560101     1.395902812189    -0.226005575162    12.000000000000
         C            3.027770560101     0.148135812189    -0.208286575162    12.000000000000
         C           -3.122284439899     1.431028812189    -0.486850575162    12.000000000000
         C           -3.534388439899     2.084595812189    -1.782083575162    12.000000000000
         H           -0.316600939899     0.294897812189    -0.953952675162     1.007825032230
         H            0.372197560101    -2.029933187811    -0.569996575162     1.007825032230
         H            1.159048560101     0.997307812189     1.614191424838     1.007825032230
         H            2.062862560101    -0.789229187811    -1.870720575162     1.007825032230
         H            1.918915560101     1.635717812189    -1.271547575162     1.007825032230
         H            3.297783560101    -0.095101187811     0.829681424838     1.007825032230
         H            0.523703560101    -1.888601187811     1.713545424838     1.007825032230
         H            0.667468560101     3.108741812189     0.685219424838     1.007825032230
         H            2.975471560101    -2.547943187811     0.096689424838     1.007825032230
         H            3.723357560101     2.548616812189    -0.056833575162     1.007825032230
         H            4.641655560101    -0.424403187811    -1.095051575162     1.007825032230
         H           -3.806466439899    -1.522907187811     1.736763424838     1.007825032230
         H           -3.928617439899     1.444971812189     0.251421424838     1.007825032230
         H           -2.227833439899     1.892310812189    -0.057060575162     1.007825032230
         H           -3.798592439899     3.130312812189    -1.600635575162     1.007825032230
         H           -2.715267439899     2.052753812189    -2.502839575162     1.007825032230
         H           -4.399015439899     1.573753812189    -2.210688575162     1.007825032230

  Basis Set: AUG-CC-PVTZ
    Blend: AUG-CC-PVTZ
  Basis Set: (AUG-CC-PVTZ AUX)
    Blend: AUG-CC-PVTZ-JKFIT
	 Reference Energy          =   -1327.8627207268302755 [Eh]
	 Singles Energy            =      -0.0000000000000000 [Eh]
	 Same-Spin Energy          =      -1.0140336040494002 [Eh]
	 Opposite-Spin Energy      =      -3.0746211995034427 [Eh]
	 Correlation Energy        =      -4.0886548035528429 [Eh]
	 Total Energy              =   -1331.9513755303830749 [Eh]

	 ================> DF-SCS-MP2 Energies <==================
	-----------------------------------------------------------
	 SCS Same-Spin Scale       =       0.3333333333333333 [-]
	 SCS Opposite-Spin Scale   =       1.2000000000000000 [-]
	 SCS Same-Spin Energy      =      -0.3380112013498001 [Eh]
	 SCS Opposite-Spin Energy  =      -3.6895454394041312 [Eh]
	 SCS Correlation Energy    =      -4.0275566407539314 [Eh]
	 SCS Total Energy          =   -1331.8902773675843036 [Eh]
	-----------------------------------------------------------

  Dipole Moment: [D]
     X:    -0.8564      Y:     1.8594      Z:     0.8109     Total:     2.2019

*** Psi4 exiting successfully. Buy a developer a beer!
