                               Psi4 1.3.2 release

  ==> Input File <==

--------------------------------------------------------------------------
#psi4
#
memory 32 gb

molecule  {
0 1
  P       -2.2900960    -0.9400430     0.3446780
  O       -0.9821530    -0.2015620     0.9382890
  O        1.3422500    -1.6754830     1.2308510
  O        0.0958579     2.3702103     0.4477114
  O        3.0685150    -2.1870720    -0.8085900
  O        2.8473350     2.5031130     0.3715350
  O        4.1956880     0.4353970    -0.9728740
  O       -2.8268630     0.0333510    -0.8075310
  O       -3.2591210    -0.7232820     1.6216710
  O       -2.1189930    -2.3436440    -0.0996680
  C        0.1181620     0.0300090     0.0163190
  C        0.9532920    -1.2442050    -0.0757250
  C        0.8985890     1.2026440     0.5648510
  C        2.2596600    -1.0143070    -0.8180370
  C        2.1688031     1.4206286    -0.2350318
  C        3.0258420     0.1487050    -0.2103220
  C       -3.1242130     1.4315980    -0.4888860
  C       -3.5363170     2.0851650    -1.7841190
  H       -0.2830920     0.2988010    -0.9702380
  H        0.3702690    -2.0293640    -0.5720320
  H        1.1571200     0.9978770     1.6121560
  H        2.0609340    -0.7886600    -1.8727560
  H        1.9169870     1.6362870    -1.2735830
  H        3.2958550    -0.0945320     0.8276460
  H        0.5217750    -1.8880320     1.7115100
  H        0.6655400     3.1093110     0.6831840
  H        2.9735430    -2.5473740     0.0946540
  H        3.7214290     2.5491860    -0.0588690
  H        4.6397270    -0.4238340    -1.0970870
  H       -3.8083950    -1.5223380     1.7347280
  H       -3.9305460     1.4455410     0.2493860
  H       -2.2297620     1.8928800    -0.0590960
  H       -3.8005210     3.1308820    -1.6026710
  H       -2.7171960     2.0533230    -2.5048750
  H       -4.4009440     1.5743230    -2.2127240
units angstrom
no_reorient  #important for SAPT in psi4, default
symmetry c1  #important for SAPT in psi4, default
}

set PROPERTIES_ORIGIN ["COM"]
properties('MP2/aug-cc-pvtz', properties = ['dipole'])
--------------------------------------------------------------------------

    Molecular point group: c1
  Charge       = 0
  Multiplicity = 1
  Basis Set: AUG-CC-PVTZ
    Blend: AUG-CC-PVTZ
  Basis Set: (AUG-CC-PVTZ AUX)
    Blend: AUG-CC-PVTZ-JKFIT

    Orbital Energies [Eh]
    ---------------------

    Doubly Occupied:

       1A    -80.117174     2A    -20.614930     3A    -20.607412
       4A    -20.599145     5A    -20.583032     6A    -20.577330
       7A    -20.574087     8A    -20.573085     9A    -20.570891
      10A    -20.523595    11A    -11.321228    12A    -11.303452
      13A    -11.299658    14A    -11.298559    15A    -11.298410
      16A    -11.295524    17A    -11.290872    18A    -11.229984
      19A     -7.632622    20A     -5.531128    21A     -5.530756
      22A     -5.529552    23A     -1.460533    24A     -1.411158
      25A     -1.396337    26A     -1.393416    27A     -1.387048
      28A     -1.373082    29A     -1.365305    30A     -1.354395
      31A     -1.303998    32A     -1.117089    33A     -1.040590
      34A     -1.009326    35A     -1.003300    36A     -0.880383
      37A     -0.865177    38A     -0.858194    39A     -0.822850
      40A     -0.810883    41A     -0.753039    42A     -0.745016
      43A     -0.731962    44A     -0.729101    45A     -0.708756
      46A     -0.688917    47A     -0.677880    48A     -0.673759
      49A     -0.661822    50A     -0.660075    51A     -0.644752
      52A     -0.634724    53A     -0.627305    54A     -0.615363
      55A     -0.605727    56A     -0.598263    57A     -0.581970
      58A     -0.575717    59A     -0.571223    60A     -0.560232
      61A     -0.556384    62A     -0.548759    63A     -0.541326
      64A     -0.536286    65A     -0.530075    66A     -0.521298
      67A     -0.513405    68A     -0.504147    69A     -0.496980
      70A     -0.484581    71A     -0.480078    72A     -0.476769
      73A     -0.462896    74A     -0.451252    75A     -0.450269
      76A     -0.435281

  @DF-RHF Final Energy: -1327.86211404813957

   => Energetics <=

    Nuclear Repulsion Energy =           1772.0869356417779272
    One-Electron Energy =               -5356.3163390385070670
    Two-Electron Energy =                2256.3672893485895656
    Total Energy =                      -1327.8621140481395742
  Basis Set: (AUG-CC-PVTZ AUX)
    Blend: AUG-CC-PVTZ-RI
    Molecular point group: c1

    Geometry (in Angstrom), charge = 0, multiplicity = 1:

       Center              X                  Y                   Z               Mass
    ------------   -----------------  -----------------  -----------------  -----------------
         P           -2.290703811891    -0.941638220947     0.345771931504    30.973761998420
         O           -0.982760811891    -0.203157220947     0.939382931504    15.994914619570
         O            1.341642188109    -1.677078220947     1.231944931504    15.994914619570
         O            0.095250088109     2.368615079053     0.448805331504    15.994914619570
         O            3.067907188109    -2.188667220947    -0.807496068496    15.994914619570
         O            2.846727188109     2.501517779053     0.372628931504    15.994914619570
         O            4.195080188109     0.433801779053    -0.971780068496    15.994914619570
         O           -2.827470811891     0.031755779053    -0.806437068496    15.994914619570
         O           -3.259728811891    -0.724877220947     1.622764931504    15.994914619570
         O           -2.119600811891    -2.345239220947    -0.098574068496    15.994914619570
         C            0.117554188109     0.028413779053     0.017412931504    12.000000000000
         C            0.952684188109    -1.245800220947    -0.074631068496    12.000000000000
         C            0.897981188109     1.201048779053     0.565944931504    12.000000000000
         C            2.259052188109    -1.015902220947    -0.816943068496    12.000000000000
         C            2.168195288109     1.419033379053    -0.233937868496    12.000000000000
         C            3.025234188109     0.147109779053    -0.209228068496    12.000000000000
         C           -3.124820811891     1.430002779053    -0.487792068496    12.000000000000
         C           -3.536924811891     2.083569779053    -1.783025068496    12.000000000000
         H           -0.283699811891     0.297205779053    -0.969144068496     1.007825032230
         H            0.369661188109    -2.030959220947    -0.570938068496     1.007825032230
         H            1.156512188109     0.996281779053     1.613249931504     1.007825032230
         H            2.060326188109    -0.790255220947    -1.871662068496     1.007825032230
         H            1.916379188109     1.634691779053    -1.272489068496     1.007825032230
         H            3.295247188109    -0.096127220947     0.828739931504     1.007825032230
         H            0.521167188109    -1.889627220947     1.712603931504     1.007825032230
         H            0.664932188109     3.107715779053     0.684277931504     1.007825032230
         H            2.972935188109    -2.548969220947     0.095747931504     1.007825032230
         H            3.720821188109     2.547590779053    -0.057775068496     1.007825032230
         H            4.639119188109    -0.425429220947    -1.095993068496     1.007825032230
         H           -3.809002811891    -1.523933220947     1.735821931504     1.007825032230
         H           -3.931153811891     1.443945779053     0.250479931504     1.007825032230
         H           -2.230369811891     1.891284779053    -0.058002068496     1.007825032230
         H           -3.801128811891     3.129286779053    -1.601577068496     1.007825032230
         H           -2.717803811891     2.051727779053    -2.503781068496     1.007825032230
         H           -4.401551811891     1.572727779053    -2.211630068496     1.007825032230

  Basis Set: AUG-CC-PVTZ
    Blend: AUG-CC-PVTZ
  Basis Set: (AUG-CC-PVTZ AUX)
    Blend: AUG-CC-PVTZ-JKFIT
	 Reference Energy          =   -1327.8621140481395742 [Eh]
	 Singles Energy            =      -0.0000000000000000 [Eh]
	 Same-Spin Energy          =      -1.0141441340506814 [Eh]
	 Opposite-Spin Energy      =      -3.0751809319064707 [Eh]
	 Correlation Energy        =      -4.0893250659571523 [Eh]
	 Total Energy              =   -1331.9514391140967291 [Eh]

	 ================> DF-SCS-MP2 Energies <==================
	-----------------------------------------------------------
	 SCS Same-Spin Scale       =       0.3333333333333333 [-]
	 SCS Opposite-Spin Scale   =       1.2000000000000000 [-]
	 SCS Same-Spin Energy      =      -0.3380480446835604 [Eh]
	 SCS Opposite-Spin Energy  =      -3.6902171182877646 [Eh]
	 SCS Correlation Energy    =      -4.0282651629713246 [Eh]
	 SCS Total Energy          =   -1331.8903792111109397 [Eh]
	-----------------------------------------------------------

  Dipole Moment: [D]
     X:    -1.1477      Y:     1.8894      Z:     0.7492     Total:     2.3342

*** Psi4 exiting successfully. Buy a developer a beer!
