                               Psi4 1.3.2 release

  ==> Input File <==

--------------------------------------------------------------------------
#psi4
#
memory 32 gb

molecule  {
0 1
  P       -2.2900960    -0.9400430     0.3446780
  O       -0.9821530    -0.2015620     0.9382890
  O        1.3422500    -1.6754830     1.2308510
  O        0.0787050     2.3596040     0.4621680
  O        3.0685150    -2.1870720    -0.8085900
  O        2.8473350     2.5031130     0.3715350
  O        4.1956880     0.4353970    -0.9728740
  O       -2.8359419     0.0296139    -0.7993481
  O       -3.2591210    -0.7232820     1.6216710
  O       -2.1189930    -2.3436440    -0.0996680
  C        0.1181620     0.0300090     0.0163190
  C        0.9532920    -1.2442050    -0.0757250
  C        0.8985890     1.2026440     0.5648510
  C        2.2596600    -1.0143070    -0.8180370
  C        2.1770750     1.3964720    -0.2280410
  C        3.0258420     0.1487050    -0.2103220
  C       -3.1242130     1.4315980    -0.4888860
  C       -3.5363170     2.0851650    -1.7841190
  H       -0.2830920     0.2988010    -0.9702380
  H        0.3702690    -2.0293640    -0.5720320
  H        1.1571200     0.9978770     1.6121560
  H        2.0609340    -0.7886600    -1.8727560
  H        1.9169870     1.6362870    -1.2735830
  H        3.2958550    -0.0945320     0.8276460
  H        0.5217750    -1.8880320     1.7115100
  H        0.6655400     3.1093110     0.6831840
  H        2.9735430    -2.5473740     0.0946540
  H        3.7214290     2.5491860    -0.0588690
  H        4.6397270    -0.4238340    -1.0970870
  H       -3.8083950    -1.5223380     1.7347280
  H       -3.9307633     1.4360030     0.2492672
  H       -2.2297620     1.8928800    -0.0590960
  H       -3.8005210     3.1308820    -1.6026710
  H       -2.7171960     2.0533230    -2.5048750
  H       -4.4009440     1.5743230    -2.2127240
units angstrom
no_reorient  #important for SAPT in psi4, default
symmetry c1  #important for SAPT in psi4, default
}

set PROPERTIES_ORIGIN ["COM"]
properties('MP2/aug-cc-pvtz', properties = ['dipole'])
--------------------------------------------------------------------------

    Molecular point group: c1
  Charge       = 0
  Multiplicity = 1
  Basis Set: AUG-CC-PVTZ
    Blend: AUG-CC-PVTZ
  Basis Set: (AUG-CC-PVTZ AUX)
    Blend: AUG-CC-PVTZ-JKFIT

    Orbital Energies [Eh]
    ---------------------

    Doubly Occupied:

       1A    -80.116237     2A    -20.613742     3A    -20.607071
       4A    -20.598604     5A    -20.583185     6A    -20.576896
       7A    -20.574672     8A    -20.574175     9A    -20.573630
      10A    -20.523071    11A    -11.320958    12A    -11.303614
      13A    -11.299789    14A    -11.299431    15A    -11.298761
      16A    -11.296804    17A    -11.291526    18A    -11.230301
      19A     -7.631781    20A     -5.530286    21A     -5.529932
      22A     -5.528710    23A     -1.460559    24A     -1.410942
      25A     -1.394730    26A     -1.393037    27A     -1.387062
      28A     -1.372872    29A     -1.364057    30A     -1.353935
      31A     -1.303515    32A     -1.119173    33A     -1.041009
      34A     -1.012121    35A     -1.003555    36A     -0.880516
      37A     -0.865581    38A     -0.859165    39A     -0.822039
      40A     -0.810754    41A     -0.751816    42A     -0.745296
      43A     -0.731475    44A     -0.728819    45A     -0.707859
      46A     -0.687236    47A     -0.678218    48A     -0.673857
      49A     -0.662243    50A     -0.661044    51A     -0.643115
      52A     -0.635151    53A     -0.627398    54A     -0.615576
      55A     -0.603634    56A     -0.598592    57A     -0.581692
      58A     -0.575429    59A     -0.571473    60A     -0.559371
      61A     -0.556667    62A     -0.548905    63A     -0.541254
      64A     -0.536664    65A     -0.529845    66A     -0.521992
      67A     -0.513181    68A     -0.504352    69A     -0.496918
      70A     -0.484959    71A     -0.480321    72A     -0.476192
      73A     -0.462418    74A     -0.455987    75A     -0.450173
      76A     -0.436348

  @DF-RHF Final Energy: -1327.86182920256329

   => Energetics <=

    Nuclear Repulsion Energy =           1772.5308214172714543
    One-Electron Energy =               -5357.1987562235299265
    Two-Electron Energy =                2256.8061056036954142
    Total Energy =                      -1327.8618292025630581
  Basis Set: (AUG-CC-PVTZ AUX)
    Blend: AUG-CC-PVTZ-RI
    Molecular point group: c1

    Geometry (in Angstrom), charge = 0, multiplicity = 1:

       Center              X                  Y                   Z               Mass
    ------------   -----------------  -----------------  -----------------  -----------------
         P           -2.289591090695    -0.939802105477     0.344224041611    30.973761998420
         O           -0.981648090695    -0.201321105477     0.937835041611    15.994914619570
         O            1.342754909305    -1.675242105477     1.230397041611    15.994914619570
         O            0.079209909305     2.359844894523     0.461714041611    15.994914619570
         O            3.069019909305    -2.186831105477    -0.809043958389    15.994914619570
         O            2.847839909305     2.503353894523     0.371081041611    15.994914619570
         O            4.196192909305     0.435637894523    -0.973327958389    15.994914619570
         O           -2.835436990695     0.029854794523    -0.799802058389    15.994914619570
         O           -3.258616090695    -0.723041105477     1.621217041611    15.994914619570
         O           -2.118488090695    -2.343403105477    -0.100121958389    15.994914619570
         C            0.118666909305     0.030249894523     0.015865041611    12.000000000000
         C            0.953796909305    -1.243964105477    -0.076178958389    12.000000000000
         C            0.899093909305     1.202884894523     0.564397041611    12.000000000000
         C            2.260164909305    -1.014066105477    -0.818490958389    12.000000000000
         C            2.177579909305     1.396712894523    -0.228494958389    12.000000000000
         C            3.026346909305     0.148945894523    -0.210775958389    12.000000000000
         C           -3.123708090695     1.431838894523    -0.489339958389    12.000000000000
         C           -3.535812090695     2.085405894523    -1.784572958389    12.000000000000
         H           -0.282587090695     0.299041894523    -0.970691958389     1.007825032230
         H            0.370773909305    -2.029123105477    -0.572485958389     1.007825032230
         H            1.157624909305     0.998117894523     1.611702041611     1.007825032230
         H            2.061438909305    -0.788419105477    -1.873209958389     1.007825032230
         H            1.917491909305     1.636527894523    -1.274036958389     1.007825032230
         H            3.296359909305    -0.094291105477     0.827192041611     1.007825032230
         H            0.522279909305    -1.887791105477     1.711056041611     1.007825032230
         H            0.666044909305     3.109551894523     0.682730041611     1.007825032230
         H            2.974047909305    -2.547133105477     0.094200041611     1.007825032230
         H            3.721933909305     2.549426894523    -0.059322958389     1.007825032230
         H            4.640231909305    -0.423593105477    -1.097540958389     1.007825032230
         H           -3.807890090695    -1.522097105477     1.734274041611     1.007825032230
         H           -3.930258390695     1.436243894523     0.248813241611     1.007825032230
         H           -2.229257090695     1.893120894523    -0.059549958389     1.007825032230
         H           -3.800016090695     3.131122894523    -1.603124958389     1.007825032230
         H           -2.716691090695     2.053563894523    -2.505328958389     1.007825032230
         H           -4.400439090695     1.574563894523    -2.213177958389     1.007825032230

  Basis Set: AUG-CC-PVTZ
    Blend: AUG-CC-PVTZ
  Basis Set: (AUG-CC-PVTZ AUX)
    Blend: AUG-CC-PVTZ-JKFIT
	 Reference Energy          =   -1327.8618292025632854 [Eh]
	 Singles Energy            =      -0.0000000000000000 [Eh]
	 Same-Spin Energy          =      -1.0145205709113225 [Eh]
	 Opposite-Spin Energy      =      -3.0758690955192298 [Eh]
	 Correlation Energy        =      -4.0903896664305526 [Eh]
	 Total Energy              =   -1331.9522188689938957 [Eh]

	 ================> DF-SCS-MP2 Energies <==================
	-----------------------------------------------------------
	 SCS Same-Spin Scale       =       0.3333333333333333 [-]
	 SCS Opposite-Spin Scale   =       1.2000000000000000 [-]
	 SCS Same-Spin Energy      =      -0.3381735236371075 [Eh]
	 SCS Opposite-Spin Energy  =      -3.6910429146230754 [Eh]
	 SCS Correlation Energy    =      -4.0292164382601827 [Eh]
	 SCS Total Energy          =   -1331.8910456408234495 [Eh]
	-----------------------------------------------------------

  Dipole Moment: [D]
     X:    -1.0973      Y:     1.8880      Z:     0.6914     Total:     2.2906

*** Psi4 exiting successfully. Buy a developer a beer!
