                               Psi4 1.3.2 release

  ==> Input File <==

--------------------------------------------------------------------------
#psi4
#
memory 32 gb

molecule  {
0 1
  P       -2.2900960    -0.9400430     0.3446780
  O       -0.9483134    -0.2117410     0.9747208
  O        1.3422500    -1.6754830     1.2308510
  O        0.0787050     2.3596040     0.4621680
  O        3.0685150    -2.1870720    -0.8085900
  O        2.8473350     2.5031130     0.3715350
  O        4.1956880     0.4353970    -0.9728740
  O       -2.8268630     0.0333510    -0.8075310
  O       -3.2591210    -0.7232820     1.6216710
  O       -2.1189930    -2.3436440    -0.0996680
  C        0.1181620     0.0300090     0.0163190
  C        0.9532920    -1.2442050    -0.0757250
  C        0.8985890     1.2026440     0.5648510
  C        2.2596600    -1.0143070    -0.8180370
  C        2.1770750     1.3964720    -0.2280410
  C        3.0258420     0.1487050    -0.2103220
  C       -3.1242130     1.4315980    -0.4888860
  C       -3.5363170     2.0851650    -1.7841190
  H       -0.2471656     0.3018075    -0.9832859
  H        0.3702690    -2.0293640    -0.5720320
  H        1.1571200     0.9978770     1.6121560
  H        2.0609340    -0.7886600    -1.8727560
  H        1.9169870     1.6362870    -1.2735830
  H        3.2958550    -0.0945320     0.8276460
  H        0.5217750    -1.8880320     1.7115100
  H        0.6655400     3.1093110     0.6831840
  H        2.9735430    -2.5473740     0.0946540
  H        3.7214290     2.5491860    -0.0588690
  H        4.6397270    -0.4238340    -1.0970870
  H       -3.8083950    -1.5223380     1.7347280
  H       -3.9305460     1.4455410     0.2493860
  H       -2.2297620     1.8928800    -0.0590960
  H       -3.8005210     3.1308820    -1.6026710
  H       -2.7171960     2.0533230    -2.5048750
  H       -4.4009440     1.5743230    -2.2127240
units angstrom
no_reorient  #important for SAPT in psi4, default
symmetry c1  #important for SAPT in psi4, default
}

set PROPERTIES_ORIGIN ["COM"]
properties('MP2/aug-cc-pvtz', properties = ['dipole'])
--------------------------------------------------------------------------

    Molecular point group: c1
  Charge       = 0
  Multiplicity = 1
  Basis Set: AUG-CC-PVTZ
    Blend: AUG-CC-PVTZ
  Basis Set: (AUG-CC-PVTZ AUX)
    Blend: AUG-CC-PVTZ-JKFIT

    Orbital Energies [Eh]
    ---------------------

    Doubly Occupied:

       1A    -80.121390     2A    -20.616563     3A    -20.608462
       4A    -20.603486     5A    -20.580842     6A    -20.575747
       7A    -20.573391     8A    -20.573165     9A    -20.572599
      10A    -20.525745    11A    -11.318224    12A    -11.301419
      13A    -11.301335    14A    -11.297963    15A    -11.296579
      16A    -11.295251    17A    -11.290296    18A    -11.231228
      19A     -7.636271    20A     -5.534796    21A     -5.534276
      22A     -5.533208    23A     -1.457047    24A     -1.410013
      25A     -1.393259    26A     -1.391442    27A     -1.389422
      28A     -1.370186    29A     -1.362718    30A     -1.352505
      31A     -1.305755    32A     -1.117125    33A     -1.042173
      34A     -1.009153    35A     -1.001951    36A     -0.878045
      37A     -0.865430    38A     -0.857598    39A     -0.823990
      40A     -0.809696    41A     -0.750425    42A     -0.743510
      43A     -0.731248    44A     -0.727881    45A     -0.705549
      46A     -0.686335    47A     -0.677398    48A     -0.674234
      49A     -0.661770    50A     -0.660532    51A     -0.641299
      52A     -0.633736    53A     -0.626595    54A     -0.615665
      55A     -0.602640    56A     -0.597397    57A     -0.581943
      58A     -0.576438    59A     -0.569631    60A     -0.559040
      61A     -0.555730    62A     -0.548841    63A     -0.542414
      64A     -0.535785    65A     -0.530752    66A     -0.520417
      67A     -0.513643    68A     -0.503684    69A     -0.497640
      70A     -0.483524    71A     -0.481433    72A     -0.478041
      73A     -0.460895    74A     -0.454837    75A     -0.448821
      76A     -0.435099

  @DF-RHF Final Energy: -1327.85690736664174

   => Energetics <=

    Nuclear Repulsion Energy =           1771.2949453783407989
    One-Electron Energy =               -5354.7545786204200340
    Two-Electron Energy =                2255.6027258754374998
    Total Energy =                      -1327.8569073666417353
  Basis Set: (AUG-CC-PVTZ AUX)
    Blend: AUG-CC-PVTZ-RI
    Molecular point group: c1

    Geometry (in Angstrom), charge = 0, multiplicity = 1:

       Center              X                  Y                   Z               Mass
    ------------   -----------------  -----------------  -----------------  -----------------
         P           -2.292100643258    -0.939488300507     0.342700723828    30.973761998420
         O           -0.950318043258    -0.211186300507     0.972743523828    15.994914619570
         O            1.340245356742    -1.674928300507     1.228873723828    15.994914619570
         O            0.076700356742     2.360158699493     0.460190723828    15.994914619570
         O            3.066510356742    -2.186517300507    -0.810567276172    15.994914619570
         O            2.845330356742     2.503667699493     0.369557723828    15.994914619570
         O            4.193683356742     0.435951699493    -0.974851276172    15.994914619570
         O           -2.828867643258     0.033905699493    -0.809508276172    15.994914619570
         O           -3.261125643258    -0.722727300507     1.619693723828    15.994914619570
         O           -2.120997643258    -2.343089300507    -0.101645276172    15.994914619570
         C            0.116157356742     0.030563699493     0.014341723828    12.000000000000
         C            0.951287356742    -1.243650300507    -0.077702276172    12.000000000000
         C            0.896584356742     1.203198699493     0.562873723828    12.000000000000
         C            2.257655356742    -1.013752300507    -0.820014276172    12.000000000000
         C            2.175070356742     1.397026699493    -0.230018276172    12.000000000000
         C            3.023837356742     0.149259699493    -0.212299276172    12.000000000000
         C           -3.126217643258     1.432152699493    -0.490863276172    12.000000000000
         C           -3.538321643258     2.085719699493    -1.786096276172    12.000000000000
         H           -0.249170243258     0.302362199493    -0.985263176172     1.007825032230
         H            0.368264356742    -2.028809300507    -0.574009276172     1.007825032230
         H            1.155115356742     0.998431699493     1.610178723828     1.007825032230
         H            2.058929356742    -0.788105300507    -1.874733276172     1.007825032230
         H            1.914982356742     1.636841699493    -1.275560276172     1.007825032230
         H            3.293850356742    -0.093977300507     0.825668723828     1.007825032230
         H            0.519770356742    -1.887477300507     1.709532723828     1.007825032230
         H            0.663535356742     3.109865699493     0.681206723828     1.007825032230
         H            2.971538356742    -2.546819300507     0.092676723828     1.007825032230
         H            3.719424356742     2.549740699493    -0.060846276172     1.007825032230
         H            4.637722356742    -0.423279300507    -1.099064276172     1.007825032230
         H           -3.810399643258    -1.521783300507     1.732750723828     1.007825032230
         H           -3.932550643258     1.446095699493     0.247408723828     1.007825032230
         H           -2.231766643258     1.893434699493    -0.061073276172     1.007825032230
         H           -3.802525643258     3.131436699493    -1.604648276172     1.007825032230
         H           -2.719200643258     2.053877699493    -2.506852276172     1.007825032230
         H           -4.402948643258     1.574877699493    -2.214701276172     1.007825032230

  Basis Set: AUG-CC-PVTZ
    Blend: AUG-CC-PVTZ
  Basis Set: (AUG-CC-PVTZ AUX)
    Blend: AUG-CC-PVTZ-JKFIT
	 Reference Energy          =   -1327.8569073666417353 [Eh]
	 Singles Energy            =      -0.0000000000000000 [Eh]
	 Same-Spin Energy          =      -1.0153052705149330 [Eh]
	 Opposite-Spin Energy      =      -3.0778107895279714 [Eh]
	 Correlation Energy        =      -4.0931160600429042 [Eh]
	 Total Energy              =   -1331.9500234266845382 [Eh]

	 ================> DF-SCS-MP2 Energies <==================
	-----------------------------------------------------------
	 SCS Same-Spin Scale       =       0.3333333333333333 [-]
	 SCS Opposite-Spin Scale   =       1.2000000000000000 [-]
	 SCS Same-Spin Energy      =      -0.3384350901716443 [Eh]
	 SCS Opposite-Spin Energy  =      -3.6933729474335655 [Eh]
	 SCS Correlation Energy    =      -4.0318080376052094 [Eh]
	 SCS Total Energy          =   -1331.8887154042470229 [Eh]
	-----------------------------------------------------------

  Dipole Moment: [D]
     X:    -1.3723      Y:     1.8635      Z:     0.6372     Total:     2.4004

*** Psi4 exiting successfully. Buy a developer a beer!
