                               Psi4 1.3.2 release

  ==> Input File <==

--------------------------------------------------------------------------
#psi4
#
memory 32 gb

molecule  {
0 1
  P       -2.2900960    -0.9400430     0.3446780
  O       -0.9821530    -0.2015620     0.9382890
  O        1.3422500    -1.6754830     1.2308510
  O        0.0787050     2.3596040     0.4621680
  O        3.0685150    -2.1870720    -0.8085900
  O        2.8473350     2.5031130     0.3715350
  O        4.1956880     0.4353970    -0.9728740
  O       -2.8268630     0.0333510    -0.8075310
  O       -3.2591210    -0.7232820     1.6216710
  O       -2.1189930    -2.3436440    -0.0996680
  C        0.1181620     0.0300090     0.0163190
  C        0.9532920    -1.2442050    -0.0757250
  C        0.8985890     1.2026440     0.5648510
  C        2.2596600    -1.0143070    -0.8180370
  C        2.1770750     1.3964720    -0.2280410
  C        3.0258420     0.1487050    -0.2103220
  C       -3.1242130     1.4315980    -0.4888860
  C       -3.5363170     2.0851650    -1.7841190
  H       -0.2830920     0.2988010    -0.9702380
  H        0.3702690    -2.0293640    -0.5720320
  H        1.1571200     0.9978770     1.6121560
  H        2.0609340    -0.7886600    -1.8727560
  H        1.9169870     1.6362870    -1.2735830
  H        3.2958550    -0.0945320     0.8276460
  H        0.5217750    -1.8880320     1.7115100
  H        0.6655400     3.1093110     0.6831840
  H        2.9735430    -2.5473740     0.0946540
  H        3.5422017     2.5397390     0.0293825
  H        4.6397270    -0.4238340    -1.0970870
  H       -3.8083950    -1.5223380     1.7347280
  H       -3.9305460     1.4455410     0.2493860
  H       -2.2297620     1.8928800    -0.0590960
  H       -3.8005210     3.1308820    -1.6026710
  H       -2.7171960     2.0533230    -2.5048750
  H       -4.4009440     1.5743230    -2.2127240
units angstrom
no_reorient  #important for SAPT in psi4, default
symmetry c1  #important for SAPT in psi4, default
}

set PROPERTIES_ORIGIN ["COM"]
properties('MP2/aug-cc-pvtz', properties = ['dipole'])
--------------------------------------------------------------------------

    Molecular point group: c1
  Charge       = 0
  Multiplicity = 1
  Basis Set: AUG-CC-PVTZ
    Blend: AUG-CC-PVTZ
  Basis Set: (AUG-CC-PVTZ AUX)
    Blend: AUG-CC-PVTZ-JKFIT

    Orbital Energies [Eh]
    ---------------------

    Doubly Occupied:

       1A    -80.117529     2A    -20.615239     3A    -20.607815
       4A    -20.599493     5A    -20.583852     6A    -20.575286
       7A    -20.574850     8A    -20.573258     9A    -20.558362
      10A    -20.523971    11A    -11.321716    12A    -11.304303
      13A    -11.300348    14A    -11.300271    15A    -11.299922
      16A    -11.299556    17A    -11.292771    18A    -11.230312
      19A     -7.632979    20A     -5.531485    21A     -5.531113
      22A     -5.529909    23A     -1.460992    24A     -1.444444
      25A     -1.408351    26A     -1.394050    27A     -1.387393
      28A     -1.376027    29A     -1.372488    30A     -1.358236
      31A     -1.304369    32A     -1.123689    33A     -1.041038
      34A     -1.018166    35A     -1.008090    36A     -0.887188
      37A     -0.867659    38A     -0.861531    39A     -0.828229
      40A     -0.812038    41A     -0.764502    42A     -0.748301
      43A     -0.732758    44A     -0.731246    45A     -0.719534
      46A     -0.688313    47A     -0.678883    48A     -0.676281
      49A     -0.666806    50A     -0.663493    51A     -0.649914
      52A     -0.636790    53A     -0.628429    54A     -0.616923
      55A     -0.606303    56A     -0.600162    57A     -0.583096
      58A     -0.576142    59A     -0.572599    60A     -0.565262
      61A     -0.558000    62A     -0.549630    63A     -0.541851
      64A     -0.537880    65A     -0.530755    66A     -0.523232
      67A     -0.515474    68A     -0.505603    69A     -0.498488
      70A     -0.485838    71A     -0.480611    72A     -0.477185
      73A     -0.465423    74A     -0.459783    75A     -0.451534
      76A     -0.437185

  @DF-RHF Final Energy: -1327.81617557364484

   => Energetics <=

    Nuclear Repulsion Energy =           1774.0142778928473035
    One-Electron Energy =               -5359.6958485682216633
    Two-Electron Energy =                2257.8653951017295185
    Total Energy =                      -1327.8161755736446139
  Basis Set: (AUG-CC-PVTZ AUX)
    Blend: AUG-CC-PVTZ-RI
    Molecular point group: c1

    Geometry (in Angstrom), charge = 0, multiplicity = 1:

       Center              X                  Y                   Z               Mass
    ------------   -----------------  -----------------  -----------------  -----------------
         P           -2.289468913356    -0.940009930568     0.344369229553    30.973761998420
         O           -0.981525913356    -0.201528930568     0.937980229553    15.994914619570
         O            1.342877086644    -1.675449930568     1.230542229553    15.994914619570
         O            0.079332086644     2.359637069432     0.461859229553    15.994914619570
         O            3.069142086644    -2.187038930568    -0.808898770447    15.994914619570
         O            2.847962086644     2.503146069432     0.371226229553    15.994914619570
         O            4.196315086644     0.435430069432    -0.973182770447    15.994914619570
         O           -2.826235913356     0.033384069432    -0.807839770447    15.994914619570
         O           -3.258493913356    -0.723248930568     1.621362229553    15.994914619570
         O           -2.118365913356    -2.343610930568    -0.099976770447    15.994914619570
         C            0.118789086644     0.030042069432     0.016010229553    12.000000000000
         C            0.953919086644    -1.244171930568    -0.076033770447    12.000000000000
         C            0.899216086644     1.202677069432     0.564542229553    12.000000000000
         C            2.260287086644    -1.014273930568    -0.818345770447    12.000000000000
         C            2.177702086644     1.396505069432    -0.228349770447    12.000000000000
         C            3.026469086644     0.148738069432    -0.210630770447    12.000000000000
         C           -3.123585913356     1.431631069432    -0.489194770447    12.000000000000
         C           -3.535689913356     2.085198069432    -1.784427770447    12.000000000000
         H           -0.282464913356     0.298834069432    -0.970546770447     1.007825032230
         H            0.370896086644    -2.029330930568    -0.572340770447     1.007825032230
         H            1.157747086644     0.997910069432     1.611847229553     1.007825032230
         H            2.061561086644    -0.788626930568    -1.873064770447     1.007825032230
         H            1.917614086644     1.636320069432    -1.273891770447     1.007825032230
         H            3.296482086644    -0.094498930568     0.827337229553     1.007825032230
         H            0.522402086644    -1.887998930568     1.711201229553     1.007825032230
         H            0.666167086644     3.109344069432     0.682875229553     1.007825032230
         H            2.974170086644    -2.547340930568     0.094345229553     1.007825032230
         H            3.542828786644     2.539772069432     0.029073729553     1.007825032230
         H            4.640354086644    -0.423800930568    -1.097395770447     1.007825032230
         H           -3.807767913356    -1.522304930568     1.734419229553     1.007825032230
         H           -3.929918913356     1.445574069432     0.249077229553     1.007825032230
         H           -2.229134913356     1.892913069432    -0.059404770447     1.007825032230
         H           -3.799893913356     3.130915069432    -1.602979770447     1.007825032230
         H           -2.716568913356     2.053356069432    -2.505183770447     1.007825032230
         H           -4.400316913356     1.574356069432    -2.213032770447     1.007825032230

  Basis Set: AUG-CC-PVTZ
    Blend: AUG-CC-PVTZ
  Basis Set: (AUG-CC-PVTZ AUX)
    Blend: AUG-CC-PVTZ-JKFIT
	 Reference Energy          =   -1327.8161755736448413 [Eh]
	 Singles Energy            =      -0.0000000000000000 [Eh]
	 Same-Spin Energy          =      -1.0120846766853273 [Eh]
	 Opposite-Spin Energy      =      -3.0704922208103662 [Eh]
	 Correlation Energy        =      -4.0825768974956933 [Eh]
	 Total Energy              =   -1331.8987524711405968 [Eh]

	 ================> DF-SCS-MP2 Energies <==================
	-----------------------------------------------------------
	 SCS Same-Spin Scale       =       0.3333333333333333 [-]
	 SCS Opposite-Spin Scale   =       1.2000000000000000 [-]
	 SCS Same-Spin Energy      =      -0.3373615588951091 [Eh]
	 SCS Opposite-Spin Energy  =      -3.6845906649724394 [Eh]
	 SCS Correlation Energy    =      -4.0219522238675482 [Eh]
	 SCS Total Energy          =   -1331.8381277975124704 [Eh]
	-----------------------------------------------------------

  Dipole Moment: [D]
     X:    -1.3410      Y:     1.8013      Z:     0.7881     Total:     2.3799

*** Psi4 exiting successfully. Buy a developer a beer!
