                               Psi4 1.3.2 release

  ==> Input File <==

--------------------------------------------------------------------------
#psi4
#
memory 32 gb

molecule  {
0 1
  P       -2.2900960    -0.9400430     0.3446780
  O       -0.9821530    -0.2015620     0.9382890
  O        1.3422500    -1.6754830     1.2308510
  O        0.0787050     2.3596040     0.4621680
  O        3.0685150    -2.1870720    -0.8085900
  O        2.8473350     2.5031130     0.3715350
  O        4.1956880     0.4353970    -0.9728740
  O       -2.8268630     0.0333510    -0.8075310
  O       -3.2591210    -0.7232820     1.6216710
  O       -2.1189930    -2.3436440    -0.0996680
  C        0.1181620     0.0300090     0.0163190
  C        1.0627253    -1.4111747    -0.0877862
  C        0.8985890     1.2026440     0.5648510
  C        2.2596600    -1.0143070    -0.8180370
  C        2.1770750     1.3964720    -0.2280410
  C        3.0258420     0.1487050    -0.2103220
  C       -3.1242130     1.4315980    -0.4888860
  C       -3.5363170     2.0851650    -1.7841190
  H       -0.2830920     0.2988010    -0.9702380
  H        0.3702690    -2.0293640    -0.5720320
  H        1.1571200     0.9978770     1.6121560
  H        2.0609340    -0.7886600    -1.8727560
  H        1.9169870     1.6362870    -1.2735830
  H        3.2958550    -0.0945320     0.8276460
  H        0.5217750    -1.8880320     1.7115100
  H        0.6655400     3.1093110     0.6831840
  H        2.9735430    -2.5473740     0.0946540
  H        3.7214290     2.5491860    -0.0588690
  H        4.6397270    -0.4238340    -1.0970870
  H       -3.8083950    -1.5223380     1.7347280
  H       -3.9305460     1.4455410     0.2493860
  H       -2.2297620     1.8928800    -0.0590960
  H       -3.8005210     3.1308820    -1.6026710
  H       -2.7171960     2.0533230    -2.5048750
  H       -4.4009440     1.5743230    -2.2127240
units angstrom
no_reorient  #important for SAPT in psi4, default
symmetry c1  #important for SAPT in psi4, default
}

set PROPERTIES_ORIGIN ["COM"]
properties('MP2/aug-cc-pvtz', properties = ['dipole'])
--------------------------------------------------------------------------

    Molecular point group: c1
  Charge       = 0
  Multiplicity = 1
  Basis Set: AUG-CC-PVTZ
    Blend: AUG-CC-PVTZ
  Basis Set: (AUG-CC-PVTZ AUX)
    Blend: AUG-CC-PVTZ-JKFIT

    Orbital Energies [Eh]
    ---------------------

    Doubly Occupied:

       1A    -80.115103     2A    -20.613417     3A    -20.603561
       4A    -20.596702     5A    -20.590424     6A    -20.576949
       7A    -20.575637     8A    -20.572003     9A    -20.570013
      10A    -20.523053    11A    -11.314124    12A    -11.308311
      13A    -11.297977    14A    -11.297383    15A    -11.295412
      16A    -11.294444    17A    -11.294136    18A    -11.228252
      19A     -7.630536    20A     -5.529043    21A     -5.528657
      22A     -5.527500    23A     -1.457036    24A     -1.422850
      25A     -1.397855    26A     -1.392318    27A     -1.385044
      28A     -1.376188    29A     -1.366107    30A     -1.354581
      31A     -1.303191    32A     -1.108084    33A     -1.038553
      34A     -1.011523    35A     -0.994953    36A     -0.884387
      37A     -0.864642    38A     -0.852735    39A     -0.820491
      40A     -0.812325    41A     -0.755847    42A     -0.746352
      43A     -0.730807    44A     -0.725129    45A     -0.704020
      46A     -0.692479    47A     -0.687238    48A     -0.674623
      49A     -0.663845    50A     -0.660063    51A     -0.640552
      52A     -0.634464    53A     -0.629024    54A     -0.616850
      55A     -0.601684    56A     -0.599999    57A     -0.581276
      58A     -0.573809    59A     -0.570306    60A     -0.561886
      61A     -0.556012    62A     -0.549788    63A     -0.543136
      64A     -0.540483    65A     -0.530116    66A     -0.522036
      67A     -0.512091    68A     -0.507949    69A     -0.496538
      70A     -0.479989    71A     -0.477390    72A     -0.472817
      73A     -0.458138    74A     -0.454815    75A     -0.444050
      76A     -0.409848

  @DF-RHF Final Energy: -1327.83172591701850

   => Energetics <=

    Nuclear Repulsion Energy =           1769.8230946847745599
    One-Electron Energy =               -5351.8477448508147063
    Two-Electron Energy =                2254.1929242490218712
    Total Energy =                      -1327.8317259170185025
  Basis Set: (AUG-CC-PVTZ AUX)
    Blend: AUG-CC-PVTZ-RI
    Molecular point group: c1

    Geometry (in Angstrom), charge = 0, multiplicity = 1:

       Center              X                  Y                   Z               Mass
    ------------   -----------------  -----------------  -----------------  -----------------
         P           -2.294654722127    -0.933087385188     0.345180434316    30.973761998420
         O           -0.986711722127    -0.194606385188     0.938791434316    15.994914619570
         O            1.337691277873    -1.668527385188     1.231353434316    15.994914619570
         O            0.074146277873     2.366559614812     0.462670434316    15.994914619570
         O            3.063956277873    -2.180116385188    -0.808087565684    15.994914619570
         O            2.842776277873     2.510068614812     0.372037434316    15.994914619570
         O            4.191129277873     0.442352614812    -0.972371565684    15.994914619570
         O           -2.831421722127     0.040306614812    -0.807028565684    15.994914619570
         O           -3.263679722127    -0.716326385188     1.622173434316    15.994914619570
         O           -2.123551722127    -2.336688385188    -0.099165565684    15.994914619570
         C            0.113603277873     0.036964614812     0.016821434316    12.000000000000
         C            1.058166577873    -1.404219085188    -0.087283765684    12.000000000000
         C            0.894030277873     1.209599614812     0.565353434316    12.000000000000
         C            2.255101277873    -1.007351385188    -0.817534565684    12.000000000000
         C            2.172516277873     1.403427614812    -0.227538565684    12.000000000000
         C            3.021283277873     0.155660614812    -0.209819565684    12.000000000000
         C           -3.128771722127     1.438553614812    -0.488383565684    12.000000000000
         C           -3.540875722127     2.092120614812    -1.783616565684    12.000000000000
         H           -0.287650722127     0.305756614812    -0.969735565684     1.007825032230
         H            0.365710277873    -2.022408385188    -0.571529565684     1.007825032230
         H            1.152561277873     1.004832614812     1.612658434316     1.007825032230
         H            2.056375277873    -0.781704385188    -1.872253565684     1.007825032230
         H            1.912428277873     1.643242614812    -1.273080565684     1.007825032230
         H            3.291296277873    -0.087576385188     0.828148434316     1.007825032230
         H            0.517216277873    -1.881076385188     1.712012434316     1.007825032230
         H            0.660981277873     3.116266614812     0.683686434316     1.007825032230
         H            2.968984277873    -2.540418385188     0.095156434316     1.007825032230
         H            3.716870277873     2.556141614812    -0.058366565684     1.007825032230
         H            4.635168277873    -0.416878385188    -1.096584565684     1.007825032230
         H           -3.812953722127    -1.515382385188     1.735230434316     1.007825032230
         H           -3.935104722127     1.452496614812     0.249888434316     1.007825032230
         H           -2.234320722127     1.899835614812    -0.058593565684     1.007825032230
         H           -3.805079722127     3.137837614812    -1.602168565684     1.007825032230
         H           -2.721754722127     2.060278614812    -2.504372565684     1.007825032230
         H           -4.405502722127     1.581278614812    -2.212221565684     1.007825032230

  Basis Set: AUG-CC-PVTZ
    Blend: AUG-CC-PVTZ
  Basis Set: (AUG-CC-PVTZ AUX)
    Blend: AUG-CC-PVTZ-JKFIT
	 Reference Energy          =   -1327.8317259170185025 [Eh]
	 Singles Energy            =      -0.0000000000000000 [Eh]
	 Same-Spin Energy          =      -1.0151997175999172 [Eh]
	 Opposite-Spin Energy      =      -3.0770836375296997 [Eh]
	 Correlation Energy        =      -4.0922833551296165 [Eh]
	 Total Energy              =   -1331.9240092721481687 [Eh]

	 ================> DF-SCS-MP2 Energies <==================
	-----------------------------------------------------------
	 SCS Same-Spin Scale       =       0.3333333333333333 [-]
	 SCS Opposite-Spin Scale   =       1.2000000000000000 [-]
	 SCS Same-Spin Energy      =      -0.3383999058666390 [Eh]
	 SCS Opposite-Spin Energy  =      -3.6925003650356394 [Eh]
	 SCS Correlation Energy    =      -4.0309002709022783 [Eh]
	 SCS Total Energy          =   -1331.8626261879207959 [Eh]
	-----------------------------------------------------------

  Dipole Moment: [D]
     X:    -0.9354      Y:     1.6062      Z:     0.8072     Total:     2.0264

*** Psi4 exiting successfully. Buy a developer a beer!
