                               Psi4 1.3.2 release

  ==> Input File <==

--------------------------------------------------------------------------
#psi4
#
memory 32 gb

molecule  {
0 1
  P       -2.2900960    -0.9400430     0.3446780
  O       -0.9821530    -0.2015620     0.9382890
  O        1.3422500    -1.6754830     1.2308510
  O        0.0787050     2.3596040     0.4621680
  O        3.0685150    -2.1870720    -0.8085900
  O        2.8473350     2.5031130     0.3715350
  O        4.1956880     0.4353970    -0.9728740
  O       -2.8268630     0.0333510    -0.8075310
  O       -3.2591210    -0.7232820     1.6216710
  O       -2.1189930    -2.3436440    -0.0996680
  C        0.1181620     0.0300090     0.0163190
  C        0.9810887    -1.2527439    -0.0313472
  C        0.8985890     1.2026440     0.5648510
  C        2.2596600    -1.0143070    -0.8180370
  C        2.1770750     1.3964720    -0.2280410
  C        3.0258420     0.1487050    -0.2103220
  C       -3.1242130     1.4315980    -0.4888860
  C       -3.5363170     2.0851650    -1.7841190
  H       -0.2830920     0.2988010    -0.9702380
  H        0.3702690    -2.0293640    -0.5720320
  H        1.1571200     0.9978770     1.6121560
  H        2.0986525    -0.7855245    -1.8784972
  H        1.9169870     1.6362870    -1.2735830
  H        3.2958550    -0.0945320     0.8276460
  H        0.5217750    -1.8880320     1.7115100
  H        0.6655400     3.1093110     0.6831840
  H        2.9735430    -2.5473740     0.0946540
  H        3.7214290     2.5491860    -0.0588690
  H        4.6397270    -0.4238340    -1.0970870
  H       -3.8083950    -1.5223380     1.7347280
  H       -3.9305460     1.4455410     0.2493860
  H       -2.2297620     1.8928800    -0.0590960
  H       -3.8005210     3.1308820    -1.6026710
  H       -2.7171960     2.0533230    -2.5048750
  H       -4.4009440     1.5743230    -2.2127240
units angstrom
no_reorient  #important for SAPT in psi4, default
symmetry c1  #important for SAPT in psi4, default
}

set PROPERTIES_ORIGIN ["COM"]
properties('MP2/aug-cc-pvtz', properties = ['dipole'])
--------------------------------------------------------------------------

    Molecular point group: c1
  Charge       = 0
  Multiplicity = 1
  Basis Set: AUG-CC-PVTZ
    Blend: AUG-CC-PVTZ
  Basis Set: (AUG-CC-PVTZ AUX)
    Blend: AUG-CC-PVTZ-JKFIT

    Orbital Energies [Eh]
    ---------------------

    Doubly Occupied:

       1A    -80.116394     2A    -20.614407     3A    -20.606304
       4A    -20.598492     5A    -20.588850     6A    -20.576511
       7A    -20.573773     8A    -20.573675     9A    -20.572735
      10A    -20.522773    11A    -11.319272    12A    -11.304566
      13A    -11.299033    14A    -11.298060    15A    -11.297515
      16A    -11.296226    17A    -11.290421    18A    -11.229557
      19A     -7.631840    20A     -5.530346    21A     -5.529974
      22A     -5.528770    23A     -1.460024    24A     -1.420334
      25A     -1.397879    26A     -1.393637    27A     -1.386473
      28A     -1.376598    29A     -1.365416    30A     -1.354239
      31A     -1.303166    32A     -1.116820    33A     -1.040106
      34A     -1.009877    35A     -1.000642    36A     -0.879759
      37A     -0.864592    38A     -0.856892    39A     -0.821528
      40A     -0.814357    41A     -0.754989    42A     -0.745392
      43A     -0.730353    44A     -0.728724    45A     -0.707610
      46A     -0.687299    47A     -0.684357    48A     -0.674005
      49A     -0.662555    50A     -0.660865    51A     -0.642852
      52A     -0.634752    53A     -0.628533    54A     -0.617287
      55A     -0.602972    56A     -0.598684    57A     -0.581227
      58A     -0.575335    59A     -0.572597    60A     -0.559955
      61A     -0.556461    62A     -0.549957    63A     -0.541368
      64A     -0.537626    65A     -0.531572    66A     -0.522135
      67A     -0.512760    68A     -0.503962    69A     -0.496176
      70A     -0.484057    71A     -0.478941    72A     -0.475919
      73A     -0.460751    74A     -0.455494    75A     -0.445232
      76A     -0.430871

  @DF-RHF Final Energy: -1327.85925846077703

   => Energetics <=

    Nuclear Repulsion Energy =           1772.6428178155294972
    One-Electron Energy =               -5357.4132346574797339
    Two-Electron Energy =                2256.9111583811736637
    Total Energy =                      -1327.8592584607768003
  Basis Set: (AUG-CC-PVTZ AUX)
    Blend: AUG-CC-PVTZ-RI
    Molecular point group: c1

    Geometry (in Angstrom), charge = 0, multiplicity = 1:

       Center              X                  Y                   Z               Mass
    ------------   -----------------  -----------------  -----------------  -----------------
         P           -2.291385881538    -0.939698240212     0.342849393910    30.973761998420
         O           -0.983442881538    -0.201217240212     0.936460393910    15.994914619570
         O            1.340960118462    -1.675138240212     1.229022393910    15.994914619570
         O            0.077415118462     2.359948759788     0.460339393910    15.994914619570
         O            3.067225118462    -2.186727240212    -0.810418606090    15.994914619570
         O            2.846045118462     2.503457759788     0.369706393910    15.994914619570
         O            4.194398118462     0.435741759788    -0.974702606090    15.994914619570
         O           -2.828152881538     0.033695759788    -0.809359606090    15.994914619570
         O           -3.260410881538    -0.722937240212     1.619842393910    15.994914619570
         O           -2.120282881538    -2.343299240212    -0.101496606090    15.994914619570
         C            0.116872118462     0.030353759788     0.014490393910    12.000000000000
         C            0.979798818462    -1.252399140212    -0.033175806090    12.000000000000
         C            0.897299118462     1.202988759788     0.563022393910    12.000000000000
         C            2.258370118462    -1.013962240212    -0.819865606090    12.000000000000
         C            2.175785118462     1.396816759788    -0.229869606090    12.000000000000
         C            3.024552118462     0.149049759788    -0.212150606090    12.000000000000
         C           -3.125502881538     1.431942759788    -0.490714606090    12.000000000000
         C           -3.537606881538     2.085509759788    -1.785947606090    12.000000000000
         H           -0.284381881538     0.299145759788    -0.972066606090     1.007825032230
         H            0.368979118462    -2.029019240212    -0.573860606090     1.007825032230
         H            1.155830118462     0.998221759788     1.610327393910     1.007825032230
         H            2.097362618462    -0.785179740212    -1.880325806090     1.007825032230
         H            1.915697118462     1.636631759788    -1.275411606090     1.007825032230
         H            3.294565118462    -0.094187240212     0.825817393910     1.007825032230
         H            0.520485118462    -1.887687240212     1.709681393910     1.007825032230
         H            0.664250118462     3.109655759788     0.681355393910     1.007825032230
         H            2.972253118462    -2.547029240212     0.092825393910     1.007825032230
         H            3.720139118462     2.549530759788    -0.060697606090     1.007825032230
         H            4.638437118462    -0.423489240212    -1.098915606090     1.007825032230
         H           -3.809684881538    -1.521993240212     1.732899393910     1.007825032230
         H           -3.931835881538     1.445885759788     0.247557393910     1.007825032230
         H           -2.231051881538     1.893224759788    -0.060924606090     1.007825032230
         H           -3.801810881538     3.131226759788    -1.604499606090     1.007825032230
         H           -2.718485881538     2.053667759788    -2.506703606090     1.007825032230
         H           -4.402233881538     1.574667759788    -2.214552606090     1.007825032230

  Basis Set: AUG-CC-PVTZ
    Blend: AUG-CC-PVTZ
  Basis Set: (AUG-CC-PVTZ AUX)
    Blend: AUG-CC-PVTZ-JKFIT
	 Reference Energy          =   -1327.8592584607770277 [Eh]
	 Singles Energy            =      -0.0000000000000000 [Eh]
	 Same-Spin Energy          =      -1.0146558481658119 [Eh]
	 Opposite-Spin Energy      =      -3.0755185306020438 [Eh]
	 Correlation Energy        =      -4.0901743787678555 [Eh]
	 Total Energy              =   -1331.9494328395448974 [Eh]

	 ================> DF-SCS-MP2 Energies <==================
	-----------------------------------------------------------
	 SCS Same-Spin Scale       =       0.3333333333333333 [-]
	 SCS Opposite-Spin Scale   =       1.2000000000000000 [-]
	 SCS Same-Spin Energy      =      -0.3382186160552706 [Eh]
	 SCS Opposite-Spin Energy  =      -3.6906222367224526 [Eh]
	 SCS Correlation Energy    =      -4.0288408527777229 [Eh]
	 SCS Total Energy          =   -1331.8880993135546760 [Eh]
	-----------------------------------------------------------

  Dipole Moment: [D]
     X:    -1.0610      Y:     1.8072      Z:     0.8455     Total:     2.2597

*** Psi4 exiting successfully. Buy a developer a beer!
