                               Psi4 1.3.2 release

  ==> Input File <==

--------------------------------------------------------------------------
#psi4
#
memory 32 gb

molecule  {
0 1
  P       -2.2900960    -0.9400430     0.3446780
  O       -0.9821530    -0.2015620     0.9382890
  O        1.3422500    -1.6754830     1.2308510
  O        0.0787050     2.3596040     0.4621680
  O        3.0685150    -2.1870720    -0.8085900
  O        2.8473350     2.5031130     0.3715350
  O        4.1956880     0.4353970    -0.9728740
  O       -2.8268630     0.0333510    -0.8075310
  O       -3.2591210    -0.7232820     1.6216710
  O       -2.1189930    -2.3436440    -0.0996680
  C        0.1181620     0.0300090     0.0163190
  C        0.9532920    -1.2442050    -0.0757250
  C        0.8809856     1.2425728     0.4988289
  C        2.2596600    -1.0143070    -0.8180370
  C        2.1770750     1.3964720    -0.2280410
  C        3.0258420     0.1487050    -0.2103220
  C       -3.1242130     1.4315980    -0.4888860
  C       -3.5363170     2.0851650    -1.7841190
  H       -0.2583713     0.3504116    -0.9645548
  H        0.3702690    -2.0293640    -0.5720320
  H        1.1571200     0.9978770     1.6121560
  H        2.0609340    -0.7886600    -1.8727560
  H        1.9169870     1.6362870    -1.2735830
  H        3.2958550    -0.0945320     0.8276460
  H        0.5217750    -1.8880320     1.7115100
  H        0.6655400     3.1093110     0.6831840
  H        2.9735430    -2.5473740     0.0946540
  H        3.7214290     2.5491860    -0.0588690
  H        4.6397270    -0.4238340    -1.0970870
  H       -3.8083950    -1.5223380     1.7347280
  H       -3.9305460     1.4455410     0.2493860
  H       -2.2297620     1.8928800    -0.0590960
  H       -3.8005210     3.1308820    -1.6026710
  H       -2.7171960     2.0533230    -2.5048750
  H       -4.4009440     1.5743230    -2.2127240
units angstrom
no_reorient  #important for SAPT in psi4, default
symmetry c1  #important for SAPT in psi4, default
}

set PROPERTIES_ORIGIN ["COM"]
properties('MP2/aug-cc-pvtz', properties = ['dipole'])
--------------------------------------------------------------------------

    Molecular point group: c1
  Charge       = 0
  Multiplicity = 1
  Basis Set: AUG-CC-PVTZ
    Blend: AUG-CC-PVTZ
  Basis Set: (AUG-CC-PVTZ AUX)
    Blend: AUG-CC-PVTZ-JKFIT

    Orbital Energies [Eh]
    ---------------------

    Doubly Occupied:

       1A    -80.117176     2A    -20.614910     3A    -20.608157
       4A    -20.598947     5A    -20.582344     6A    -20.579069
       7A    -20.577316     8A    -20.574415     9A    -20.574355
      10A    -20.523368    11A    -11.320399    12A    -11.304347
      13A    -11.300864    14A    -11.300137    15A    -11.299162
      16A    -11.295879    17A    -11.292260    18A    -11.230435
      19A     -7.632602    20A     -5.531101    21A     -5.530747
      22A     -5.529531    23A     -1.460490    24A     -1.414536
      25A     -1.400563    26A     -1.394640    27A     -1.387129
      28A     -1.377427    29A     -1.367199    30A     -1.355053
      31A     -1.303777    32A     -1.119622    33A     -1.041014
      34A     -1.012057    35A     -1.004602    36A     -0.882503
      37A     -0.866014    38A     -0.857625    39A     -0.824333
      40A     -0.806312    41A     -0.756060    42A     -0.744571
      43A     -0.731920    44A     -0.729253    45A     -0.707770
      46A     -0.690517    47A     -0.677712    48A     -0.674199
      49A     -0.664273    50A     -0.661811    51A     -0.646041
      52A     -0.636096    53A     -0.628192    54A     -0.617162
      55A     -0.605425    56A     -0.599910    57A     -0.583231
      58A     -0.575865    59A     -0.571173    60A     -0.561216
      61A     -0.557113    62A     -0.549840    63A     -0.541534
      64A     -0.537103    65A     -0.530797    66A     -0.521107
      67A     -0.513012    68A     -0.503159    69A     -0.496148
      70A     -0.482289    71A     -0.480142    72A     -0.476752
      73A     -0.460585    74A     -0.457222    75A     -0.439505
      76A     -0.436044

  @DF-RHF Final Energy: -1327.85405904958179

   => Energetics <=

    Nuclear Repulsion Energy =           1772.8512159419412910
    One-Electron Energy =               -5357.7362086483317398
    Two-Electron Energy =                2257.0309336568084291
    Total Energy =                      -1327.8540590495817924
  Basis Set: (AUG-CC-PVTZ AUX)
    Blend: AUG-CC-PVTZ-RI
    Molecular point group: c1

    Geometry (in Angstrom), charge = 0, multiplicity = 1:

       Center              X                  Y                   Z               Mass
    ------------   -----------------  -----------------  -----------------  -----------------
         P           -2.289449136643    -0.941886897397     0.347408445349    30.973761998420
         O           -0.981506136643    -0.203405897397     0.941019445349    15.994914619570
         O            1.342896863357    -1.677326897397     1.233581445349    15.994914619570
         O            0.079351863357     2.357760102603     0.464898445349    15.994914619570
         O            3.069161863357    -2.188915897397    -0.805859554651    15.994914619570
         O            2.847981863357     2.501269102603     0.374265445349    15.994914619570
         O            4.196334863357     0.433553102603    -0.970143554651    15.994914619570
         O           -2.826216136643     0.031507102603    -0.804800554651    15.994914619570
         O           -3.258474136643    -0.725125897397     1.624401445349    15.994914619570
         O           -2.118346136643    -2.345487897397    -0.096937554651    15.994914619570
         C            0.118808863357     0.028165102603     0.019049445349    12.000000000000
         C            0.953938863357    -1.246048897397    -0.072994554651    12.000000000000
         C            0.881632463357     1.240728902603     0.501559345349    12.000000000000
         C            2.260306863357    -1.016150897397    -0.815306554651    12.000000000000
         C            2.177721863357     1.394628102603    -0.225310554651    12.000000000000
         C            3.026488863357     0.146861102603    -0.207591554651    12.000000000000
         C           -3.123566136643     1.429754102603    -0.486155554651    12.000000000000
         C           -3.535670136643     2.083321102603    -1.781388554651    12.000000000000
         H           -0.257724436643     0.348567702603    -0.961824354651     1.007825032230
         H            0.370915863357    -2.031207897397    -0.569301554651     1.007825032230
         H            1.157766863357     0.996033102603     1.614886445349     1.007825032230
         H            2.061580863357    -0.790503897397    -1.870025554651     1.007825032230
         H            1.917633863357     1.634443102603    -1.270852554651     1.007825032230
         H            3.296501863357    -0.096375897397     0.830376445349     1.007825032230
         H            0.522421863357    -1.889875897397     1.714240445349     1.007825032230
         H            0.666186863357     3.107467102603     0.685914445349     1.007825032230
         H            2.974189863357    -2.549217897397     0.097384445349     1.007825032230
         H            3.722075863357     2.547342102603    -0.056138554651     1.007825032230
         H            4.640373863357    -0.425677897397    -1.094356554651     1.007825032230
         H           -3.807748136643    -1.524181897397     1.737458445349     1.007825032230
         H           -3.929899136643     1.443697102603     0.252116445349     1.007825032230
         H           -2.229115136643     1.891036102603    -0.056365554651     1.007825032230
         H           -3.799874136643     3.129038102603    -1.599940554651     1.007825032230
         H           -2.716549136643     2.051479102603    -2.502144554651     1.007825032230
         H           -4.400297136643     1.572479102603    -2.209993554651     1.007825032230

  Basis Set: AUG-CC-PVTZ
    Blend: AUG-CC-PVTZ
  Basis Set: (AUG-CC-PVTZ AUX)
    Blend: AUG-CC-PVTZ-JKFIT
	 Reference Energy          =   -1327.8540590495817924 [Eh]
	 Singles Energy            =      -0.0000000000000000 [Eh]
	 Same-Spin Energy          =      -1.0150177424427917 [Eh]
	 Opposite-Spin Energy      =      -3.0760811234808947 [Eh]
	 Correlation Energy        =      -4.0910988659236862 [Eh]
	 Total Energy              =   -1331.9451579155054333 [Eh]

	 ================> DF-SCS-MP2 Energies <==================
	-----------------------------------------------------------
	 SCS Same-Spin Scale       =       0.3333333333333333 [-]
	 SCS Opposite-Spin Scale   =       1.2000000000000000 [-]
	 SCS Same-Spin Energy      =      -0.3383392474809306 [Eh]
	 SCS Opposite-Spin Energy  =      -3.6912973481770734 [Eh]
	 SCS Correlation Energy    =      -4.0296365956580038 [Eh]
	 SCS Total Energy          =   -1331.8836956452398681 [Eh]
	-----------------------------------------------------------

  Dipole Moment: [D]
     X:    -1.1857      Y:     1.9975      Z:     0.6466     Total:     2.4112

*** Psi4 exiting successfully. Buy a developer a beer!
