                               Psi4 1.3.2 release

  ==> Input File <==

--------------------------------------------------------------------------
#psi4
#
memory 32 gb

molecule  {
0 1
  P       -2.2900960    -0.9400430     0.3446780
  O       -0.9821530    -0.2015620     0.9382890
  O        1.3422500    -1.6754830     1.2308510
  O        0.0787050     2.3596040     0.4621680
  O        3.0685150    -2.1870720    -0.8085900
  O        2.8473350     2.5031130     0.3715350
  O        4.1956880     0.4353970    -0.9728740
  O       -2.8868851     0.0589283    -0.7549125
  O       -3.3025391    -0.6664822     1.5762743
  O       -2.1189930    -2.3436440    -0.0996680
  C        0.1181620     0.0300090     0.0163190
  C        0.9532920    -1.2442050    -0.0757250
  C        0.8985890     1.2026440     0.5648510
  C        2.2596600    -1.0143070    -0.8180370
  C        2.1770750     1.3964720    -0.2280410
  C        3.0258420     0.1487050    -0.2103220
  C       -3.1242130     1.4315980    -0.4888860
  C       -3.5363170     2.0851650    -1.7841190
  H       -0.2830920     0.2988010    -0.9702380
  H        0.3702690    -2.0293640    -0.5720320
  H        1.1571200     0.9978770     1.6121560
  H        2.0609340    -0.7886600    -1.8727560
  H        1.9169870     1.6362870    -1.2735830
  H        3.2958550    -0.0945320     0.8276460
  H        0.5217750    -1.8880320     1.7115100
  H        0.6655400     3.1093110     0.6831840
  H        2.9735430    -2.5473740     0.0946540
  H        3.7214290     2.5491860    -0.0588690
  H        4.6397270    -0.4238340    -1.0970870
  H       -3.8083950    -1.5223380     1.7347280
  H       -3.9305460     1.4455410     0.2493860
  H       -2.2297620     1.8928800    -0.0590960
  H       -3.8005210     3.1308820    -1.6026710
  H       -2.7171960     2.0533230    -2.5048750
  H       -4.4009440     1.5743230    -2.2127240
units angstrom
no_reorient  #important for SAPT in psi4, default
symmetry c1  #important for SAPT in psi4, default
}

set PROPERTIES_ORIGIN ["COM"]
properties('MP2/aug-cc-pvtz', properties = ['dipole'])
--------------------------------------------------------------------------

    Molecular point group: c1
  Charge       = 0
  Multiplicity = 1
  Basis Set: AUG-CC-PVTZ
    Blend: AUG-CC-PVTZ
  Basis Set: (AUG-CC-PVTZ AUX)
    Blend: AUG-CC-PVTZ-JKFIT

    Orbital Energies [Eh]
    ---------------------

    Doubly Occupied:

       1A    -80.119436     2A    -20.614320     3A    -20.610153
       4A    -20.592748     5A    -20.585056     6A    -20.577500
       7A    -20.575857     8A    -20.574986     9A    -20.573726
      10A    -20.531294    11A    -11.323101    12A    -11.305489
      13A    -11.300719    14A    -11.299765    15A    -11.297605
      16A    -11.292474    17A    -11.290916    18A    -11.225752
      19A     -7.634761    20A     -5.533353    21A     -5.532984
      22A     -5.531602    23A     -1.462480    24A     -1.412795
      25A     -1.396656    26A     -1.394217    27A     -1.384634
      28A     -1.374206    29A     -1.364931    30A     -1.354813
      31A     -1.310324    32A     -1.120494    33A     -1.036906
      34A     -1.013174    35A     -1.004783    36A     -0.881914
      37A     -0.865952    38A     -0.860127    39A     -0.818500
      40A     -0.811886    41A     -0.752683    42A     -0.744984
      43A     -0.732661    44A     -0.729320    45A     -0.706657
      46A     -0.687962    47A     -0.680173    48A     -0.675235
      49A     -0.663152    50A     -0.661839    51A     -0.643764
      52A     -0.636824    53A     -0.626803    54A     -0.616583
      55A     -0.604838    56A     -0.599687    57A     -0.584554
      58A     -0.573582    59A     -0.572312    60A     -0.560818
      61A     -0.557867    62A     -0.548801    63A     -0.539482
      64A     -0.537726    65A     -0.530185    66A     -0.522656
      67A     -0.509681    68A     -0.503921    69A     -0.494341
      70A     -0.486316    71A     -0.484324    72A     -0.471463
      73A     -0.464358    74A     -0.456694    75A     -0.451710
      76A     -0.437776

  @DF-RHF Final Energy: -1327.85659834917396

   => Energetics <=

    Nuclear Repulsion Energy =           1772.7253551212797902
    One-Electron Energy =               -5357.4756632873450144
    Two-Electron Energy =                2256.8937098168912598
    Total Energy =                      -1327.8565983491739644
  Basis Set: (AUG-CC-PVTZ AUX)
    Blend: AUG-CC-PVTZ-RI
    Molecular point group: c1

    Geometry (in Angstrom), charge = 0, multiplicity = 1:

       Center              X                  Y                   Z               Mass
    ------------   -----------------  -----------------  -----------------  -----------------
         P           -2.284352332806    -0.944617064182     0.344276992138    30.973761998420
         O           -0.976409332806    -0.206136064182     0.937887992138    15.994914619570
         O            1.347993667194    -1.680057064182     1.230449992138    15.994914619570
         O            0.084448667194     2.355029935818     0.461766992138    15.994914619570
         O            3.074258667194    -2.191646064182    -0.808991007862    15.994914619570
         O            2.853078667194     2.498538935818     0.371133992138    15.994914619570
         O            4.201431667194     0.430822935818    -0.973275007862    15.994914619570
         O           -2.881141432806     0.054354235818    -0.755313507862    15.994914619570
         O           -3.296795432806    -0.671056264182     1.575873292138    15.994914619570
         O           -2.113249332806    -2.348218064182    -0.100069007862    15.994914619570
         C            0.123905667194     0.025434935818     0.015917992138    12.000000000000
         C            0.959035667194    -1.248779064182    -0.076126007862    12.000000000000
         C            0.904332667194     1.198069935818     0.564449992138    12.000000000000
         C            2.265403667194    -1.018881064182    -0.818438007862    12.000000000000
         C            2.182818667194     1.391897935818    -0.228442007862    12.000000000000
         C            3.031585667194     0.144130935818    -0.210723007862    12.000000000000
         C           -3.118469332806     1.427023935818    -0.489287007862    12.000000000000
         C           -3.530573332806     2.080590935818    -1.784520007862    12.000000000000
         H           -0.277348332806     0.294226935818    -0.970639007862     1.007825032230
         H            0.376012667194    -2.033938064182    -0.572433007862     1.007825032230
         H            1.162863667194     0.993302935818     1.611754992138     1.007825032230
         H            2.066677667194    -0.793234064182    -1.873157007862     1.007825032230
         H            1.922730667194     1.631712935818    -1.273984007862     1.007825032230
         H            3.301598667194    -0.099106064182     0.827244992138     1.007825032230
         H            0.527518667194    -1.892606064182     1.711108992138     1.007825032230
         H            0.671283667194     3.104736935818     0.682782992138     1.007825032230
         H            2.979286667194    -2.551948064182     0.094252992138     1.007825032230
         H            3.727172667194     2.544611935818    -0.059270007862     1.007825032230
         H            4.645470667194    -0.428408064182    -1.097488007862     1.007825032230
         H           -3.802651332806    -1.526912064182     1.734326992138     1.007825032230
         H           -3.924802332806     1.440966935818     0.248984992138     1.007825032230
         H           -2.224018332806     1.888305935818    -0.059497007862     1.007825032230
         H           -3.794777332806     3.126307935818    -1.603072007862     1.007825032230
         H           -2.711452332806     2.048748935818    -2.505276007862     1.007825032230
         H           -4.395200332806     1.569748935818    -2.213125007862     1.007825032230

  Basis Set: AUG-CC-PVTZ
    Blend: AUG-CC-PVTZ
  Basis Set: (AUG-CC-PVTZ AUX)
    Blend: AUG-CC-PVTZ-JKFIT
	 Reference Energy          =   -1327.8565983491739644 [Eh]
	 Singles Energy            =      -0.0000000000000000 [Eh]
	 Same-Spin Energy          =      -1.0150738047335941 [Eh]
	 Opposite-Spin Energy      =      -3.0764488645183579 [Eh]
	 Correlation Energy        =      -4.0915226692519520 [Eh]
	 Total Energy              =   -1331.9481210184258089 [Eh]

	 ================> DF-SCS-MP2 Energies <==================
	-----------------------------------------------------------
	 SCS Same-Spin Scale       =       0.3333333333333333 [-]
	 SCS Opposite-Spin Scale   =       1.2000000000000000 [-]
	 SCS Same-Spin Energy      =      -0.3383579349111980 [Eh]
	 SCS Opposite-Spin Energy  =      -3.6917386374220293 [Eh]
	 SCS Correlation Energy    =      -4.0300965723332274 [Eh]
	 SCS Total Energy          =   -1331.8866949215071145 [Eh]
	-----------------------------------------------------------

  Dipole Moment: [D]
     X:    -0.7656      Y:     1.4950      Z:     0.7788     Total:     1.8515

*** Psi4 exiting successfully. Buy a developer a beer!
