                               Psi4 1.3.2 release

  ==> Input File <==

--------------------------------------------------------------------------
#psi4
#
memory 32 gb

molecule  {
0 1
  P       -2.2900960    -0.9400430     0.3446780
  O       -0.9821530    -0.2015620     0.9382890
  O        1.3422500    -1.6754830     1.2308510
  O        0.0787050     2.3596040     0.4621680
  O        3.0685150    -2.1870720    -0.8085900
  O        2.8473350     2.5031130     0.3715350
  O        4.1956880     0.4353970    -0.9728740
  O       -2.8268630     0.0333510    -0.8075310
  O       -3.2591210    -0.7232820     1.6216710
  O       -2.1189930    -2.3436440    -0.0996680
  C        0.0631927     0.0433753     0.0716617
  C        0.9532920    -1.2442050    -0.0757250
  C        0.8985890     1.2026440     0.5648510
  C        2.2596600    -1.0143070    -0.8180370
  C        2.1944200     1.4580827    -0.1810354
  C        3.0258420     0.1487050    -0.2103220
  C       -3.1242130     1.4315980    -0.4888860
  C       -3.5363170     2.0851650    -1.7841190
  H       -0.2830920     0.2988010    -0.9702380
  H        0.3702690    -2.0293640    -0.5720320
  H        1.1571200     0.9978770     1.6121560
  H        2.0609340    -0.7886600    -1.8727560
  H        1.9169870     1.6362870    -1.2735830
  H        3.2958550    -0.0945320     0.8276460
  H        0.5217750    -1.8880320     1.7115100
  H        0.6655400     3.1093110     0.6831840
  H        2.9735430    -2.5473740     0.0946540
  H        3.7214290     2.5491860    -0.0588690
  H        4.6397270    -0.4238340    -1.0970870
  H       -3.8083950    -1.5223380     1.7347280
  H       -3.9305460     1.4455410     0.2493860
  H       -2.2297620     1.8928800    -0.0590960
  H       -3.8005210     3.1308820    -1.6026710
  H       -2.7171960     2.0533230    -2.5048750
  H       -4.4009440     1.5743230    -2.2127240
units angstrom
no_reorient  #important for SAPT in psi4, default
symmetry c1  #important for SAPT in psi4, default
}

set PROPERTIES_ORIGIN ["COM"]
properties('MP2/aug-cc-pvtz', properties = ['dipole'])
--------------------------------------------------------------------------

    Molecular point group: c1
  Charge       = 0
  Multiplicity = 1
  Basis Set: AUG-CC-PVTZ
    Blend: AUG-CC-PVTZ
  Basis Set: (AUG-CC-PVTZ AUX)
    Blend: AUG-CC-PVTZ-JKFIT

    Orbital Energies [Eh]
    ---------------------

    Doubly Occupied:

       1A    -80.122223     2A    -20.618189     3A    -20.615049
       4A    -20.601381     5A    -20.583995     6A    -20.579237
       7A    -20.572559     8A    -20.571178     9A    -20.569924
      10A    -20.526589    11A    -11.319371    12A    -11.300623
      13A    -11.299833    14A    -11.298127    15A    -11.296171
      16A    -11.293841    17A    -11.288105    18A    -11.230331
      19A     -7.637600    20A     -5.536121    21A     -5.535754
      22A     -5.534480    23A     -1.473925    24A     -1.421489
      25A     -1.412858    26A     -1.395688    27A     -1.389619
      28A     -1.373149    29A     -1.368281    30A     -1.354844
      31A     -1.307267    32A     -1.104531    33A     -1.041493
      34A     -1.005129    35A     -0.995629    36A     -0.887117
      37A     -0.866567    38A     -0.854445    39A     -0.827320
      40A     -0.804273    41A     -0.754010    42A     -0.747825
      43A     -0.740041    44A     -0.728731    45A     -0.713083
      46A     -0.686148    47A     -0.677166    48A     -0.673212
      49A     -0.665763    50A     -0.662259    51A     -0.653848
      52A     -0.640148    53A     -0.629304    54A     -0.616120
      55A     -0.612401    56A     -0.595254    57A     -0.581456
      58A     -0.579006    59A     -0.573667    60A     -0.564121
      61A     -0.554176    62A     -0.548407    63A     -0.542356
      64A     -0.534615    65A     -0.528714    66A     -0.521039
      67A     -0.513122    68A     -0.500987    69A     -0.498248
      70A     -0.481682    71A     -0.480554    72A     -0.476431
      73A     -0.454719    74A     -0.441144    75A     -0.437198
      76A     -0.432172

  @DF-RHF Final Energy: -1327.85202759320532

   => Energetics <=

    Nuclear Repulsion Energy =           1772.6009261505448649
    One-Electron Energy =               -5357.1990513506598290
    Two-Electron Energy =                2256.7460976069096432
    Total Energy =                      -1327.8520275932050936
  Basis Set: (AUG-CC-PVTZ AUX)
    Blend: AUG-CC-PVTZ-RI
    Molecular point group: c1

    Geometry (in Angstrom), charge = 0, multiplicity = 1:

       Center              X                  Y                   Z               Mass
    ------------   -----------------  -----------------  -----------------  -----------------
         P           -2.288528620076    -0.943166362236     0.340414381609    30.973761998420
         O           -0.980585620076    -0.204685362236     0.934025381609    15.994914619570
         O            1.343817379924    -1.678606362236     1.226587381609    15.994914619570
         O            0.080272379924     2.356480637764     0.457904381609    15.994914619570
         O            3.070082379924    -2.190195362236    -0.812853618391    15.994914619570
         O            2.848902379924     2.499989637764     0.367271381609    15.994914619570
         O            4.197255379924     0.432273637764    -0.977137618391    15.994914619570
         O           -2.825295620076     0.030227637764    -0.811794618391    15.994914619570
         O           -3.257553620076    -0.726405362236     1.617407381609    15.994914619570
         O           -2.117425620076    -2.346767362236    -0.103931618391    15.994914619570
         C            0.064760079924     0.040251937764     0.067398081609    12.000000000000
         C            0.954859379924    -1.247328362236    -0.079988618391    12.000000000000
         C            0.900156379924     1.199520637764     0.560587381609    12.000000000000
         C            2.261227379924    -1.017430362236    -0.822300618391    12.000000000000
         C            2.195987379924     1.454959337764    -0.185299018391    12.000000000000
         C            3.027409379924     0.145581637764    -0.214585618391    12.000000000000
         C           -3.122645620076     1.428474637764    -0.493149618391    12.000000000000
         C           -3.534749620076     2.082041637764    -1.788382618391    12.000000000000
         H           -0.281524620076     0.295677637764    -0.974501618391     1.007825032230
         H            0.371836379924    -2.032487362236    -0.576295618391     1.007825032230
         H            1.158687379924     0.994753637764     1.607892381609     1.007825032230
         H            2.062501379924    -0.791783362236    -1.877019618391     1.007825032230
         H            1.918554379924     1.633163637764    -1.277846618391     1.007825032230
         H            3.297422379924    -0.097655362236     0.823382381609     1.007825032230
         H            0.523342379924    -1.891155362236     1.707246381609     1.007825032230
         H            0.667107379924     3.106187637764     0.678920381609     1.007825032230
         H            2.975110379924    -2.550497362236     0.090390381609     1.007825032230
         H            3.722996379924     2.546062637764    -0.063132618391     1.007825032230
         H            4.641294379924    -0.426957362236    -1.101350618391     1.007825032230
         H           -3.806827620076    -1.525461362236     1.730464381609     1.007825032230
         H           -3.928978620076     1.442417637764     0.245122381609     1.007825032230
         H           -2.228194620076     1.889756637764    -0.063359618391     1.007825032230
         H           -3.798953620076     3.127758637764    -1.606934618391     1.007825032230
         H           -2.715628620076     2.050199637764    -2.509138618391     1.007825032230
         H           -4.399376620076     1.571199637764    -2.216987618391     1.007825032230

  Basis Set: AUG-CC-PVTZ
    Blend: AUG-CC-PVTZ
  Basis Set: (AUG-CC-PVTZ AUX)
    Blend: AUG-CC-PVTZ-JKFIT
	 Reference Energy          =   -1327.8520275932053210 [Eh]
	 Singles Energy            =      -0.0000000000000000 [Eh]
	 Same-Spin Energy          =      -1.0143438754658354 [Eh]
	 Opposite-Spin Energy      =      -3.0745789654012858 [Eh]
	 Correlation Energy        =      -4.0889228408671210 [Eh]
	 Total Energy              =   -1331.9409504340724197 [Eh]

	 ================> DF-SCS-MP2 Energies <==================
	-----------------------------------------------------------
	 SCS Same-Spin Scale       =       0.3333333333333333 [-]
	 SCS Opposite-Spin Scale   =       1.2000000000000000 [-]
	 SCS Same-Spin Energy      =      -0.3381146251552785 [Eh]
	 SCS Opposite-Spin Energy  =      -3.6894947584815427 [Eh]
	 SCS Correlation Energy    =      -4.0276093836368210 [Eh]
	 SCS Total Energy          =   -1331.8796369768422210 [Eh]
	-----------------------------------------------------------

  Dipole Moment: [D]
     X:    -1.3144      Y:     2.0215      Z:     0.9291     Total:     2.5840

*** Psi4 exiting successfully. Buy a developer a beer!
