                               Psi4 1.3.2 release

  ==> Input File <==

--------------------------------------------------------------------------
#psi4
#
memory 32 gb

molecule  {
0 1
  P       -2.2900960    -0.9400430     0.3446780
  O       -0.9821530    -0.2015620     0.9382890
  O        1.3422500    -1.6754830     1.2308510
  O        0.0787050     2.3596040     0.4621680
  O        3.0685150    -2.1870720    -0.8085900
  O        2.8473350     2.5031130     0.3715350
  O        4.1956880     0.4353970    -0.9728740
  O       -2.8268630     0.0333510    -0.8075310
  O       -3.2591210    -0.7232820     1.6216710
  O       -2.1189930    -2.3436440    -0.0996680
  C        0.1181620     0.0300090     0.0163190
  C        0.9532920    -1.2442050    -0.0757250
  C        0.8985890     1.2026440     0.5648510
  C        2.2596600    -1.0143070    -0.8180370
  C        2.1184167     1.4107178    -0.1841132
  C        3.0258420     0.1487050    -0.2103220
  C       -3.1242130     1.4315980    -0.4888860
  C       -3.5363170     2.0851650    -1.7841190
  H       -0.2830920     0.2988010    -0.9702380
  H        0.3702690    -2.0293640    -0.5720320
  H        1.1571200     0.9978770     1.6121560
  H        2.0609340    -0.7886600    -1.8727560
  H        1.9169870     1.6362870    -1.2735830
  H        3.2958550    -0.0945320     0.8276460
  H        0.5217750    -1.8880320     1.7115100
  H        0.6655400     3.1093110     0.6831840
  H        2.9735430    -2.5473740     0.0946540
  H        3.7322204     2.5896135    -0.0295960
  H        4.6397270    -0.4238340    -1.0970870
  H       -3.8083950    -1.5223380     1.7347280
  H       -3.9305460     1.4455410     0.2493860
  H       -2.2297620     1.8928800    -0.0590960
  H       -3.8005210     3.1308820    -1.6026710
  H       -2.7171960     2.0533230    -2.5048750
  H       -4.4009440     1.5743230    -2.2127240
units angstrom
no_reorient  #important for SAPT in psi4, default
symmetry c1  #important for SAPT in psi4, default
}

set PROPERTIES_ORIGIN ["COM"]
properties('MP2/aug-cc-pvtz', properties = ['dipole'])
--------------------------------------------------------------------------

    Molecular point group: c1
  Charge       = 0
  Multiplicity = 1
  Basis Set: AUG-CC-PVTZ
    Blend: AUG-CC-PVTZ
  Basis Set: (AUG-CC-PVTZ AUX)
    Blend: AUG-CC-PVTZ-JKFIT

    Orbital Energies [Eh]
    ---------------------

    Doubly Occupied:

       1A    -80.117614     2A    -20.615239     3A    -20.608255
       4A    -20.599390     5A    -20.583199     6A    -20.574020
       7A    -20.573825     8A    -20.573523     9A    -20.573248
      10A    -20.523902    11A    -11.322915    12A    -11.303619
      13A    -11.299692    14A    -11.299435    15A    -11.297818
      16A    -11.296862    17A    -11.292634    18A    -11.230034
      19A     -7.633054    20A     -5.531559    21A     -5.531192
      22A     -5.529982    23A     -1.461054    24A     -1.410823
      25A     -1.393650    26A     -1.393265    27A     -1.387267
      28A     -1.372977    29A     -1.362616    30A     -1.352361
      31A     -1.304298    32A     -1.122369    33A     -1.040676
      34A     -1.011303    35A     -1.007510    36A     -0.884130
      37A     -0.866066    38A     -0.855657    39A     -0.823662
      40A     -0.809724    41A     -0.752098    42A     -0.743528
      43A     -0.731214    44A     -0.729831    45A     -0.710551
      46A     -0.687521    47A     -0.677611    48A     -0.673804
      49A     -0.664104    50A     -0.660144    51A     -0.646427
      52A     -0.636413    53A     -0.627046    54A     -0.614244
      55A     -0.605034    56A     -0.597708    57A     -0.581525
      58A     -0.575899    59A     -0.571435    60A     -0.558308
      61A     -0.552744    62A     -0.549636    63A     -0.541166
      64A     -0.532824    65A     -0.530550    66A     -0.524639
      67A     -0.511898    68A     -0.503704    69A     -0.498480
      70A     -0.485808    71A     -0.480351    72A     -0.476966
      73A     -0.467296    74A     -0.452279    75A     -0.443940
      76A     -0.433875

  @DF-RHF Final Energy: -1327.85511027581720

   => Energetics <=

    Nuclear Repulsion Energy =           1772.9488515222374190
    One-Electron Energy =               -5358.0058829088338825
    Two-Electron Energy =                2257.2019211107794945
    Total Energy =                      -1327.8551102758169691
  Basis Set: (AUG-CC-PVTZ AUX)
    Blend: AUG-CC-PVTZ-RI
    Molecular point group: c1

    Geometry (in Angstrom), charge = 0, multiplicity = 1:

       Center              X                  Y                   Z               Mass
    ------------   -----------------  -----------------  -----------------  -----------------
         P           -2.287690144403    -0.940777873312     0.342745637465    30.973761998420
         O           -0.979747144403    -0.202296873312     0.936356637465    15.994914619570
         O            1.344655855597    -1.676217873312     1.228918637465    15.994914619570
         O            0.081110855597     2.358869126688     0.460235637465    15.994914619570
         O            3.070920855597    -2.187806873312    -0.810522362535    15.994914619570
         O            2.849740855597     2.502378126688     0.369602637465    15.994914619570
         O            4.198093855597     0.434662126688    -0.974806362535    15.994914619570
         O           -2.824457144403     0.032616126688    -0.809463362535    15.994914619570
         O           -3.256715144403    -0.724016873312     1.619738637465    15.994914619570
         O           -2.116587144403    -2.344378873312    -0.101600362535    15.994914619570
         C            0.120567855597     0.029274126688     0.014386637465    12.000000000000
         C            0.955697855597    -1.244939873312    -0.077657362535    12.000000000000
         C            0.900994855597     1.201909126688     0.562918637465    12.000000000000
         C            2.262065855597    -1.015041873312    -0.819969362535    12.000000000000
         C            2.120822555597     1.409982926688    -0.186045562535    12.000000000000
         C            3.028247855597     0.147970126688    -0.212254362535    12.000000000000
         C           -3.121807144403     1.430863126688    -0.490818362535    12.000000000000
         C           -3.533911144403     2.084430126688    -1.786051362535    12.000000000000
         H           -0.280686144403     0.298066126688    -0.972170362535     1.007825032230
         H            0.372674855597    -2.030098873312    -0.573964362535     1.007825032230
         H            1.159525855597     0.997142126688     1.610223637465     1.007825032230
         H            2.063339855597    -0.789394873312    -1.874688362535     1.007825032230
         H            1.919392855597     1.635552126688    -1.275515362535     1.007825032230
         H            3.298260855597    -0.095266873312     0.825713637465     1.007825032230
         H            0.524180855597    -1.888766873312     1.709577637465     1.007825032230
         H            0.667945855597     3.108576126688     0.681251637465     1.007825032230
         H            2.975948855597    -2.548108873312     0.092721637465     1.007825032230
         H            3.734626255597     2.588878626688    -0.031528362535     1.007825032230
         H            4.642132855597    -0.424568873312    -1.099019362535     1.007825032230
         H           -3.805989144403    -1.523072873312     1.732795637465     1.007825032230
         H           -3.928140144403     1.444806126688     0.247453637465     1.007825032230
         H           -2.227356144403     1.892145126688    -0.061028362535     1.007825032230
         H           -3.798115144403     3.130147126688    -1.604603362535     1.007825032230
         H           -2.714790144403     2.052588126688    -2.506807362535     1.007825032230
         H           -4.398538144403     1.573588126688    -2.214656362535     1.007825032230

  Basis Set: AUG-CC-PVTZ
    Blend: AUG-CC-PVTZ
  Basis Set: (AUG-CC-PVTZ AUX)
    Blend: AUG-CC-PVTZ-JKFIT
	 Reference Energy          =   -1327.8551102758171965 [Eh]
	 Singles Energy            =      -0.0000000000000000 [Eh]
	 Same-Spin Energy          =      -1.0147283523625814 [Eh]
	 Opposite-Spin Energy      =      -3.0760307071568929 [Eh]
	 Correlation Energy        =      -4.0907590595194741 [Eh]
	 Total Energy              =   -1331.9458693353367380 [Eh]

	 ================> DF-SCS-MP2 Energies <==================
	-----------------------------------------------------------
	 SCS Same-Spin Scale       =       0.3333333333333333 [-]
	 SCS Opposite-Spin Scale   =       1.2000000000000000 [-]
	 SCS Same-Spin Energy      =      -0.3382427841208605 [Eh]
	 SCS Opposite-Spin Energy  =      -3.6912368485882712 [Eh]
	 SCS Correlation Energy    =      -4.0294796327091316 [Eh]
	 SCS Total Energy          =   -1331.8845899085263227 [Eh]
	-----------------------------------------------------------

  Dipole Moment: [D]
     X:    -1.1556      Y:     1.9108      Z:     0.7832     Total:     2.3664

*** Psi4 exiting successfully. Buy a developer a beer!
