                               Psi4 1.3.2 release

  ==> Input File <==

--------------------------------------------------------------------------
#psi4
#
memory 32 gb

molecule  {
0 1
  P       -2.2900960    -0.9400430     0.3446780
  O       -0.9821530    -0.2015620     0.9382890
  O        1.3422500    -1.6754830     1.2308510
  O        0.0787050     2.3596040     0.4621680
  O        3.0685150    -2.1870720    -0.8085900
  O        2.8473350     2.5031130     0.3715350
  O        4.1956880     0.4353970    -0.9728740
  O       -2.8268630     0.0333510    -0.8075310
  O       -3.2591210    -0.7232820     1.6216710
  O       -2.1189930    -2.3436440    -0.0996680
  C        0.1181620     0.0300090     0.0163190
  C        0.9532920    -1.2442050    -0.0757250
  C        0.8847673     1.2523471     0.5529470
  C        2.2596600    -1.0143070    -0.8180370
  C        2.1770750     1.3964720    -0.2280410
  C        3.0614413     0.1736096    -0.2401113
  C       -3.1242130     1.4315980    -0.4888860
  C       -3.5363170     2.0851650    -1.7841190
  H       -0.2830920     0.2988010    -0.9702380
  H        0.3702690    -2.0293640    -0.5720320
  H        1.1571200     0.9978770     1.6121560
  H        2.0609340    -0.7886600    -1.8727560
  H        1.9169870     1.6362870    -1.2735830
  H        3.2958550    -0.0945320     0.8276460
  H        0.5217750    -1.8880320     1.7115100
  H        0.6655400     3.1093110     0.6831840
  H        2.9735430    -2.5473740     0.0946540
  H        3.7214290     2.5491860    -0.0588690
  H        4.6397270    -0.4238340    -1.0970870
  H       -3.8083950    -1.5223380     1.7347280
  H       -3.9305460     1.4455410     0.2493860
  H       -2.2297620     1.8928800    -0.0590960
  H       -3.8005210     3.1308820    -1.6026710
  H       -2.7171960     2.0533230    -2.5048750
  H       -4.4009440     1.5743230    -2.2127240
units angstrom
no_reorient  #important for SAPT in psi4, default
symmetry c1  #important for SAPT in psi4, default
}

set PROPERTIES_ORIGIN ["COM"]
properties('MP2/aug-cc-pvtz', properties = ['dipole'])
--------------------------------------------------------------------------

    Molecular point group: c1
  Charge       = 0
  Multiplicity = 1
  Basis Set: AUG-CC-PVTZ
    Blend: AUG-CC-PVTZ
  Basis Set: (AUG-CC-PVTZ AUX)
    Blend: AUG-CC-PVTZ-JKFIT

    Orbital Energies [Eh]
    ---------------------

    Doubly Occupied:

       1A    -80.116089     2A    -20.614114     3A    -20.605571
       4A    -20.598515     5A    -20.580825     6A    -20.579565
       7A    -20.579259     8A    -20.575069     9A    -20.573211
      10A    -20.522626    11A    -11.318995    12A    -11.302494
      13A    -11.299866    14A    -11.299755    15A    -11.297518
      16A    -11.294081    17A    -11.292397    18A    -11.230102
      19A     -7.631543    20A     -5.530047    21A     -5.529673
      22A     -5.528475    23A     -1.459369    24A     -1.416706
      25A     -1.403566    26A     -1.398742    27A     -1.386951
      28A     -1.380099    29A     -1.367508    30A     -1.358348
      31A     -1.303033    32A     -1.110928    33A     -1.040567
      34A     -1.007161    35A     -0.998696    36A     -0.879668
      37A     -0.864957    38A     -0.858903    39A     -0.821782
      40A     -0.806130    41A     -0.756836    42A     -0.745718
      43A     -0.732530    44A     -0.727907    45A     -0.706115
      46A     -0.692417    47A     -0.678745    48A     -0.675232
      49A     -0.667650    50A     -0.660318    51A     -0.644362
      52A     -0.638848    53A     -0.627259    54A     -0.616205
      55A     -0.605242    56A     -0.600723    57A     -0.585671
      58A     -0.575254    59A     -0.570875    60A     -0.560669
      61A     -0.559154    62A     -0.548638    63A     -0.541026
      64A     -0.538194    65A     -0.530174    66A     -0.518769
      67A     -0.513077    68A     -0.502675    69A     -0.495019
      70A     -0.481617    71A     -0.479180    72A     -0.475783
      73A     -0.459119    74A     -0.451584    75A     -0.444815
      76A     -0.427352

  @DF-RHF Final Energy: -1327.85744674029706

   => Energetics <=

    Nuclear Repulsion Energy =           1771.8024344847528937
    One-Electron Energy =               -5355.7244472062602654
    Two-Electron Energy =                2256.0645659812107624
    Total Energy =                      -1327.8574467402968367
  Basis Set: (AUG-CC-PVTZ AUX)
    Blend: AUG-CC-PVTZ-RI
    Molecular point group: c1

    Geometry (in Angstrom), charge = 0, multiplicity = 1:

       Center              X                  Y                   Z               Mass
    ------------   -----------------  -----------------  -----------------  -----------------
         P           -2.291003174954    -0.943150977995     0.346414843613    30.973761998420
         O           -0.983060174954    -0.204669977995     0.940025843613    15.994914619570
         O            1.341342825046    -1.678590977995     1.232587843613    15.994914619570
         O            0.077797825046     2.356496022005     0.463904843613    15.994914619570
         O            3.067607825046    -2.190179977995    -0.806853156387    15.994914619570
         O            2.846427825046     2.500005022005     0.373271843613    15.994914619570
         O            4.194780825046     0.432289022005    -0.971137156387    15.994914619570
         O           -2.827770174954     0.030243022005    -0.805794156387    15.994914619570
         O           -3.260028174954    -0.726389977995     1.623407843613    15.994914619570
         O           -2.119900174954    -2.346751977995    -0.097931156387    15.994914619570
         C            0.117254825046     0.026901022005     0.018055843613    12.000000000000
         C            0.952384825046    -1.247312977995    -0.073988156387    12.000000000000
         C            0.883860125046     1.249239122005     0.554683843613    12.000000000000
         C            2.258752825046    -1.017414977995    -0.816300156387    12.000000000000
         C            2.176167825046     1.393364022005    -0.226304156387    12.000000000000
         C            3.060534125046     0.170501622005    -0.238374456387    12.000000000000
         C           -3.125120174954     1.428490022005    -0.487149156387    12.000000000000
         C           -3.537224174954     2.082057022005    -1.782382156387    12.000000000000
         H           -0.283999174954     0.295693022005    -0.968501156387     1.007825032230
         H            0.369361825046    -2.032471977995    -0.570295156387     1.007825032230
         H            1.156212825046     0.994769022005     1.613892843613     1.007825032230
         H            2.060026825046    -0.791767977995    -1.871019156387     1.007825032230
         H            1.916079825046     1.633179022005    -1.271846156387     1.007825032230
         H            3.294947825046    -0.097639977995     0.829382843613     1.007825032230
         H            0.520867825046    -1.891139977995     1.713246843613     1.007825032230
         H            0.664632825046     3.106203022005     0.684920843613     1.007825032230
         H            2.972635825046    -2.550481977995     0.096390843613     1.007825032230
         H            3.720521825046     2.546078022005    -0.057132156387     1.007825032230
         H            4.638819825046    -0.426941977995    -1.095350156387     1.007825032230
         H           -3.809302174954    -1.525445977995     1.736464843613     1.007825032230
         H           -3.931453174954     1.442433022005     0.251122843613     1.007825032230
         H           -2.230669174954     1.889772022005    -0.057359156387     1.007825032230
         H           -3.801428174954     3.127774022005    -1.600934156387     1.007825032230
         H           -2.718103174954     2.050215022005    -2.503138156387     1.007825032230
         H           -4.401851174954     1.571215022005    -2.210987156387     1.007825032230

  Basis Set: AUG-CC-PVTZ
    Blend: AUG-CC-PVTZ
  Basis Set: (AUG-CC-PVTZ AUX)
    Blend: AUG-CC-PVTZ-JKFIT
	 Reference Energy          =   -1327.8574467402970640 [Eh]
	 Singles Energy            =      -0.0000000000000000 [Eh]
	 Same-Spin Energy          =      -1.0144042840617127 [Eh]
	 Opposite-Spin Energy      =      -3.0747465718631219 [Eh]
	 Correlation Energy        =      -4.0891508559248351 [Eh]
	 Total Energy              =   -1331.9465975962218636 [Eh]

	 ================> DF-SCS-MP2 Energies <==================
	-----------------------------------------------------------
	 SCS Same-Spin Scale       =       0.3333333333333333 [-]
	 SCS Opposite-Spin Scale   =       1.2000000000000000 [-]
	 SCS Same-Spin Energy      =      -0.3381347613539042 [Eh]
	 SCS Opposite-Spin Energy  =      -3.6896958862357461 [Eh]
	 SCS Correlation Energy    =      -4.0278306475896501 [Eh]
	 SCS Total Energy          =   -1331.8852773878866174 [Eh]
	-----------------------------------------------------------

  Dipole Moment: [D]
     X:    -1.0481      Y:     2.0513      Z:     0.6162     Total:     2.3845

*** Psi4 exiting successfully. Buy a developer a beer!
