                               Psi4 1.3.2 release

  ==> Input File <==

--------------------------------------------------------------------------
#psi4
#
memory 32 gb

molecule  {
0 1
  P       -2.2900960    -0.9400430     0.3446780
  O       -0.9821530    -0.2015620     0.9382890
  O        1.3422500    -1.6754830     1.2308510
  O        0.0787050     2.3596040     0.4621680
  O        3.0685150    -2.1870720    -0.8085900
  O        2.8473350     2.5031130     0.3715350
  O        4.1956880     0.4353970    -0.9728740
  O       -2.8268630     0.0333510    -0.8075310
  O       -3.2591210    -0.7232820     1.6216710
  O       -2.1189930    -2.3436440    -0.0996680
  C        0.1181620     0.0300090     0.0163190
  C        0.9532920    -1.2442050    -0.0757250
  C        0.8985890     1.2026440     0.5648510
  C        2.2619731    -1.0274915    -0.7951428
  C        2.1770750     1.3964720    -0.2280410
  C        3.0258420     0.1487050    -0.2103220
  C       -3.1242130     1.4315980    -0.4888860
  C       -3.5363170     2.0851650    -1.7841190
  H       -0.2830920     0.2988010    -0.9702380
  H        0.3702690    -2.0293640    -0.5720320
  H        1.1571200     0.9978770     1.6121560
  H        2.0609340    -0.7886600    -1.8727560
  H        1.9169870     1.6362870    -1.2735830
  H        3.2872128    -0.1115624     0.8257258
  H        0.5217750    -1.8880320     1.7115100
  H        0.6655400     3.1093110     0.6831840
  H        2.9735430    -2.5473740     0.0946540
  H        3.7214290     2.5491860    -0.0588690
  H        4.6397270    -0.4238340    -1.0970870
  H       -3.8083950    -1.5223380     1.7347280
  H       -3.9305460     1.4455410     0.2493860
  H       -2.2297620     1.8928800    -0.0590960
  H       -3.8005210     3.1308820    -1.6026710
  H       -2.7171960     2.0533230    -2.5048750
  H       -4.4009440     1.5743230    -2.2127240
units angstrom
no_reorient  #important for SAPT in psi4, default
symmetry c1  #important for SAPT in psi4, default
}

set PROPERTIES_ORIGIN ["COM"]
properties('MP2/aug-cc-pvtz', properties = ['dipole'])
--------------------------------------------------------------------------

    Molecular point group: c1
  Charge       = 0
  Multiplicity = 1
  Basis Set: AUG-CC-PVTZ
    Blend: AUG-CC-PVTZ
  Basis Set: (AUG-CC-PVTZ AUX)
    Blend: AUG-CC-PVTZ-JKFIT

    Orbital Energies [Eh]
    ---------------------

    Doubly Occupied:

       1A    -80.117086     2A    -20.614843     3A    -20.607379
       4A    -20.598999     5A    -20.583032     6A    -20.576764
       7A    -20.576678     8A    -20.574668     9A    -20.573437
      10A    -20.523570    11A    -11.321131    12A    -11.303107
      13A    -11.299603    14A    -11.299406    15A    -11.298622
      16A    -11.296791    17A    -11.291147    18A    -11.229843
      19A     -7.632537    20A     -5.531043    21A     -5.530670
      22A     -5.529468    23A     -1.460467    24A     -1.412290
      25A     -1.395280    26A     -1.394348    27A     -1.386995
      28A     -1.372941    29A     -1.365955    30A     -1.354962
      31A     -1.303964    32A     -1.119168    33A     -1.040464
      34A     -1.011882    35A     -1.004069    36A     -0.880920
      37A     -0.865157    38A     -0.858188    39A     -0.822165
      40A     -0.809885    41A     -0.752881    42A     -0.746012
      43A     -0.731800    44A     -0.728839    45A     -0.708078
      46A     -0.687393    47A     -0.679000    48A     -0.674009
      49A     -0.662093    50A     -0.660938    51A     -0.643376
      52A     -0.634773    53A     -0.628245    54A     -0.615784
      55A     -0.603554    56A     -0.598845    57A     -0.581677
      58A     -0.575425    59A     -0.571651    60A     -0.559387
      61A     -0.556095    62A     -0.548627    63A     -0.541493
      64A     -0.536930    65A     -0.528901    66A     -0.521068
      67A     -0.512984    68A     -0.504395    69A     -0.497084
      70A     -0.485250    71A     -0.479963    72A     -0.476724
      73A     -0.462684    74A     -0.456472    75A     -0.450352
      76A     -0.435033

  @DF-RHF Final Energy: -1327.86014190127298

   => Energetics <=

    Nuclear Repulsion Energy =           1772.7262815472490729
    One-Electron Energy =               -5357.5593662632372798
    Two-Electron Energy =                2256.9729428147152248
    Total Energy =                      -1327.8601419012729821
  Basis Set: (AUG-CC-PVTZ AUX)
    Blend: AUG-CC-PVTZ-RI
    Molecular point group: c1

    Geometry (in Angstrom), charge = 0, multiplicity = 1:

       Center              X                  Y                   Z               Mass
    ------------   -----------------  -----------------  -----------------  -----------------
         P           -2.290162089873    -0.939434161098     0.343730985947    30.973761998420
         O           -0.982219089873    -0.200953161098     0.937341985947    15.994914619570
         O            1.342183910127    -1.674874161098     1.229903985947    15.994914619570
         O            0.078638910127     2.360212838902     0.461220985947    15.994914619570
         O            3.068448910127    -2.186463161098    -0.809537014053    15.994914619570
         O            2.847268910127     2.503721838902     0.370587985947    15.994914619570
         O            4.195621910127     0.436005838902    -0.973821014053    15.994914619570
         O           -2.826929089873     0.033959838902    -0.808478014053    15.994914619570
         O           -3.259187089873    -0.722673161098     1.620723985947    15.994914619570
         O           -2.119059089873    -2.343035161098    -0.100615014053    15.994914619570
         C            0.118095910127     0.030617838902     0.015371985947    12.000000000000
         C            0.953225910127    -1.243596161098    -0.076672014053    12.000000000000
         C            0.898522910127     1.203252838902     0.563903985947    12.000000000000
         C            2.261907010127    -1.026882661098    -0.796089814053    12.000000000000
         C            2.177008910127     1.397080838902    -0.228988014053    12.000000000000
         C            3.025775910127     0.149313838902    -0.211269014053    12.000000000000
         C           -3.124279089873     1.432206838902    -0.489833014053    12.000000000000
         C           -3.536383089873     2.085773838902    -1.785066014053    12.000000000000
         H           -0.283158089873     0.299409838902    -0.971185014053     1.007825032230
         H            0.370202910127    -2.028755161098    -0.572979014053     1.007825032230
         H            1.157053910127     0.998485838902     1.611208985947     1.007825032230
         H            2.060867910127    -0.788051161098    -1.873703014053     1.007825032230
         H            1.916920910127     1.636895838902    -1.274530014053     1.007825032230
         H            3.287146710127    -0.110953561098     0.824778785947     1.007825032230
         H            0.521708910127    -1.887423161098     1.710562985947     1.007825032230
         H            0.665473910127     3.109919838902     0.682236985947     1.007825032230
         H            2.973476910127    -2.546765161098     0.093706985947     1.007825032230
         H            3.721362910127     2.549794838902    -0.059816014053     1.007825032230
         H            4.639660910127    -0.423225161098    -1.098034014053     1.007825032230
         H           -3.808461089873    -1.521729161098     1.733780985947     1.007825032230
         H           -3.930612089873     1.446149838902     0.248438985947     1.007825032230
         H           -2.229828089873     1.893488838902    -0.060043014053     1.007825032230
         H           -3.800587089873     3.131490838902    -1.603618014053     1.007825032230
         H           -2.717262089873     2.053931838902    -2.505822014053     1.007825032230
         H           -4.401010089873     1.574931838902    -2.213671014053     1.007825032230

  Basis Set: AUG-CC-PVTZ
    Blend: AUG-CC-PVTZ
  Basis Set: (AUG-CC-PVTZ AUX)
    Blend: AUG-CC-PVTZ-JKFIT
	 Reference Energy          =   -1327.8601419012729821 [Eh]
	 Singles Energy            =      -0.0000000000000000 [Eh]
	 Same-Spin Energy          =      -1.0148066879092914 [Eh]
	 Opposite-Spin Energy      =      -3.0762663456031056 [Eh]
	 Correlation Energy        =      -4.0910730335123970 [Eh]
	 Total Energy              =   -1331.9512149347854120 [Eh]

	 ================> DF-SCS-MP2 Energies <==================
	-----------------------------------------------------------
	 SCS Same-Spin Scale       =       0.3333333333333333 [-]
	 SCS Opposite-Spin Scale   =       1.2000000000000000 [-]
	 SCS Same-Spin Energy      =      -0.3382688959697638 [Eh]
	 SCS Opposite-Spin Energy  =      -3.6915196147237266 [Eh]
	 SCS Correlation Energy    =      -4.0297885106934901 [Eh]
	 SCS Total Energy          =   -1331.8899304119663611 [Eh]
	-----------------------------------------------------------

  Dipole Moment: [D]
     X:    -1.1045      Y:     1.8196      Z:     0.7435     Total:     2.2547

*** Psi4 exiting successfully. Buy a developer a beer!
