                               Psi4 1.3.2 release

  ==> Input File <==

--------------------------------------------------------------------------
#psi4
#
memory 32 gb

molecule  {
0 1
  P       -2.2900960    -0.9400430     0.3446780
  O       -0.9821530    -0.2015620     0.9382890
  O        1.3422500    -1.6754830     1.2308510
  O        0.0787050     2.3596040     0.4621680
  O        3.0685150    -2.1870720    -0.8085900
  O        2.8473350     2.5031130     0.3715350
  O        4.1956880     0.4353970    -0.9728740
  O       -2.8633077     0.0190443    -0.7746599
  O       -3.2591210    -0.7232820     1.6216710
  O       -2.1189930    -2.3436440    -0.0996680
  C        0.1181620     0.0300090     0.0163190
  C        0.9532920    -1.2442050    -0.0757250
  C        0.8985890     1.2026440     0.5648510
  C        2.2596600    -1.0143070    -0.8180370
  C        2.1770750     1.3964720    -0.2280410
  C        3.0258420     0.1487050    -0.2103220
  C       -3.1242130     1.4315980    -0.4888860
  C       -3.5363170     2.0851650    -1.7841190
  H       -0.2830920     0.2988010    -0.9702380
  H        0.3702690    -2.0293640    -0.5720320
  H        1.1571200     0.9978770     1.6121560
  H        2.0609340    -0.7886600    -1.8727560
  H        1.9169870     1.6362870    -1.2735830
  H        3.2958550    -0.0945320     0.8276460
  H        0.5217750    -1.8880320     1.7115100
  H        0.6655400     3.1093110     0.6831840
  H        2.9735430    -2.5473740     0.0946540
  H        3.7214290     2.5491860    -0.0588690
  H        4.6397270    -0.4238340    -1.0970870
  H       -3.8083950    -1.5223380     1.7347280
  H       -3.9310465     1.4073898     0.2485735
  H       -2.2297620     1.8928800    -0.0590960
  H       -3.8005210     3.1308820    -1.6026710
  H       -2.7171960     2.0533230    -2.5048750
  H       -4.4009440     1.5743230    -2.2127240
units angstrom
no_reorient  #important for SAPT in psi4, default
symmetry c1  #important for SAPT in psi4, default
}

set PROPERTIES_ORIGIN ["COM"]
properties('MP2/aug-cc-pvtz', properties = ['dipole'])
--------------------------------------------------------------------------

    Molecular point group: c1
  Charge       = 0
  Multiplicity = 1
  Basis Set: AUG-CC-PVTZ
    Blend: AUG-CC-PVTZ
  Basis Set: (AUG-CC-PVTZ AUX)
    Blend: AUG-CC-PVTZ-JKFIT

    Orbital Energies [Eh]
    ---------------------

    Doubly Occupied:

       1A    -80.114146     2A    -20.610717     3A    -20.607193
       4A    -20.597537     5A    -20.583297     6A    -20.577128
       7A    -20.574807     8A    -20.574347     9A    -20.574039
      10A    -20.522016    11A    -11.321493    12A    -11.303794
      13A    -11.300903    14A    -11.299610    15A    -11.299100
      16A    -11.297072    17A    -11.291720    18A    -11.231549
      19A     -7.629973    20A     -5.528474    21A     -5.528173
      22A     -5.526890    23A     -1.461420    24A     -1.411312
      25A     -1.394998    26A     -1.393211    27A     -1.387032
      28A     -1.373164    29A     -1.364287    30A     -1.354138
      31A     -1.302592    32A     -1.119430    33A     -1.042552
      34A     -1.012340    35A     -1.003796    36A     -0.881324
      37A     -0.867376    38A     -0.859372    39A     -0.821151
      40A     -0.810964    41A     -0.752025    42A     -0.745378
      43A     -0.731457    44A     -0.729292    45A     -0.707615
      46A     -0.687427    47A     -0.678465    48A     -0.674308
      49A     -0.662169    50A     -0.660966    51A     -0.642957
      52A     -0.635626    53A     -0.627578    54A     -0.616130
      55A     -0.603654    56A     -0.598836    57A     -0.581717
      58A     -0.574986    59A     -0.572487    60A     -0.559400
      61A     -0.556760    62A     -0.550080    63A     -0.541300
      64A     -0.536816    65A     -0.529628    66A     -0.522830
      67A     -0.513305    68A     -0.504453    69A     -0.496270
      70A     -0.485308    71A     -0.481615    72A     -0.474758
      73A     -0.462474    74A     -0.456232    75A     -0.450316
      76A     -0.436463

  @DF-RHF Final Energy: -1327.86211586817171

   => Energetics <=

    Nuclear Repulsion Energy =           1772.7660482193691678
    One-Electron Energy =               -5357.6652953378270468
    Two-Electron Energy =                2257.0371312502861656
    Total Energy =                      -1327.8621158681717134
  Basis Set: (AUG-CC-PVTZ AUX)
    Blend: AUG-CC-PVTZ-RI
    Molecular point group: c1

    Geometry (in Angstrom), charge = 0, multiplicity = 1:

       Center              X                  Y                   Z               Mass
    ------------   -----------------  -----------------  -----------------  -----------------
         P           -2.288070582811    -0.939115108849     0.342855628335    30.973761998420
         O           -0.980127582811    -0.200634108849     0.936466628335    15.994914619570
         O            1.344275417189    -1.674555108849     1.229028628335    15.994914619570
         O            0.080730417189     2.360531891151     0.460345628335    15.994914619570
         O            3.070540417189    -2.186144108849    -0.810412371665    15.994914619570
         O            2.849360417189     2.504040891151     0.369712628335    15.994914619570
         O            4.197713417189     0.436324891151    -0.974696371665    15.994914619570
         O           -2.861282282811     0.019972191151    -0.776482271665    15.994914619570
         O           -3.257095582811    -0.722354108849     1.619848628335    15.994914619570
         O           -2.116967582811    -2.342716108849    -0.101490371665    15.994914619570
         C            0.120187417189     0.030936891151     0.014496628335    12.000000000000
         C            0.955317417189    -1.243277108849    -0.077547371665    12.000000000000
         C            0.900614417189     1.203571891151     0.563028628335    12.000000000000
         C            2.261685417189    -1.013379108849    -0.819859371665    12.000000000000
         C            2.179100417189     1.397399891151    -0.229863371665    12.000000000000
         C            3.027867417189     0.149632891151    -0.212144371665    12.000000000000
         C           -3.122187582811     1.432525891151    -0.490708371665    12.000000000000
         C           -3.534291582811     2.086092891151    -1.785941371665    12.000000000000
         H           -0.281066582811     0.299728891151    -0.972060371665     1.007825032230
         H            0.372294417189    -2.028436108849    -0.573854371665     1.007825032230
         H            1.159145417189     0.998804891151     1.610333628335     1.007825032230
         H            2.062959417189    -0.787732108849    -1.874578371665     1.007825032230
         H            1.919012417189     1.637214891151    -1.275405371665     1.007825032230
         H            3.297880417189    -0.093604108849     0.825823628335     1.007825032230
         H            0.523800417189    -1.887104108849     1.709687628335     1.007825032230
         H            0.667565417189     3.110238891151     0.681361628335     1.007825032230
         H            2.975568417189    -2.546446108849     0.092831628335     1.007825032230
         H            3.723454417189     2.550113891151    -0.060691371665     1.007825032230
         H            4.641752417189    -0.422906108849    -1.098909371665     1.007825032230
         H           -3.806369582811    -1.521410108849     1.732905628335     1.007825032230
         H           -3.929021082811     1.408317691151     0.246751128335     1.007825032230
         H           -2.227736582811     1.893807891151    -0.060918371665     1.007825032230
         H           -3.798495582811     3.131809891151    -1.604493371665     1.007825032230
         H           -2.715170582811     2.054250891151    -2.506697371665     1.007825032230
         H           -4.398918582811     1.575250891151    -2.214546371665     1.007825032230

  Basis Set: AUG-CC-PVTZ
    Blend: AUG-CC-PVTZ
  Basis Set: (AUG-CC-PVTZ AUX)
    Blend: AUG-CC-PVTZ-JKFIT
	 Reference Energy          =   -1327.8621158681717134 [Eh]
	 Singles Energy            =      -0.0000000000000000 [Eh]
	 Same-Spin Energy          =      -1.0143110375834796 [Eh]
	 Opposite-Spin Energy      =      -3.0752853591468328 [Eh]
	 Correlation Energy        =      -4.0895963967303128 [Eh]
	 Total Energy              =   -1331.9517122649019711 [Eh]

	 ================> DF-SCS-MP2 Energies <==================
	-----------------------------------------------------------
	 SCS Same-Spin Scale       =       0.3333333333333333 [-]
	 SCS Opposite-Spin Scale   =       1.2000000000000000 [-]
	 SCS Same-Spin Energy      =      -0.3381036791944932 [Eh]
	 SCS Opposite-Spin Energy  =      -3.6903424309761990 [Eh]
	 SCS Correlation Energy    =      -4.0284461101706919 [Eh]
	 SCS Total Energy          =   -1331.8905619783424754 [Eh]
	-----------------------------------------------------------

  Dipole Moment: [D]
     X:    -1.0457      Y:     1.9599      Z:     0.6013     Total:     2.3014

*** Psi4 exiting successfully. Buy a developer a beer!
