                               Psi4 1.3.2 release

  ==> Input File <==

--------------------------------------------------------------------------
#psi4
#
memory 32 gb

molecule  {
0 1
  P       -2.2900960    -0.9400430     0.3446780
  O       -0.9821530    -0.2015620     0.9382890
  O        1.3422500    -1.6754830     1.2308510
  O        0.0787050     2.3596040     0.4621680
  O        3.0685150    -2.1870720    -0.8085900
  O        2.8473350     2.5031130     0.3715350
  O        4.1956880     0.4353970    -0.9728740
  O       -2.8268630     0.0333510    -0.8075310
  O       -3.2591210    -0.7232820     1.6216710
  O       -2.1189930    -2.3436440    -0.0996680
  C        0.1181620     0.0300090     0.0163190
  C        0.9532920    -1.2442050    -0.0757250
  C        0.8949869     1.2150500     0.5619650
  C        2.2596600    -1.0143070    -0.8180370
  C        2.1770750     1.3964720    -0.2280410
  C        3.0348405     0.1547898    -0.2177687
  C       -3.1242130     1.4315980    -0.4888860
  C       -3.5363170     2.0851650    -1.7841190
  H       -0.2830920     0.2988010    -0.9702380
  H        0.3702690    -2.0293640    -0.5720320
  H        1.1571200     0.9978770     1.6121560
  H        2.0609340    -0.7886600    -1.8727560
  H        1.9169870     1.6362870    -1.2735830
  H        3.2958550    -0.0945320     0.8276460
  H        0.5217750    -1.8880320     1.7115100
  H        0.6655400     3.1093110     0.6831840
  H        2.9735430    -2.5473740     0.0946540
  H        3.7214290     2.5491860    -0.0588690
  H        4.6397270    -0.4238340    -1.0970870
  H       -3.8083950    -1.5223380     1.7347280
  H       -3.9305460     1.4455410     0.2493860
  H       -2.2297620     1.8928800    -0.0590960
  H       -3.8005210     3.1308820    -1.6026710
  H       -2.7171960     2.0533230    -2.5048750
  H       -4.4009440     1.5743230    -2.2127240
units angstrom
no_reorient  #important for SAPT in psi4, default
symmetry c1  #important for SAPT in psi4, default
}

set PROPERTIES_ORIGIN ["COM"]
properties('MP2/aug-cc-pvtz', properties = ['dipole'])
--------------------------------------------------------------------------

    Molecular point group: c1
  Charge       = 0
  Multiplicity = 1
  Basis Set: AUG-CC-PVTZ
    Blend: AUG-CC-PVTZ
  Basis Set: (AUG-CC-PVTZ AUX)
    Blend: AUG-CC-PVTZ-JKFIT

    Orbital Energies [Eh]
    ---------------------

    Doubly Occupied:

       1A    -80.116741     2A    -20.614587     3A    -20.606680
       4A    -20.598840     5A    -20.582571     6A    -20.576367
       7A    -20.575418     8A    -20.575008     9A    -20.574267
      10A    -20.523244    11A    -11.320341    12A    -11.303292
      13A    -11.299482    14A    -11.298911    15A    -11.298835
      16A    -11.295999    17A    -11.291600    18A    -11.229927
      19A     -7.632192    20A     -5.530698    21A     -5.530324
      22A     -5.529123    23A     -1.460059    24A     -1.411466
      25A     -1.395937    26A     -1.394371    27A     -1.386897
      28A     -1.375238    29A     -1.365036    30A     -1.355644
      31A     -1.303644    32A     -1.117004    33A     -1.040488
      34A     -1.010664    35A     -1.002402    36A     -0.880081
      37A     -0.864893    38A     -0.859048    39A     -0.822124
      40A     -0.809492    41A     -0.752573    42A     -0.745522
      43A     -0.731786    44A     -0.728444    45A     -0.707470
      46A     -0.688392    47A     -0.677914    48A     -0.674132
      49A     -0.663826    50A     -0.660812    51A     -0.643420
      52A     -0.635943    53A     -0.627216    54A     -0.615360
      55A     -0.604007    56A     -0.598964    57A     -0.582530
      58A     -0.575504    59A     -0.571111    60A     -0.559750
      61A     -0.557305    62A     -0.548577    63A     -0.541146
      64A     -0.537052    65A     -0.530012    66A     -0.521068
      67A     -0.513160    68A     -0.504085    69A     -0.496562
      70A     -0.484115    71A     -0.479699    72A     -0.476421
      73A     -0.461503    74A     -0.455105    75A     -0.449070
      76A     -0.434282

  @DF-RHF Final Energy: -1327.86163569346149

   => Energetics <=

    Nuclear Repulsion Energy =           1772.2782869787201889
    One-Electron Energy =               -5356.6943068500568188
    Two-Electron Energy =                2256.5543841778749083
    Total Energy =                      -1327.8616356934617215
  Basis Set: (AUG-CC-PVTZ AUX)
    Blend: AUG-CC-PVTZ-RI
    Molecular point group: c1

    Geometry (in Angstrom), charge = 0, multiplicity = 1:

       Center              X                  Y                   Z               Mass
    ------------   -----------------  -----------------  -----------------  -----------------
         P           -2.290320769537    -0.940813269124     0.345108428739    30.973761998420
         O           -0.982377769537    -0.202332269124     0.938719428739    15.994914619570
         O            1.342025230463    -1.676253269124     1.231281428739    15.994914619570
         O            0.078480230463     2.358833730876     0.462598428739    15.994914619570
         O            3.068290230463    -2.187842269124    -0.808159571261    15.994914619570
         O            2.847110230463     2.502342730876     0.371965428739    15.994914619570
         O            4.195463230463     0.434626730876    -0.972443571261    15.994914619570
         O           -2.827087769537     0.032580730876    -0.807100571261    15.994914619570
         O           -3.259345769537    -0.724052269124     1.622101428739    15.994914619570
         O           -2.119217769537    -2.344414269124    -0.099237571261    15.994914619570
         C            0.117937230463     0.029238730876     0.016749428739    12.000000000000
         C            0.953067230463    -1.244975269124    -0.075294571261    12.000000000000
         C            0.894762130463     1.214279730876     0.562395428739    12.000000000000
         C            2.259435230463    -1.015077269124    -0.817606571261    12.000000000000
         C            2.176850230463     1.395701730876    -0.227610571261    12.000000000000
         C            3.034615730463     0.154019530876    -0.217338271261    12.000000000000
         C           -3.124437769537     1.430827730876    -0.488455571261    12.000000000000
         C           -3.536541769537     2.084394730876    -1.783688571261    12.000000000000
         H           -0.283316769537     0.298030730876    -0.969807571261     1.007825032230
         H            0.370044230463    -2.030134269124    -0.571601571261     1.007825032230
         H            1.156895230463     0.997106730876     1.612586428739     1.007825032230
         H            2.060709230463    -0.789430269124    -1.872325571261     1.007825032230
         H            1.916762230463     1.635516730876    -1.273152571261     1.007825032230
         H            3.295630230463    -0.095302269124     0.828076428739     1.007825032230
         H            0.521550230463    -1.888802269124     1.711940428739     1.007825032230
         H            0.665315230463     3.108540730876     0.683614428739     1.007825032230
         H            2.973318230463    -2.548144269124     0.095084428739     1.007825032230
         H            3.721204230463     2.548415730876    -0.058438571261     1.007825032230
         H            4.639502230463    -0.424604269124    -1.096656571261     1.007825032230
         H           -3.808619769537    -1.523108269124     1.735158428739     1.007825032230
         H           -3.930770769537     1.444770730876     0.249816428739     1.007825032230
         H           -2.229986769537     1.892109730876    -0.058665571261     1.007825032230
         H           -3.800745769537     3.130111730876    -1.602240571261     1.007825032230
         H           -2.717420769537     2.052552730876    -2.504444571261     1.007825032230
         H           -4.401168769537     1.573552730876    -2.212293571261     1.007825032230

  Basis Set: AUG-CC-PVTZ
    Blend: AUG-CC-PVTZ
  Basis Set: (AUG-CC-PVTZ AUX)
    Blend: AUG-CC-PVTZ-JKFIT
	 Reference Energy          =   -1327.8616356934614942 [Eh]
	 Singles Energy            =      -0.0000000000000000 [Eh]
	 Same-Spin Energy          =      -1.0145053426871495 [Eh]
	 Opposite-Spin Energy      =      -3.0756702610862869 [Eh]
	 Correlation Energy        =      -4.0901756037734369 [Eh]
	 Total Energy              =   -1331.9518112972348263 [Eh]

	 ================> DF-SCS-MP2 Energies <==================
	-----------------------------------------------------------
	 SCS Same-Spin Scale       =       0.3333333333333333 [-]
	 SCS Opposite-Spin Scale   =       1.2000000000000000 [-]
	 SCS Same-Spin Energy      =      -0.3381684475623832 [Eh]
	 SCS Opposite-Spin Energy  =      -3.6908043133035440 [Eh]
	 SCS Correlation Energy    =      -4.0289727608659271 [Eh]
	 SCS Total Energy          =   -1331.8906084543273209 [Eh]
	-----------------------------------------------------------

  Dipole Moment: [D]
     X:    -1.0973      Y:     1.9086      Z:     0.6969     Total:     2.3092

*** Psi4 exiting successfully. Buy a developer a beer!
