                               Psi4 1.4a3.dev225

  ==> Input File <==

--------------------------------------------------------------------------
#psi4
#
memory 32 gb

molecule  {
0 1
  P       -2.3219140    -1.0563120    -0.0968450
  O       -1.0285840    -0.5623410     0.7549430
  O        1.3695440    -1.8069540     1.2202350
  O       -0.1592450     2.1412630     0.5207450
  O        3.3269040    -2.0858120    -0.6453880
  O        2.5724350     2.5270130     0.6374560
  O        4.2203020     0.6406430    -0.6358120
  O       -2.8737010     0.2643620    -0.8096810
  O       -3.3065970    -1.3497020     1.1531960
  O       -2.1044560    -2.1814480    -1.0350500
  C        0.1200290    -0.1583450    -0.0432010
  C        1.0698050    -1.3527180    -0.1046720
  C        0.7441670     1.0454510     0.6308160
  C        2.4193320    -0.9866070    -0.7068450
  C        2.0603010     1.3853380    -0.0470020
  C        3.0180900     0.2181970     0.0056710
  C       -3.2473180     1.4231610     0.0025120
  C       -3.2076300     2.6262440    -0.9075720
  H       -0.2047330     0.1313700    -1.0514980
  H        0.5965010    -2.1549610    -0.6866410
  H        0.9283474     0.8171905     1.6380150
  H        2.3054700    -0.7437210    -1.7704410
  H        1.8633300     1.6367370    -1.1028410
  H        3.2142070    -0.0417910     1.0561650
  H        0.5126160    -2.0057500     1.6426110
  H        0.3598300     2.9232990     0.7925780
  H        3.1793900    -2.4823080     0.2360710
  H        3.4672560     2.6739710     0.2770410
  H        4.7639490    -0.1654590    -0.7244900
  H       -3.7873380    -2.1826420     0.9908450
  H       -4.2474700     1.2335250     0.4005830
  H       -2.5352900     1.5309660     0.8217280
  H       -3.5402110     3.5125760    -0.3587690
  H       -2.1856630     2.7912820    -1.2511950
  H       -3.8637180     2.4807570    -1.7684970
units angstrom
no_reorient  #important for SAPT in psi4, default
symmetry c1  #important for SAPT in psi4, default
}

set PROPERTIES_ORIGIN ["COM"]
properties('MP2/aug-cc-pvtz', properties = ['dipole'])
--------------------------------------------------------------------------

    Molecular point group: c1
  Charge       = 0
  Multiplicity = 1
  Basis Set: AUG-CC-PVTZ
    Blend: AUG-CC-PVTZ
  Basis Set: (AUG-CC-PVTZ AUX)
    Blend: AUG-CC-PVTZ-JKFIT

    Orbital Energies [Eh]
    ---------------------

    Doubly Occupied:

       1A    -80.116855     2A    -20.615025     3A    -20.608131
       4A    -20.595999     5A    -20.584381     6A    -20.578561
       7A    -20.575394     8A    -20.575226     9A    -20.573897
      10A    -20.522553    11A    -11.321054    12A    -11.305286
      13A    -11.300351    14A    -11.298108    15A    -11.296102
      16A    -11.294782    17A    -11.293098    18A    -11.222819
      19A     -7.632116    20A     -5.530651    21A     -5.530148
      22A     -5.529087    23A     -1.458527    24A     -1.411045
      25A     -1.395504    26A     -1.392731    27A     -1.385175
      28A     -1.372752    29A     -1.364176    30A     -1.354289
      31A     -1.302733    32A     -1.119384    33A     -1.035450
      34A     -1.011541    35A     -1.004950    36A     -0.877973
      37A     -0.862587    38A     -0.861639    39A     -0.822802
      40A     -0.812667    41A     -0.755233    42A     -0.746191
      43A     -0.730080    44A     -0.726141    45A     -0.706168
      46A     -0.687576    47A     -0.679460    48A     -0.674361
      49A     -0.662602    50A     -0.659368    51A     -0.643733
      52A     -0.637931    53A     -0.623764    54A     -0.613187
      55A     -0.605445    56A     -0.596964    57A     -0.580851
      58A     -0.577906    59A     -0.570431    60A     -0.560094
      61A     -0.555384    62A     -0.548175    63A     -0.538648
      64A     -0.537978    65A     -0.530096    66A     -0.517806
      67A     -0.509003    68A     -0.503624    69A     -0.494936
      70A     -0.487954    71A     -0.478680    72A     -0.475541
      73A     -0.463351    74A     -0.457428    75A     -0.452142
      76A     -0.436809

  @DF-RHF Final Energy: -1327.86035824995611

   => Energetics <=

    Nuclear Repulsion Energy =           1774.9441490964197783
    One-Electron Energy =               -5362.0678186282693787
    Two-Electron Energy =                2259.2633112818934933
    Total Energy =                      -1327.8603582499558797
  Basis Set: (AUG-CC-PVTZ AUX)
    Blend: AUG-CC-PVTZ-RI
    Molecular point group: c1

    Geometry (in Angstrom), charge = 0, multiplicity = 1:

       Center              X                  Y                   Z               Mass
    ------------   -----------------  -----------------  -----------------  -----------------
         P           -2.311121903820    -1.018571004722    -0.099121521398    30.973761998420
         O           -1.017791903820    -0.524600004722     0.752666478602    15.994914619570
         O            1.380336096180    -1.769213004722     1.217958478602    15.994914619570
         O           -0.148452903820     2.179003995278     0.518468478602    15.994914619570
         O            3.337696096180    -2.048071004722    -0.647664521398    15.994914619570
         O            2.583227096180     2.564753995278     0.635179478602    15.994914619570
         O            4.231094096180     0.678383995278    -0.638088521398    15.994914619570
         O           -2.862908903820     0.302102995278    -0.811957521398    15.994914619570
         O           -3.295804903820    -1.311961004722     1.150919478602    15.994914619570
         O           -2.093663903820    -2.143707004722    -1.037326521398    15.994914619570
         C            0.130821096180    -0.120604004722    -0.045477521398    12.000000000000
         C            1.080597096180    -1.314977004722    -0.106948521398    12.000000000000
         C            0.754959096180     1.083191995278     0.628539478602    12.000000000000
         C            2.430124096180    -0.948866004722    -0.709121521398    12.000000000000
         C            2.071093096180     1.423078995278    -0.049278521398    12.000000000000
         C            3.028882096180     0.255937995278     0.003394478602    12.000000000000
         C           -3.236525903820     1.460901995278     0.000235478602    12.000000000000
         C           -3.196837903820     2.663984995278    -0.909848521398    12.000000000000
         H           -0.193940903820     0.169110995278    -1.053774521398     1.007825032230
         H            0.607293096180    -2.117220004722    -0.688917521398     1.007825032230
         H            0.939139496180     0.854931495278     1.635738478602     1.007825032230
         H            2.316262096180    -0.705980004722    -1.772717521398     1.007825032230
         H            1.874122096180     1.674477995278    -1.105117521398     1.007825032230
         H            3.224999096180    -0.004050004722     1.053888478602     1.007825032230
         H            0.523408096180    -1.968009004722     1.640334478602     1.007825032230
         H            0.370622096180     2.961039995278     0.790301478602     1.007825032230
         H            3.190182096180    -2.444567004722     0.233794478602     1.007825032230
         H            3.478048096180     2.711711995278     0.274764478602     1.007825032230
         H            4.774741096180    -0.127718004722    -0.726766521398     1.007825032230
         H           -3.776545903820    -2.144901004722     0.988568478602     1.007825032230
         H           -4.236677903820     1.271265995278     0.398306478602     1.007825032230
         H           -2.524497903820     1.568706995278     0.819451478602     1.007825032230
         H           -3.529418903820     3.550316995278    -0.361045521398     1.007825032230
         H           -2.174870903820     2.829022995278    -1.253471521398     1.007825032230
         H           -3.852925903820     2.518497995278    -1.770773521398     1.007825032230

  Basis Set: AUG-CC-PVTZ
    Blend: AUG-CC-PVTZ
  Basis Set: (AUG-CC-PVTZ AUX)
    Blend: AUG-CC-PVTZ-JKFIT
	 Reference Energy          =   -1327.8603582499561071 [Eh]
	 Singles Energy            =      -0.0000000000000000 [Eh]
	 Same-Spin Energy          =      -1.0145659473388171 [Eh]
	 Opposite-Spin Energy      =      -3.0761381041506684 [Eh]
	 Correlation Energy        =      -4.0907040514894852 [Eh]
	 Total Energy              =   -1331.9510623014455177 [Eh]

	 ================> DF-SCS-MP2 Energies <==================
	-----------------------------------------------------------
	 SCS Same-Spin Scale       =       0.3333333333333333 [-]
	 SCS Opposite-Spin Scale   =       1.2000000000000000 [-]
	 SCS Same-Spin Energy      =      -0.3381886491129390 [Eh]
	 SCS Opposite-Spin Energy  =      -3.6913657249808018 [Eh]
	 SCS Correlation Energy    =      -4.0295543740937410 [Eh]
	 SCS Total Energy          =   -1331.8899126240498845 [Eh]
	-----------------------------------------------------------

  Dipole Moment: [D]
     X:    -0.8528      Y:     1.4074      Z:     1.8887     Total:     2.5051

*** Psi4 exiting successfully. Buy a developer a beer!
