                               Psi4 1.3.2 release

  ==> Input File <==

--------------------------------------------------------------------------
#psi4
#
memory 32 gb

molecule  {
0 1
  P       -2.2900960    -0.9400430     0.3446780
  O       -0.9821530    -0.2015620     0.9382890
  O        1.3422500    -1.6754830     1.2308510
  O        0.0787050     2.3596040     0.4621680
  O        3.0685150    -2.1870720    -0.8085900
  O        2.8473350     2.5031130     0.3715350
  O        4.1956880     0.4353970    -0.9728740
  O       -2.8268630     0.0333510    -0.8075310
  O       -3.2591210    -0.7232820     1.6216710
  O       -2.1189930    -2.3436440    -0.0996680
  C        0.1249736    -0.0049197     0.0870062
  C        0.9532920    -1.2442050    -0.0757250
  C        0.8985890     1.2026440     0.5648510
  C        2.2596600    -1.0143070    -0.8180370
  C        2.1770750     1.3964720    -0.2280410
  C        3.0258420     0.1487050    -0.2103220
  C       -3.1242130     1.4315980    -0.4888860
  C       -3.5363170     2.0851650    -1.7841190
  H       -0.2830920     0.2988010    -0.9702380
  H        0.3702690    -2.0293640    -0.5720320
  H        1.1300351     0.9473969     1.6073946
  H        2.0609340    -0.7886600    -1.8727560
  H        1.9169870     1.6362870    -1.2735830
  H        3.2958550    -0.0945320     0.8276460
  H        0.5217750    -1.8880320     1.7115100
  H        0.6655400     3.1093110     0.6831840
  H        2.9735430    -2.5473740     0.0946540
  H        3.7214290     2.5491860    -0.0588690
  H        4.6397270    -0.4238340    -1.0970870
  H       -3.8083950    -1.5223380     1.7347280
  H       -3.9305460     1.4455410     0.2493860
  H       -2.2297620     1.8928800    -0.0590960
  H       -3.8005210     3.1308820    -1.6026710
  H       -2.7171960     2.0533230    -2.5048750
  H       -4.4009440     1.5743230    -2.2127240
units angstrom
no_reorient  #important for SAPT in psi4, default
symmetry c1  #important for SAPT in psi4, default
}

set PROPERTIES_ORIGIN ["COM"]
properties('MP2/aug-cc-pvtz', properties = ['dipole'])
--------------------------------------------------------------------------

    Molecular point group: c1
  Charge       = 0
  Multiplicity = 1
  Basis Set: AUG-CC-PVTZ
    Blend: AUG-CC-PVTZ
  Basis Set: (AUG-CC-PVTZ AUX)
    Blend: AUG-CC-PVTZ-JKFIT

    Orbital Energies [Eh]
    ---------------------

    Doubly Occupied:

       1A    -80.120349     2A    -20.616906     3A    -20.611313
       4A    -20.599857     5A    -20.581643     6A    -20.576170
       7A    -20.575346     8A    -20.574362     9A    -20.573826
      10A    -20.525376    11A    -11.321720    12A    -11.301796
      13A    -11.299961    14A    -11.299626    15A    -11.297735
      16A    -11.296791    17A    -11.291137    18A    -11.229744
      19A     -7.635665    20A     -5.534163    21A     -5.533817
      22A     -5.532597    23A     -1.467290    24A     -1.414327
      25A     -1.398892    26A     -1.393371    27A     -1.388169
      28A     -1.374783    29A     -1.364086    30A     -1.353953
      31A     -1.305967    32A     -1.118629    33A     -1.040697
      34A     -1.012786    35A     -1.003753    36A     -0.884480
      37A     -0.865143    38A     -0.861681    39A     -0.824009
      40A     -0.804328    41A     -0.753649    42A     -0.744686
      43A     -0.734755    44A     -0.730662    45A     -0.708654
      46A     -0.687988    47A     -0.679888    48A     -0.673356
      49A     -0.663087    50A     -0.661043    51A     -0.646677
      52A     -0.636292    53A     -0.629415    54A     -0.615832
      55A     -0.607880    56A     -0.597775    57A     -0.581559
      58A     -0.577913    59A     -0.572098    60A     -0.559375
      61A     -0.556241    62A     -0.548140    63A     -0.541617
      64A     -0.536406    65A     -0.526044    66A     -0.520358
      67A     -0.513335    68A     -0.503001    69A     -0.496982
      70A     -0.481076    71A     -0.478108    72A     -0.474264
      73A     -0.464559    74A     -0.454856    75A     -0.449791
      76A     -0.436047

  @DF-RHF Final Energy: -1327.85441682246415

   => Energetics <=

    Nuclear Repulsion Energy =           1773.2595098138970116
    One-Electron Energy =               -5358.5285380460209126
    Two-Electron Energy =                2257.4146114096593010
    Total Energy =                      -1327.8544168224643727
  Basis Set: (AUG-CC-PVTZ AUX)
    Blend: AUG-CC-PVTZ-RI
    Molecular point group: c1

    Geometry (in Angstrom), charge = 0, multiplicity = 1:

       Center              X                  Y                   Z               Mass
    ------------   -----------------  -----------------  -----------------  -----------------
         P           -2.290284963094    -0.938411315848     0.341749973142    30.973761998420
         O           -0.982341963094    -0.199930315848     0.935360973142    15.994914619570
         O            1.342061036906    -1.673851315848     1.227922973142    15.994914619570
         O            0.078516036906     2.361235684152     0.459239973142    15.994914619570
         O            3.068326036906    -2.185440315848    -0.811518026858    15.994914619570
         O            2.847146036906     2.504744684152     0.368606973142    15.994914619570
         O            4.195499036906     0.437028684152    -0.975802026858    15.994914619570
         O           -2.827051963094     0.034982684152    -0.810459026858    15.994914619570
         O           -3.259309963094    -0.721650315848     1.618742973142    15.994914619570
         O           -2.119181963094    -2.342012315848    -0.102596026858    15.994914619570
         C            0.124784636906    -0.003288015848     0.084078173142    12.000000000000
         C            0.953103036906    -1.242573315848    -0.078653026858    12.000000000000
         C            0.898400036906     1.204275684152     0.561922973142    12.000000000000
         C            2.259471036906    -1.012675315848    -0.820965026858    12.000000000000
         C            2.176886036906     1.398103684152    -0.230969026858    12.000000000000
         C            3.025653036906     0.150336684152    -0.213250026858    12.000000000000
         C           -3.124401963094     1.433229684152    -0.491814026858    12.000000000000
         C           -3.536505963094     2.086796684152    -1.787047026858    12.000000000000
         H           -0.283280963094     0.300432684152    -0.973166026858     1.007825032230
         H            0.370080036906    -2.027732315848    -0.574960026858     1.007825032230
         H            1.129846136906     0.949028584152     1.604466573142     1.007825032230
         H            2.060745036906    -0.787028315848    -1.875684026858     1.007825032230
         H            1.916798036906     1.637918684152    -1.276511026858     1.007825032230
         H            3.295666036906    -0.092900315848     0.824717973142     1.007825032230
         H            0.521586036906    -1.886400315848     1.708581973142     1.007825032230
         H            0.665351036906     3.110942684152     0.680255973142     1.007825032230
         H            2.973354036906    -2.545742315848     0.091725973142     1.007825032230
         H            3.721240036906     2.550817684152    -0.061797026858     1.007825032230
         H            4.639538036906    -0.422202315848    -1.100015026858     1.007825032230
         H           -3.808583963094    -1.520706315848     1.731799973142     1.007825032230
         H           -3.930734963094     1.447172684152     0.246457973142     1.007825032230
         H           -2.229950963094     1.894511684152    -0.062024026858     1.007825032230
         H           -3.800709963094     3.132513684152    -1.605599026858     1.007825032230
         H           -2.717384963094     2.054954684152    -2.507803026858     1.007825032230
         H           -4.401132963094     1.575954684152    -2.215652026858     1.007825032230

  Basis Set: AUG-CC-PVTZ
    Blend: AUG-CC-PVTZ
  Basis Set: (AUG-CC-PVTZ AUX)
    Blend: AUG-CC-PVTZ-JKFIT
	 Reference Energy          =   -1327.8544168224641453 [Eh]
	 Singles Energy            =      -0.0000000000000000 [Eh]
	 Same-Spin Energy          =      -1.0149798441336284 [Eh]
	 Opposite-Spin Energy      =      -3.0762717523547458 [Eh]
	 Correlation Energy        =      -4.0912515964883740 [Eh]
	 Total Energy              =   -1331.9456684189524367 [Eh]

	 ================> DF-SCS-MP2 Energies <==================
	-----------------------------------------------------------
	 SCS Same-Spin Scale       =       0.3333333333333333 [-]
	 SCS Opposite-Spin Scale   =       1.2000000000000000 [-]
	 SCS Same-Spin Energy      =      -0.3383266147112095 [Eh]
	 SCS Opposite-Spin Energy  =      -3.6915261028256947 [Eh]
	 SCS Correlation Energy    =      -4.0298527175369045 [Eh]
	 SCS Total Energy          =   -1331.8842695400010143 [Eh]
	-----------------------------------------------------------

  Dipole Moment: [D]
     X:    -1.2352      Y:     1.7764      Z:     0.7974     Total:     2.3059

*** Psi4 exiting successfully. Buy a developer a beer!
