                               Psi4 1.3.2 release

  ==> Input File <==

--------------------------------------------------------------------------
#psi4
#
memory 32 gb

molecule  {
0 1
  P       -2.2900960    -0.9400430     0.3446780
  O       -0.9821530    -0.2015620     0.9382890
  O        1.3422500    -1.6754830     1.2308510
  O        0.0787050     2.3596040     0.4621680
  O        3.0685150    -2.1870720    -0.8085900
  O        2.8473350     2.5031130     0.3715350
  O        4.1956880     0.4353970    -0.9728740
  O       -2.8178067     0.0371946    -0.8156897
  O       -3.2591210    -0.7232820     1.6216710
  O       -2.1189930    -2.3436440    -0.0996680
  C        0.1181620     0.0300090     0.0163190
  C        0.9532920    -1.2442050    -0.0757250
  C        0.8985890     1.2026440     0.5648510
  C        2.2596600    -1.0143070    -0.8180370
  C        2.1770750     1.3964720    -0.2280410
  C        3.0258420     0.1487050    -0.2103220
  C       -3.1242130     1.4315980    -0.4888860
  C       -3.5363170     2.0851650    -1.7841190
  H       -0.2830920     0.2988010    -0.9702380
  H        0.3702690    -2.0293640    -0.5720320
  H        1.1571200     0.9978770     1.6121560
  H        2.0609340    -0.7886600    -1.8727560
  H        1.9169870     1.6362870    -1.2735830
  H        3.2958550    -0.0945320     0.8276460
  H        0.5217750    -1.8880320     1.7115100
  H        0.6655400     3.1093110     0.6831840
  H        2.9735430    -2.5473740     0.0946540
  H        3.7214290     2.5491860    -0.0588690
  H        4.6397270    -0.4238340    -1.0970870
  H       -3.8083950    -1.5223380     1.7347280
  H       -3.9302673     1.4550780     0.2494486
  H       -2.2297620     1.8928800    -0.0590960
  H       -3.8005210     3.1308820    -1.6026710
  H       -2.7171960     2.0533230    -2.5048750
  H       -4.4009440     1.5743230    -2.2127240
units angstrom
no_reorient  #important for SAPT in psi4, default
symmetry c1  #important for SAPT in psi4, default
}

set PROPERTIES_ORIGIN ["COM"]
properties('MP2/aug-cc-pvtz', properties = ['dipole'])
--------------------------------------------------------------------------

    Molecular point group: c1
  Charge       = 0
  Multiplicity = 1
  Basis Set: AUG-CC-PVTZ
    Blend: AUG-CC-PVTZ
  Basis Set: (AUG-CC-PVTZ AUX)
    Blend: AUG-CC-PVTZ-JKFIT

    Orbital Energies [Eh]
    ---------------------

    Doubly Occupied:

       1A    -80.117687     2A    -20.615743     3A    -20.607040
       4A    -20.599291     5A    -20.583124     6A    -20.576745
       7A    -20.574591     8A    -20.574065     9A    -20.573357
      10A    -20.523838    11A    -11.320611    12A    -11.303508
      13A    -11.299322    14A    -11.298990    15A    -11.298542
      16A    -11.296630    17A    -11.291403    18A    -11.229437
      19A     -7.633044    20A     -5.531552    21A     -5.531159
      22A     -5.529977    23A     -1.460062    24A     -1.410781
      25A     -1.394757    26A     -1.393044    27A     -1.386585
      28A     -1.372641    29A     -1.363910    30A     -1.353804
      31A     -1.304184    32A     -1.119012    33A     -1.039919
      34A     -1.011987    35A     -1.003403    36A     -0.880119
      37A     -0.864268    38A     -0.859034    39A     -0.822631
      40A     -0.810620    41A     -0.751683    42A     -0.745268
      43A     -0.731526    44A     -0.728419    45A     -0.708050
      46A     -0.687085    47A     -0.678128    48A     -0.673562
      49A     -0.662412    50A     -0.660890    51A     -0.643196
      52A     -0.634855    53A     -0.627207    54A     -0.615206
      55A     -0.603639    56A     -0.598435    57A     -0.581793
      58A     -0.575702    59A     -0.570815    60A     -0.559381
      61A     -0.556601    62A     -0.548096    63A     -0.541110
      64A     -0.536567    65A     -0.530037    66A     -0.521466
      67A     -0.513042    68A     -0.504303    69A     -0.497240
      70A     -0.484677    71A     -0.479381    72A     -0.477036
      73A     -0.462392    74A     -0.455828    75A     -0.450086
      76A     -0.436280

  @DF-RHF Final Energy: -1327.86090061712571

   => Energetics <=

    Nuclear Repulsion Energy =           1772.3586310919847620
    One-Electron Energy =               -5356.8554418526409791
    Two-Electron Energy =                2256.6359101435305092
    Total Energy =                      -1327.8609006171259352
  Basis Set: (AUG-CC-PVTZ AUX)
    Blend: AUG-CC-PVTZ-RI
    Molecular point group: c1

    Geometry (in Angstrom), charge = 0, multiplicity = 1:

       Center              X                  Y                   Z               Mass
    ------------   -----------------  -----------------  -----------------  -----------------
         P           -2.290599803563    -0.940289769209     0.345130792820    30.973761998420
         O           -0.982656803563    -0.201808769209     0.938741792820    15.994914619570
         O            1.341746196437    -1.675729769209     1.231303792820    15.994914619570
         O            0.078201196437     2.359357230791     0.462620792820    15.994914619570
         O            3.068011196437    -2.187318769209    -0.808137207180    15.994914619570
         O            2.846831196437     2.502866230791     0.371987792820    15.994914619570
         O            4.195184196437     0.435150230791    -0.972421207180    15.994914619570
         O           -2.818310503563     0.036947830791    -0.815236907180    15.994914619570
         O           -3.259624803563    -0.723528769209     1.622123792820    15.994914619570
         O           -2.119496803563    -2.343890769209    -0.099215207180    15.994914619570
         C            0.117658196437     0.029762230791     0.016771792820    12.000000000000
         C            0.952788196437    -1.244451769209    -0.075272207180    12.000000000000
         C            0.898085196437     1.202397230791     0.565303792820    12.000000000000
         C            2.259156196437    -1.014553769209    -0.817584207180    12.000000000000
         C            2.176571196437     1.396225230791    -0.227588207180    12.000000000000
         C            3.025338196437     0.148458230791    -0.209869207180    12.000000000000
         C           -3.124716803563     1.431351230791    -0.488433207180    12.000000000000
         C           -3.536820803563     2.084918230791    -1.783666207180    12.000000000000
         H           -0.283595803563     0.298554230791    -0.969785207180     1.007825032230
         H            0.369765196437    -2.029610769209    -0.571579207180     1.007825032230
         H            1.156616196437     0.997630230791     1.612608792820     1.007825032230
         H            2.060430196437    -0.788906769209    -1.872303207180     1.007825032230
         H            1.916483196437     1.636040230791    -1.273130207180     1.007825032230
         H            3.295351196437    -0.094778769209     0.828098792820     1.007825032230
         H            0.521271196437    -1.888278769209     1.711962792820     1.007825032230
         H            0.665036196437     3.109064230791     0.683636792820     1.007825032230
         H            2.973039196437    -2.547620769209     0.095106792820     1.007825032230
         H            3.720925196437     2.548939230791    -0.058416207180     1.007825032230
         H            4.639223196437    -0.424080769209    -1.096634207180     1.007825032230
         H           -3.808898803563    -1.522584769209     1.735180792820     1.007825032230
         H           -3.930771103563     1.454831230791     0.249901392820     1.007825032230
         H           -2.230265803563     1.892633230791    -0.058643207180     1.007825032230
         H           -3.801024803563     3.130635230791    -1.602218207180     1.007825032230
         H           -2.717699803563     2.053076230791    -2.504422207180     1.007825032230
         H           -4.401447803563     1.574076230791    -2.212271207180     1.007825032230

  Basis Set: AUG-CC-PVTZ
    Blend: AUG-CC-PVTZ
  Basis Set: (AUG-CC-PVTZ AUX)
    Blend: AUG-CC-PVTZ-JKFIT
	 Reference Energy          =   -1327.8609006171257079 [Eh]
	 Singles Energy            =      -0.0000000000000000 [Eh]
	 Same-Spin Energy          =      -1.0146974111419345 [Eh]
	 Opposite-Spin Energy      =      -3.0763335825311380 [Eh]
	 Correlation Energy        =      -4.0910309936730727 [Eh]
	 Total Energy              =   -1331.9519316107987379 [Eh]

	 ================> DF-SCS-MP2 Energies <==================
	-----------------------------------------------------------
	 SCS Same-Spin Scale       =       0.3333333333333333 [-]
	 SCS Opposite-Spin Scale   =       1.2000000000000000 [-]
	 SCS Same-Spin Energy      =      -0.3382324703806448 [Eh]
	 SCS Opposite-Spin Energy  =      -3.6916002990373653 [Eh]
	 SCS Correlation Energy    =      -4.0298327694180101 [Eh]
	 SCS Total Energy          =   -1331.8907333865436158 [Eh]
	-----------------------------------------------------------

  Dipole Moment: [D]
     X:    -1.1294      Y:     1.8368      Z:     0.7515     Total:     2.2834

*** Psi4 exiting successfully. Buy a developer a beer!
