                               Psi4 1.3.2 release

  ==> Input File <==

--------------------------------------------------------------------------
#psi4
#
memory 32 gb

molecule  {
0 1
  P       -2.2900960    -0.9400430     0.3446780
  O       -0.9821530    -0.2015620     0.9382890
  O        1.3422500    -1.6754830     1.2308510
  O        0.0787050     2.3596040     0.4621680
  O        3.0597558    -2.1929946    -0.8020502
  O        2.8473350     2.5031130     0.3715350
  O        4.1956880     0.4353970    -0.9728740
  O       -2.8268630     0.0333510    -0.8075310
  O       -3.2591210    -0.7232820     1.6216710
  O       -2.1189930    -2.3436440    -0.0996680
  C        0.1181620     0.0300090     0.0163190
  C        0.9570127    -1.2566757    -0.0731578
  C        0.8985890     1.2026440     0.5648510
  C        2.2596600    -1.0143070    -0.8180370
  C        2.1770750     1.3964720    -0.2280410
  C        3.0258420     0.1487050    -0.2103220
  C       -3.1242130     1.4315980    -0.4888860
  C       -3.5363170     2.0851650    -1.7841190
  H       -0.2830920     0.2988010    -0.9702380
  H        0.3702690    -2.0293640    -0.5720320
  H        1.1571200     0.9978770     1.6121560
  H        2.0609340    -0.7886600    -1.8727560
  H        1.9169870     1.6362870    -1.2735830
  H        3.2958550    -0.0945320     0.8276460
  H        0.5217750    -1.8880320     1.7115100
  H        0.6655400     3.1093110     0.6831840
  H        2.9735430    -2.5473740     0.0946540
  H        3.7214290     2.5491860    -0.0588690
  H        4.6397270    -0.4238340    -1.0970870
  H       -3.8083950    -1.5223380     1.7347280
  H       -3.9305460     1.4455410     0.2493860
  H       -2.2297620     1.8928800    -0.0590960
  H       -3.8005210     3.1308820    -1.6026710
  H       -2.7171960     2.0533230    -2.5048750
  H       -4.4009440     1.5743230    -2.2127240
units angstrom
no_reorient  #important for SAPT in psi4, default
symmetry c1  #important for SAPT in psi4, default
}

set PROPERTIES_ORIGIN ["COM"]
properties('MP2/aug-cc-pvtz', properties = ['dipole'])
--------------------------------------------------------------------------

    Molecular point group: c1
  Charge       = 0
  Multiplicity = 1
  Basis Set: AUG-CC-PVTZ
    Blend: AUG-CC-PVTZ
  Basis Set: (AUG-CC-PVTZ AUX)
    Blend: AUG-CC-PVTZ-JKFIT

    Orbital Energies [Eh]
    ---------------------

    Doubly Occupied:

       1A    -80.116735     2A    -20.614578     3A    -20.606564
       4A    -20.598743     5A    -20.583677     6A    -20.576865
       7A    -20.574546     8A    -20.573341     9A    -20.573167
      10A    -20.523329    11A    -11.320367    12A    -11.303096
      13A    -11.299290    14A    -11.299232    15A    -11.298445
      16A    -11.296742    17A    -11.291800    18A    -11.229747
      19A     -7.632184    20A     -5.530690    21A     -5.530317
      22A     -5.529117    23A     -1.459984    24A     -1.411736
      25A     -1.394926    26A     -1.393689    27A     -1.386697
      28A     -1.373323    29A     -1.364790    30A     -1.354494
      31A     -1.303713    32A     -1.117820    33A     -1.040313
      34A     -1.010969    35A     -1.003470    36A     -0.880464
      37A     -0.864905    38A     -0.859042    39A     -0.822184
      40A     -0.810969    41A     -0.751508    42A     -0.745546
      43A     -0.731843    44A     -0.728419    45A     -0.707820
      46A     -0.687238    47A     -0.679477    48A     -0.673726
      49A     -0.662803    50A     -0.661483    51A     -0.642949
      52A     -0.635028    53A     -0.627403    54A     -0.615614
      55A     -0.603474    56A     -0.598596    57A     -0.581667
      58A     -0.575380    59A     -0.571204    60A     -0.559551
      61A     -0.556841    62A     -0.548730    63A     -0.541162
      64A     -0.537314    65A     -0.530212    66A     -0.521856
      67A     -0.512999    68A     -0.504155    69A     -0.497166
      70A     -0.483658    71A     -0.479568    72A     -0.476327
      73A     -0.461742    74A     -0.456017    75A     -0.448858
      76A     -0.436908

  @DF-RHF Final Energy: -1327.86216421825884

   => Energetics <=

    Nuclear Repulsion Energy =           1772.3899280269513383
    One-Electron Energy =               -5356.9235864107340603
    Two-Electron Energy =                2256.6714941655236544
    Total Energy =                      -1327.8621642182588403
  Basis Set: (AUG-CC-PVTZ AUX)
    Blend: AUG-CC-PVTZ-RI
    Molecular point group: c1

    Geometry (in Angstrom), charge = 0, multiplicity = 1:

       Center              X                  Y                   Z               Mass
    ------------   -----------------  -----------------  -----------------  -----------------
         P           -2.289764598984    -0.939194620815     0.344207916953    30.973761998420
         O           -0.981821598984    -0.200713620815     0.937818916953    15.994914619570
         O            1.342581401016    -1.674634620815     1.230380916953    15.994914619570
         O            0.079036401016     2.360452379185     0.461697916953    15.994914619570
         O            3.060087201016    -2.192146220815    -0.802520283047    15.994914619570
         O            2.847666401016     2.503961379185     0.371064916953    15.994914619570
         O            4.196019401016     0.436245379185    -0.973344083047    15.994914619570
         O           -2.826531598984     0.034199379185    -0.808001083047    15.994914619570
         O           -3.258789598984    -0.722433620815     1.621200916953    15.994914619570
         O           -2.118661598984    -2.342795620815    -0.100138083047    15.994914619570
         C            0.118493401016     0.030857379185     0.015848916953    12.000000000000
         C            0.957344101016    -1.255827320815    -0.073627883047    12.000000000000
         C            0.898920401016     1.203492379185     0.564380916953    12.000000000000
         C            2.259991401016    -1.013458620815    -0.818507083047    12.000000000000
         C            2.177406401016     1.397320379185    -0.228511083047    12.000000000000
         C            3.026173401016     0.149553379185    -0.210792083047    12.000000000000
         C           -3.123881598984     1.432446379185    -0.489356083047    12.000000000000
         C           -3.535985598984     2.086013379185    -1.784589083047    12.000000000000
         H           -0.282760598984     0.299649379185    -0.970708083047     1.007825032230
         H            0.370600401016    -2.028515620815    -0.572502083047     1.007825032230
         H            1.157451401016     0.998725379185     1.611685916953     1.007825032230
         H            2.061265401016    -0.787811620815    -1.873226083047     1.007825032230
         H            1.917318401016     1.637135379185    -1.274053083047     1.007825032230
         H            3.296186401016    -0.093683620815     0.827175916953     1.007825032230
         H            0.522106401016    -1.887183620815     1.711039916953     1.007825032230
         H            0.665871401016     3.110159379185     0.682713916953     1.007825032230
         H            2.973874401016    -2.546525620815     0.094183916953     1.007825032230
         H            3.721760401016     2.550034379185    -0.059339083047     1.007825032230
         H            4.640058401016    -0.422985620815    -1.097557083047     1.007825032230
         H           -3.808063598984    -1.521489620815     1.734257916953     1.007825032230
         H           -3.930214598984     1.446389379185     0.248915916953     1.007825032230
         H           -2.229430598984     1.893728379185    -0.059566083047     1.007825032230
         H           -3.800189598984     3.131730379185    -1.603141083047     1.007825032230
         H           -2.716864598984     2.054171379185    -2.505345083047     1.007825032230
         H           -4.400612598984     1.575171379185    -2.213194083047     1.007825032230

  Basis Set: AUG-CC-PVTZ
    Blend: AUG-CC-PVTZ
  Basis Set: (AUG-CC-PVTZ AUX)
    Blend: AUG-CC-PVTZ-JKFIT
	 Reference Energy          =   -1327.8621642182588403 [Eh]
	 Singles Energy            =      -0.0000000000000000 [Eh]
	 Same-Spin Energy          =      -1.0143564505535647 [Eh]
	 Opposite-Spin Energy      =      -3.0755615533093827 [Eh]
	 Correlation Energy        =      -4.0899180038629472 [Eh]
	 Total Energy              =   -1331.9520822221218168 [Eh]

	 ================> DF-SCS-MP2 Energies <==================
	-----------------------------------------------------------
	 SCS Same-Spin Scale       =       0.3333333333333333 [-]
	 SCS Opposite-Spin Scale   =       1.2000000000000000 [-]
	 SCS Same-Spin Energy      =      -0.3381188168511882 [Eh]
	 SCS Opposite-Spin Energy  =      -3.6906738639712593 [Eh]
	 SCS Correlation Energy    =      -4.0287926808224475 [Eh]
	 SCS Total Energy          =   -1331.8909568990811749 [Eh]
	-----------------------------------------------------------

  Dipole Moment: [D]
     X:    -1.0821      Y:     1.8621      Z:     0.7258     Total:     2.2727

*** Psi4 exiting successfully. Buy a developer a beer!
