                               Psi4 1.3.2 release

  ==> Input File <==

--------------------------------------------------------------------------
#psi4
#
memory 32 gb

molecule  {
0 1
  P       -2.2900960    -0.9400430     0.3446780
  O       -0.9821530    -0.2015620     0.9382890
  O        1.3301401    -1.6559885     1.2406525
  O        0.0787050     2.3596040     0.4621680
  O        3.0685150    -2.1870720    -0.8085900
  O        2.8473350     2.5031130     0.3715350
  O        4.1956880     0.4353970    -0.9728740
  O       -2.8268630     0.0333510    -0.8075310
  O       -3.2591210    -0.7232820     1.6216710
  O       -2.1189930    -2.3436440    -0.0996680
  C        0.1206440     0.0294418     0.0428354
  C        0.9532920    -1.2442050    -0.0757250
  C        0.8985890     1.2026440     0.5648510
  C        2.2596600    -1.0143070    -0.8180370
  C        2.1770750     1.3964720    -0.2280410
  C        3.0258420     0.1487050    -0.2103220
  C       -3.1242130     1.4315980    -0.4888860
  C       -3.5363170     2.0851650    -1.7841190
  H       -0.2830920     0.2988010    -0.9702380
  H        0.3702690    -2.0293640    -0.5720320
  H        1.1571200     0.9978770     1.6121560
  H        2.0609340    -0.7886600    -1.8727560
  H        1.9169870     1.6362870    -1.2735830
  H        3.2958550    -0.0945320     0.8276460
  H        0.5217750    -1.8880320     1.7115100
  H        0.6655400     3.1093110     0.6831840
  H        2.9735430    -2.5473740     0.0946540
  H        3.7214290     2.5491860    -0.0588690
  H        4.6397270    -0.4238340    -1.0970870
  H       -3.8083950    -1.5223380     1.7347280
  H       -3.9305460     1.4455410     0.2493860
  H       -2.2297620     1.8928800    -0.0590960
  H       -3.8005210     3.1308820    -1.6026710
  H       -2.7171960     2.0533230    -2.5048750
  H       -4.4009440     1.5743230    -2.2127240
units angstrom
no_reorient  #important for SAPT in psi4, default
symmetry c1  #important for SAPT in psi4, default
}

set PROPERTIES_ORIGIN ["COM"]
properties('MP2/aug-cc-pvtz', properties = ['dipole'])
--------------------------------------------------------------------------

    Molecular point group: c1
  Charge       = 0
  Multiplicity = 1
  Basis Set: AUG-CC-PVTZ
    Blend: AUG-CC-PVTZ
  Basis Set: (AUG-CC-PVTZ AUX)
    Blend: AUG-CC-PVTZ-JKFIT

    Orbital Energies [Eh]
    ---------------------

    Doubly Occupied:

       1A    -80.117877     2A    -20.615270     3A    -20.607649
       4A    -20.599012     5A    -20.581043     6A    -20.576693
       7A    -20.575381     8A    -20.574137     9A    -20.573148
      10A    -20.523898    11A    -11.320470    12A    -11.303480
      13A    -11.299802    14A    -11.299272    15A    -11.297532
      16A    -11.296644    17A    -11.291455    18A    -11.229681
      19A     -7.633259    20A     -5.531758    21A     -5.531409
      22A     -5.530194    23A     -1.462010    24A     -1.412006
      25A     -1.395964    26A     -1.393428    27A     -1.387097
      28A     -1.373711    29A     -1.364551    30A     -1.354188
      31A     -1.304367    32A     -1.119003    33A     -1.040366
      34A     -1.011989    35A     -1.003995    36A     -0.881672
      37A     -0.864880    38A     -0.859750    39A     -0.822759
      40A     -0.809142    41A     -0.751838    42A     -0.744748
      43A     -0.732165    44A     -0.729860    45A     -0.708053
      46A     -0.687063    47A     -0.680545    48A     -0.673141
      49A     -0.662677    50A     -0.661235    51A     -0.643757
      52A     -0.635571    53A     -0.627973    54A     -0.615198
      55A     -0.604605    56A     -0.598756    57A     -0.581608
      58A     -0.576051    59A     -0.570548    60A     -0.559110
      61A     -0.556547    62A     -0.547947    63A     -0.541158
      64A     -0.536604    65A     -0.528259    66A     -0.522209
      67A     -0.513066    68A     -0.504156    69A     -0.497489
      70A     -0.482173    71A     -0.479963    72A     -0.476582
      73A     -0.462530    74A     -0.455687    75A     -0.449579
      76A     -0.436847

  @DF-RHF Final Energy: -1327.86136913005566

   => Energetics <=

    Nuclear Repulsion Energy =           1773.0203156723259781
    One-Electron Energy =               -5358.1528894080784085
    Two-Electron Energy =                2257.2712046056967665
    Total Energy =                      -1327.8613691300556638
  Basis Set: (AUG-CC-PVTZ AUX)
    Blend: AUG-CC-PVTZ-RI
    Molecular point group: c1

    Geometry (in Angstrom), charge = 0, multiplicity = 1:

       Center              X                  Y                   Z               Mass
    ------------   -----------------  -----------------  -----------------  -----------------
         P           -2.289526946001    -0.941101808209     0.343029135409    30.973761998420
         O           -0.981583946001    -0.202620808209     0.936640135409    15.994914619570
         O            1.330709153999    -1.657047308209     1.239003635409    15.994914619570
         O            0.079274053999     2.358545191791     0.460519135409    15.994914619570
         O            3.069084053999    -2.188130808209    -0.810238864591    15.994914619570
         O            2.847904053999     2.502054191791     0.369886135409    15.994914619570
         O            4.196257053999     0.434338191791    -0.974522864591    15.994914619570
         O           -2.826293946001     0.032292191791    -0.809179864591    15.994914619570
         O           -3.258551946001    -0.724340808209     1.620022135409    15.994914619570
         O           -2.118423946001    -2.344702808209    -0.101316864591    15.994914619570
         C            0.121213053999     0.028382991791     0.041186535409    12.000000000000
         C            0.953861053999    -1.245263808209    -0.077373864591    12.000000000000
         C            0.899158053999     1.201585191791     0.563202135409    12.000000000000
         C            2.260229053999    -1.015365808209    -0.819685864591    12.000000000000
         C            2.177644053999     1.395413191791    -0.229689864591    12.000000000000
         C            3.026411053999     0.147646191791    -0.211970864591    12.000000000000
         C           -3.123643946001     1.430539191791    -0.490534864591    12.000000000000
         C           -3.535747946001     2.084106191791    -1.785767864591    12.000000000000
         H           -0.282522946001     0.297742191791    -0.971886864591     1.007825032230
         H            0.370838053999    -2.030422808209    -0.573680864591     1.007825032230
         H            1.157689053999     0.996818191791     1.610507135409     1.007825032230
         H            2.061503053999    -0.789718808209    -1.874404864591     1.007825032230
         H            1.917556053999     1.635228191791    -1.275231864591     1.007825032230
         H            3.296424053999    -0.095590808209     0.825997135409     1.007825032230
         H            0.522344053999    -1.889090808209     1.709861135409     1.007825032230
         H            0.666109053999     3.108252191791     0.681535135409     1.007825032230
         H            2.974112053999    -2.548432808209     0.093005135409     1.007825032230
         H            3.721998053999     2.548127191791    -0.060517864591     1.007825032230
         H            4.640296053999    -0.424892808209    -1.098735864591     1.007825032230
         H           -3.807825946001    -1.523396808209     1.733079135409     1.007825032230
         H           -3.929976946001     1.444482191791     0.247737135409     1.007825032230
         H           -2.229192946001     1.891821191791    -0.060744864591     1.007825032230
         H           -3.799951946001     3.129823191791    -1.604319864591     1.007825032230
         H           -2.716626946001     2.052264191791    -2.506523864591     1.007825032230
         H           -4.400374946001     1.573264191791    -2.214372864591     1.007825032230

  Basis Set: AUG-CC-PVTZ
    Blend: AUG-CC-PVTZ
  Basis Set: (AUG-CC-PVTZ AUX)
    Blend: AUG-CC-PVTZ-JKFIT
	 Reference Energy          =   -1327.8613691300556638 [Eh]
	 Singles Energy            =      -0.0000000000000000 [Eh]
	 Same-Spin Energy          =      -1.0144877059697865 [Eh]
	 Opposite-Spin Energy      =      -3.0756202078810033 [Eh]
	 Correlation Energy        =      -4.0901079138507903 [Eh]
	 Total Energy              =   -1331.9514770439063795 [Eh]

	 ================> DF-SCS-MP2 Energies <==================
	-----------------------------------------------------------
	 SCS Same-Spin Scale       =       0.3333333333333333 [-]
	 SCS Opposite-Spin Scale   =       1.2000000000000000 [-]
	 SCS Same-Spin Energy      =      -0.3381625686565955 [Eh]
	 SCS Opposite-Spin Energy  =      -3.6907442494572038 [Eh]
	 SCS Correlation Energy    =      -4.0289068181137990 [Eh]
	 SCS Total Energy          =   -1331.8902759481695739 [Eh]
	-----------------------------------------------------------

  Dipole Moment: [D]
     X:    -1.1145      Y:     1.7993      Z:     0.7276     Total:     2.2381

*** Psi4 exiting successfully. Buy a developer a beer!
