                               Psi4 1.3.2 release

  ==> Input File <==

--------------------------------------------------------------------------
#psi4
#
memory 32 gb

molecule  {
0 1
  P       -2.2900960    -0.9400430     0.3446780
  O       -0.9821530    -0.2015620     0.9382890
  O        1.3422500    -1.6754830     1.2308510
  O        0.0787050     2.3596040     0.4621680
  O        3.0685150    -2.1870720    -0.8085900
  O        2.8473350     2.5031130     0.3715350
  O        4.1956880     0.4353970    -0.9728740
  O       -2.8268630     0.0333510    -0.8075310
  O       -3.2591210    -0.7232820     1.6216710
  O       -2.1189930    -2.3436440    -0.0996680
  C        0.1181620     0.0300090     0.0163190
  C        0.9532920    -1.2442050    -0.0757250
  C        0.8985890     1.2026440     0.5648510
  C        2.2596600    -1.0143070    -0.8180370
  C        2.1770750     1.3964720    -0.2280410
  C        3.1383221    -0.0166513    -0.2079738
  C       -3.1242130     1.4315980    -0.4888860
  C       -3.5363170     2.0851650    -1.7841190
  H       -0.2830920     0.2988010    -0.9702380
  H        0.3702690    -2.0293640    -0.5720320
  H        1.1571200     0.9978770     1.6121560
  H        2.0609340    -0.7886600    -1.8727560
  H        1.9169870     1.6362870    -1.2735830
  H        3.2958550    -0.0945320     0.8276460
  H        0.5217750    -1.8880320     1.7115100
  H        0.6655400     3.1093110     0.6831840
  H        2.9735430    -2.5473740     0.0946540
  H        3.7214290     2.5491860    -0.0588690
  H        4.6397270    -0.4238340    -1.0970870
  H       -3.8083950    -1.5223380     1.7347280
  H       -3.9305460     1.4455410     0.2493860
  H       -2.2297620     1.8928800    -0.0590960
  H       -3.8005210     3.1308820    -1.6026710
  H       -2.7171960     2.0533230    -2.5048750
  H       -4.4009440     1.5743230    -2.2127240
units angstrom
no_reorient  #important for SAPT in psi4, default
symmetry c1  #important for SAPT in psi4, default
}

set PROPERTIES_ORIGIN ["COM"]
properties('MP2/aug-cc-pvtz', properties = ['dipole'])
--------------------------------------------------------------------------

    Molecular point group: c1
  Charge       = 0
  Multiplicity = 1
  Basis Set: AUG-CC-PVTZ
    Blend: AUG-CC-PVTZ
  Basis Set: (AUG-CC-PVTZ AUX)
    Blend: AUG-CC-PVTZ-JKFIT

    Orbital Energies [Eh]
    ---------------------

    Doubly Occupied:

       1A    -80.116223     2A    -20.614105     3A    -20.605765
       4A    -20.598131     5A    -20.585954     6A    -20.583691
       7A    -20.574032     8A    -20.569352     9A    -20.568729
      10A    -20.523091    11A    -11.318911    12A    -11.305655
      13A    -11.298432    14A    -11.296993    15A    -11.294418
      16A    -11.293511    17A    -11.292964    18A    -11.229089
      19A     -7.631679    20A     -5.530185    21A     -5.529807
      22A     -5.528616    23A     -1.459384    24A     -1.417160
      25A     -1.402063    26A     -1.390733    27A     -1.386293
      28A     -1.377716    29A     -1.363058    30A     -1.355292
      31A     -1.303464    32A     -1.109145    33A     -1.039534
      34A     -1.011628    35A     -0.989491    36A     -0.884719
      37A     -0.865226    38A     -0.849162    39A     -0.823175
      40A     -0.810254    41A     -0.750070    42A     -0.745735
      43A     -0.730969    44A     -0.727461    45A     -0.705821
      46A     -0.690467    47A     -0.678355    48A     -0.672860
      49A     -0.665682    50A     -0.660311    51A     -0.641114
      52A     -0.633998    53A     -0.624952    54A     -0.614423
      55A     -0.606363    56A     -0.600304    57A     -0.586014
      58A     -0.575390    59A     -0.572884    60A     -0.562558
      61A     -0.557023    62A     -0.548998    63A     -0.540773
      64A     -0.534780    65A     -0.528798    66A     -0.522434
      67A     -0.510737    68A     -0.507942    69A     -0.494905
      70A     -0.484411    71A     -0.479061    72A     -0.476437
      73A     -0.461151    74A     -0.450791    75A     -0.446408
      76A     -0.404899

  @DF-RHF Final Energy: -1327.82493633415720

   => Energetics <=

    Nuclear Repulsion Energy =           1770.5746244411259340
    One-Electron Energy =               -5353.3548994217062500
    Two-Electron Energy =                2254.9553386464231153
    Total Energy =                      -1327.8249363341574281
  Basis Set: (AUG-CC-PVTZ AUX)
    Blend: AUG-CC-PVTZ-RI
    Molecular point group: c1

    Geometry (in Angstrom), charge = 0, multiplicity = 1:

       Center              X                  Y                   Z               Mass
    ------------   -----------------  -----------------  -----------------  -----------------
         P           -2.294781645235    -0.933154595948     0.344580169829    30.973761998420
         O           -0.986838645235    -0.194673595948     0.938191169829    15.994914619570
         O            1.337564354765    -1.668594595948     1.230753169829    15.994914619570
         O            0.074019354765     2.366492404052     0.462070169829    15.994914619570
         O            3.063829354765    -2.180183595948    -0.808687830171    15.994914619570
         O            2.842649354765     2.510001404052     0.371437169829    15.994914619570
         O            4.191002354765     0.442285404052    -0.972971830171    15.994914619570
         O           -2.831548645235     0.040239404052    -0.807628830171    15.994914619570
         O           -3.263806645235    -0.716393595948     1.621573169829    15.994914619570
         O           -2.123678645235    -2.336755595948    -0.099765830171    15.994914619570
         C            0.113476354765     0.036897404052     0.016221169829    12.000000000000
         C            0.948606354765    -1.237316595948    -0.075822830171    12.000000000000
         C            0.893903354765     1.209532404052     0.564753169829    12.000000000000
         C            2.254974354765    -1.007418595948    -0.818134830171    12.000000000000
         C            2.172389354765     1.403360404052    -0.228138830171    12.000000000000
         C            3.133636454765    -0.009762895948    -0.208071630171    12.000000000000
         C           -3.128898645235     1.438486404052    -0.488983830171    12.000000000000
         C           -3.541002645235     2.092053404052    -1.784216830171    12.000000000000
         H           -0.287777645235     0.305689404052    -0.970335830171     1.007825032230
         H            0.365583354765    -2.022475595948    -0.572129830171     1.007825032230
         H            1.152434354765     1.004765404052     1.612058169829     1.007825032230
         H            2.056248354765    -0.781771595948    -1.872853830171     1.007825032230
         H            1.912301354765     1.643175404052    -1.273680830171     1.007825032230
         H            3.291169354765    -0.087643595948     0.827548169829     1.007825032230
         H            0.517089354765    -1.881143595948     1.711412169829     1.007825032230
         H            0.660854354765     3.116199404052     0.683086169829     1.007825032230
         H            2.968857354765    -2.540485595948     0.094556169829     1.007825032230
         H            3.716743354765     2.556074404052    -0.058966830171     1.007825032230
         H            4.635041354765    -0.416945595948    -1.097184830171     1.007825032230
         H           -3.813080645235    -1.515449595948     1.734630169829     1.007825032230
         H           -3.935231645235     1.452429404052     0.249288169829     1.007825032230
         H           -2.234447645235     1.899768404052    -0.059193830171     1.007825032230
         H           -3.805206645235     3.137770404052    -1.602768830171     1.007825032230
         H           -2.721881645235     2.060211404052    -2.504972830171     1.007825032230
         H           -4.405629645235     1.581211404052    -2.212821830171     1.007825032230

  Basis Set: AUG-CC-PVTZ
    Blend: AUG-CC-PVTZ
  Basis Set: (AUG-CC-PVTZ AUX)
    Blend: AUG-CC-PVTZ-JKFIT
	 Reference Energy          =   -1327.8249363341572007 [Eh]
	 Singles Energy            =      -0.0000000000000000 [Eh]
	 Same-Spin Energy          =      -1.0159383077973794 [Eh]
	 Opposite-Spin Energy      =      -3.0790682381171939 [Eh]
	 Correlation Energy        =      -4.0950065459145737 [Eh]
	 Total Energy              =   -1331.9199428800718579 [Eh]

	 ================> DF-SCS-MP2 Energies <==================
	-----------------------------------------------------------
	 SCS Same-Spin Scale       =       0.3333333333333333 [-]
	 SCS Opposite-Spin Scale   =       1.2000000000000000 [-]
	 SCS Same-Spin Energy      =      -0.3386461025991264 [Eh]
	 SCS Opposite-Spin Energy  =      -3.6948818857406325 [Eh]
	 SCS Correlation Energy    =      -4.0335279883397588 [Eh]
	 SCS Total Energy          =   -1331.8584643224969568 [Eh]
	-----------------------------------------------------------

  Dipole Moment: [D]
     X:    -0.8326      Y:     1.8285      Z:     0.6421     Total:     2.1093

*** Psi4 exiting successfully. Buy a developer a beer!
