                               Psi4 1.3.2 release

  ==> Input File <==

--------------------------------------------------------------------------
#psi4
#
memory 32 gb

molecule  {
0 1
  P       -2.2900960    -0.9400430     0.3446780
  O       -0.9821530    -0.2015620     0.9382890
  O        1.3422500    -1.6754830     1.2308510
  O        0.0787050     2.3596040     0.4621680
  O        3.0685150    -2.1870720    -0.8085900
  O        2.8473350     2.5031130     0.3715350
  O        4.1956880     0.4353970    -0.9728740
  O       -2.8268630     0.0333510    -0.8075310
  O       -3.2591210    -0.7232820     1.6216710
  O       -2.1189930    -2.3436440    -0.0996680
  C        0.1181620     0.0300090     0.0163190
  C        0.9532920    -1.2442050    -0.0757250
  C        0.8985890     1.2026440     0.5648510
  C        2.2596600    -1.0143070    -0.8180370
  C        2.1770750     1.3964720    -0.2280410
  C        3.0258420     0.1487050    -0.2103220
  C       -3.1242130     1.4315980    -0.4888860
  C       -3.5363170     2.0851650    -1.7841190
  H       -0.2830920     0.2988010    -0.9702380
  H        0.3702690    -2.0293640    -0.5720320
  H        1.1571200     0.9978770     1.6121560
  H        2.0609340    -0.7886600    -1.8727560
  H        1.9169870     1.6362870    -1.2735830
  H        3.2958550    -0.0945320     0.8276460
  H        0.5217750    -1.8880320     1.7115100
  H        0.7856225     3.2627216     0.7284099
  H        2.9735430    -2.5473740     0.0946540
  H        3.7214290     2.5491860    -0.0588690
  H        4.6397270    -0.4238340    -1.0970870
  H       -3.8083950    -1.5223380     1.7347280
  H       -3.9305460     1.4455410     0.2493860
  H       -2.2297620     1.8928800    -0.0590960
  H       -3.8005210     3.1308820    -1.6026710
  H       -2.7171960     2.0533230    -2.5048750
  H       -4.4009440     1.5743230    -2.2127240
units angstrom
no_reorient  #important for SAPT in psi4, default
symmetry c1  #important for SAPT in psi4, default
}

set PROPERTIES_ORIGIN ["COM"]
properties('MP2/aug-cc-pvtz', properties = ['dipole'])
--------------------------------------------------------------------------

    Molecular point group: c1
  Charge       = 0
  Multiplicity = 1
  Basis Set: AUG-CC-PVTZ
    Blend: AUG-CC-PVTZ
  Basis Set: (AUG-CC-PVTZ AUX)
    Blend: AUG-CC-PVTZ-JKFIT

    Orbital Energies [Eh]
    ---------------------

    Doubly Occupied:

       1A    -80.116187     2A    -20.614075     3A    -20.606029
       4A    -20.598186     5A    -20.583158     6A    -20.582410
       7A    -20.578147     8A    -20.574160     9A    -20.573710
      10A    -20.522760    11A    -11.319685    12A    -11.302886
      13A    -11.298824    14A    -11.298599    15A    -11.296193
      16A    -11.295521    17A    -11.290822    18A    -11.229223
      19A     -7.631637    20A     -5.530143    21A     -5.529769
      22A     -5.528570    23A     -1.459384    24A     -1.409127
      25A     -1.394255    26A     -1.388626    27A     -1.385658
      28A     -1.369707    29A     -1.356821    30A     -1.336798
      31A     -1.303039    32A     -1.115414    33A     -1.039720
      34A     -1.010597    35A     -0.998275    36A     -0.879381
      37A     -0.864168    38A     -0.853511    39A     -0.821104
      40A     -0.809441    41A     -0.745920    42A     -0.743517
      43A     -0.728707    44A     -0.725678    45A     -0.705486
      46A     -0.677603    47A     -0.676658    48A     -0.672035
      49A     -0.661363    50A     -0.658463    51A     -0.636673
      52A     -0.627044    53A     -0.623509    54A     -0.614335
      55A     -0.599592    56A     -0.596926    57A     -0.580016
      58A     -0.574765    59A     -0.570344    60A     -0.555796
      61A     -0.552604    62A     -0.547136    63A     -0.540384
      64A     -0.535593    65A     -0.528769    66A     -0.517924
      67A     -0.512275    68A     -0.503129    69A     -0.494757
      70A     -0.482923    71A     -0.477908    72A     -0.475539
      73A     -0.459671    74A     -0.455127    75A     -0.446681
      76A     -0.435408

  @DF-RHF Final Energy: -1327.82580513732273

   => Energetics <=

    Nuclear Repulsion Energy =           1771.1778947327397873
    One-Electron Energy =               -5354.7354508813168650
    Two-Electron Energy =                2255.7317510112543459
    Total Energy =                      -1327.8258051373227318
  Basis Set: (AUG-CC-PVTZ AUX)
    Blend: AUG-CC-PVTZ-RI
    Molecular point group: c1

    Geometry (in Angstrom), charge = 0, multiplicity = 1:

       Center              X                  Y                   Z               Mass
    ------------   -----------------  -----------------  -----------------  -----------------
         P           -2.290516093949    -0.940579712507     0.344519761120    30.973761998420
         O           -0.982573093949    -0.202098712507     0.938130761120    15.994914619570
         O            1.341829906051    -1.676019712507     1.230692761120    15.994914619570
         O            0.078284906051     2.359067287493     0.462009761120    15.994914619570
         O            3.068094906051    -2.187608712507    -0.808748238880    15.994914619570
         O            2.846914906051     2.502576287493     0.371376761120    15.994914619570
         O            4.195267906051     0.434860287493    -0.973032238880    15.994914619570
         O           -2.827283093949     0.032814287493    -0.807689238880    15.994914619570
         O           -3.259541093949    -0.723818712507     1.621512761120    15.994914619570
         O           -2.119413093949    -2.344180712507    -0.099826238880    15.994914619570
         C            0.117741906051     0.029472287493     0.016160761120    12.000000000000
         C            0.952871906051    -1.244741712507    -0.075883238880    12.000000000000
         C            0.898168906051     1.202107287493     0.564692761120    12.000000000000
         C            2.259239906051    -1.014843712507    -0.818195238880    12.000000000000
         C            2.176654906051     1.395935287493    -0.228199238880    12.000000000000
         C            3.025421906051     0.148168287493    -0.210480238880    12.000000000000
         C           -3.124633093949     1.431061287493    -0.489044238880    12.000000000000
         C           -3.536737093949     2.084628287493    -1.784277238880    12.000000000000
         H           -0.283512093949     0.298264287493    -0.970396238880     1.007825032230
         H            0.369848906051    -2.029900712507    -0.572190238880     1.007825032230
         H            1.156699906051     0.997340287493     1.611997761120     1.007825032230
         H            2.060513906051    -0.789196712507    -1.872914238880     1.007825032230
         H            1.916566906051     1.635750287493    -1.273741238880     1.007825032230
         H            3.295434906051    -0.095068712507     0.827487761120     1.007825032230
         H            0.521354906051    -1.888568712507     1.711351761120     1.007825032230
         H            0.785202406051     3.262184887493     0.728251661120     1.007825032230
         H            2.973122906051    -2.547910712507     0.094495761120     1.007825032230
         H            3.721008906051     2.548649287493    -0.059027238880     1.007825032230
         H            4.639306906051    -0.424370712507    -1.097245238880     1.007825032230
         H           -3.808815093949    -1.522874712507     1.734569761120     1.007825032230
         H           -3.930966093949     1.445004287493     0.249227761120     1.007825032230
         H           -2.230182093949     1.892343287493    -0.059254238880     1.007825032230
         H           -3.800941093949     3.130345287493    -1.602829238880     1.007825032230
         H           -2.717616093949     2.052786287493    -2.505033238880     1.007825032230
         H           -4.401364093949     1.573786287493    -2.212882238880     1.007825032230

  Basis Set: AUG-CC-PVTZ
    Blend: AUG-CC-PVTZ
  Basis Set: (AUG-CC-PVTZ AUX)
    Blend: AUG-CC-PVTZ-JKFIT
	 Reference Energy          =   -1327.8258051373227318 [Eh]
	 Singles Energy            =      -0.0000000000000000 [Eh]
	 Same-Spin Energy          =      -1.0172031729167630 [Eh]
	 Opposite-Spin Energy      =      -3.0829666103415341 [Eh]
	 Correlation Energy        =      -4.1001697832582966 [Eh]
	 Total Energy              =   -1331.9259749205809840 [Eh]

	 ================> DF-SCS-MP2 Energies <==================
	-----------------------------------------------------------
	 SCS Same-Spin Scale       =       0.3333333333333333 [-]
	 SCS Opposite-Spin Scale   =       1.2000000000000000 [-]
	 SCS Same-Spin Energy      =      -0.3390677243055876 [Eh]
	 SCS Opposite-Spin Energy  =      -3.6995599324098407 [Eh]
	 SCS Correlation Energy    =      -4.0386276567154287 [Eh]
	 SCS Total Energy          =   -1331.8644327940380663 [Eh]
	-----------------------------------------------------------

  Dipole Moment: [D]
     X:    -0.9806      Y:     2.0418      Z:     0.7618     Total:     2.3897

*** Psi4 exiting successfully. Buy a developer a beer!
