                               Psi4 1.3.2 release

  ==> Input File <==

--------------------------------------------------------------------------
#psi4
#
memory 32 gb

molecule  {
0 1
  P       -2.2900960    -0.9400430     0.3446780
  O       -0.9821530    -0.2015620     0.9382890
  O        1.3422500    -1.6754830     1.2308510
  O        0.0787050     2.3596040     0.4621680
  O        3.0685150    -2.1870720    -0.8085900
  O        2.8473350     2.5031130     0.3715350
  O        4.2063536     0.4721493    -0.9410706
  O       -2.8268630     0.0333510    -0.8075310
  O       -3.2591210    -0.7232820     1.6216710
  O       -2.1189930    -2.3436440    -0.0996680
  C        0.1181620     0.0300090     0.0163190
  C        0.9532920    -1.2442050    -0.0757250
  C        0.8985890     1.2026440     0.5648510
  C        2.2237135    -1.0096490    -0.7793169
  C        2.1770750     1.3964720    -0.2280410
  C        3.0258420     0.1487050    -0.2103220
  C       -3.1242130     1.4315980    -0.4888860
  C       -3.5363170     2.0851650    -1.7841190
  H       -0.2830920     0.2988010    -0.9702380
  H        0.3702690    -2.0293640    -0.5720320
  H        1.1571200     0.9978770     1.6121560
  H        2.0609340    -0.7886600    -1.8727560
  H        1.9169870     1.6362870    -1.2735830
  H        3.2958550    -0.0945320     0.8276460
  H        0.5217750    -1.8880320     1.7115100
  H        0.6655400     3.1093110     0.6831840
  H        2.9735430    -2.5473740     0.0946540
  H        3.7214290     2.5491860    -0.0588690
  H        4.6397270    -0.4238340    -1.0970870
  H       -3.8083950    -1.5223380     1.7347280
  H       -3.9305460     1.4455410     0.2493860
  H       -2.2297620     1.8928800    -0.0590960
  H       -3.8005210     3.1308820    -1.6026710
  H       -2.7171960     2.0533230    -2.5048750
  H       -4.4009440     1.5743230    -2.2127240
units angstrom
no_reorient  #important for SAPT in psi4, default
symmetry c1  #important for SAPT in psi4, default
}

set PROPERTIES_ORIGIN ["COM"]
properties('MP2/aug-cc-pvtz', properties = ['dipole'])
--------------------------------------------------------------------------

    Molecular point group: c1
  Charge       = 0
  Multiplicity = 1
  Basis Set: AUG-CC-PVTZ
    Blend: AUG-CC-PVTZ
  Basis Set: (AUG-CC-PVTZ AUX)
    Blend: AUG-CC-PVTZ-JKFIT

    Orbital Energies [Eh]
    ---------------------

    Doubly Occupied:

       1A    -80.117649     2A    -20.615286     3A    -20.608053
       4A    -20.599461     5A    -20.584159     6A    -20.579451
       7A    -20.575508     8A    -20.574405     9A    -20.573457
      10A    -20.524226    11A    -11.322203    12A    -11.304253
      13A    -11.301672    14A    -11.299741    15A    -11.298664
      16A    -11.295648    17A    -11.291946    18A    -11.230122
      19A     -7.633102    20A     -5.531607    21A     -5.531235
      22A     -5.530034    23A     -1.461059    24A     -1.411031
      25A     -1.394193    26A     -1.391870    27A     -1.387119
      28A     -1.371659    29A     -1.361407    30A     -1.350025
      31A     -1.304608    32A     -1.123636    33A     -1.040795
      34A     -1.011951    35A     -1.009511    36A     -0.881582
      37A     -0.865642    38A     -0.856531    39A     -0.822117
      40A     -0.809430    41A     -0.753394    42A     -0.744643
      43A     -0.732296    44A     -0.729175    45A     -0.708672
      46A     -0.687363    47A     -0.676971    48A     -0.673634
      49A     -0.661357    50A     -0.653887    51A     -0.644148
      52A     -0.634114    53A     -0.627041    54A     -0.615344
      55A     -0.603102    56A     -0.595838    57A     -0.581969
      58A     -0.575552    59A     -0.572255    60A     -0.559222
      61A     -0.555516    62A     -0.548496    63A     -0.541169
      64A     -0.535441    65A     -0.530770    66A     -0.522237
      67A     -0.513998    68A     -0.506502    69A     -0.497743
      70A     -0.487321    71A     -0.480488    72A     -0.477395
      73A     -0.463418    74A     -0.453770    75A     -0.451238
      76A     -0.438508

  @DF-RHF Final Energy: -1327.85269891427151

   => Energetics <=

    Nuclear Repulsion Energy =           1773.0925539842962735
    One-Electron Energy =               -5358.2704407064102270
    Two-Electron Energy =                2257.3251878078422124
    Total Energy =                      -1327.8526989142715138
  Basis Set: (AUG-CC-PVTZ AUX)
    Blend: AUG-CC-PVTZ-RI
    Molecular point group: c1

    Geometry (in Angstrom), charge = 0, multiplicity = 1:

       Center              X                  Y                   Z               Mass
    ------------   -----------------  -----------------  -----------------  -----------------
         P           -2.289190733131    -0.942277737665     0.341299075182    30.973761998420
         O           -0.981247733131    -0.203796737665     0.934910075182    15.994914619570
         O            1.343155266869    -1.677717737665     1.227472075182    15.994914619570
         O            0.079610266869     2.357369262335     0.458789075182    15.994914619570
         O            3.069420266869    -2.189306737665    -0.811968924818    15.994914619570
         O            2.848240266869     2.500878262335     0.368156075182    15.994914619570
         O            4.207258866869     0.469914562335    -0.944449524818    15.994914619570
         O           -2.825957733131     0.031116262335    -0.810909924818    15.994914619570
         O           -3.258215733131    -0.725516737665     1.618292075182    15.994914619570
         O           -2.118087733131    -2.345878737665    -0.103046924818    15.994914619570
         C            0.119067266869     0.027774262335     0.012940075182    12.000000000000
         C            0.954197266869    -1.246439737665    -0.079103924818    12.000000000000
         C            0.899494266869     1.200409262335     0.561472075182    12.000000000000
         C            2.224618766869    -1.011883737665    -0.782695824818    12.000000000000
         C            2.177980266869     1.394237262335    -0.231419924818    12.000000000000
         C            3.026747266869     0.146470262335    -0.213700924818    12.000000000000
         C           -3.123307733131     1.429363262335    -0.492264924818    12.000000000000
         C           -3.535411733131     2.082930262335    -1.787497924818    12.000000000000
         H           -0.282186733131     0.296566262335    -0.973616924818     1.007825032230
         H            0.371174266869    -2.031598737665    -0.575410924818     1.007825032230
         H            1.158025266869     0.995642262335     1.608777075182     1.007825032230
         H            2.061839266869    -0.790894737665    -1.876134924818     1.007825032230
         H            1.917892266869     1.634052262335    -1.276961924818     1.007825032230
         H            3.296760266869    -0.096766737665     0.824267075182     1.007825032230
         H            0.522680266869    -1.890266737665     1.708131075182     1.007825032230
         H            0.666445266869     3.107076262335     0.679805075182     1.007825032230
         H            2.974448266869    -2.549608737665     0.091275075182     1.007825032230
         H            3.722334266869     2.546951262335    -0.062247924818     1.007825032230
         H            4.640632266869    -0.426068737665    -1.100465924818     1.007825032230
         H           -3.807489733131    -1.524572737665     1.731349075182     1.007825032230
         H           -3.929640733131     1.443306262335     0.246007075182     1.007825032230
         H           -2.228856733131     1.890645262335    -0.062474924818     1.007825032230
         H           -3.799615733131     3.128647262335    -1.606049924818     1.007825032230
         H           -2.716290733131     2.051088262335    -2.508253924818     1.007825032230
         H           -4.400038733131     1.572088262335    -2.216102924818     1.007825032230

  Basis Set: AUG-CC-PVTZ
    Blend: AUG-CC-PVTZ
  Basis Set: (AUG-CC-PVTZ AUX)
    Blend: AUG-CC-PVTZ-JKFIT
	 Reference Energy          =   -1327.8526989142715138 [Eh]
	 Singles Energy            =      -0.0000000000000000 [Eh]
	 Same-Spin Energy          =      -1.0158381005371728 [Eh]
	 Opposite-Spin Energy      =      -3.0786573954352416 [Eh]
	 Correlation Energy        =      -4.0944954959724145 [Eh]
	 Total Energy              =   -1331.9471944102440375 [Eh]

	 ================> DF-SCS-MP2 Energies <==================
	-----------------------------------------------------------
	 SCS Same-Spin Scale       =       0.3333333333333333 [-]
	 SCS Opposite-Spin Scale   =       1.2000000000000000 [-]
	 SCS Same-Spin Energy      =      -0.3386127001790576 [Eh]
	 SCS Opposite-Spin Energy  =      -3.6943888745222897 [Eh]
	 SCS Correlation Energy    =      -4.0330015747013475 [Eh]
	 SCS Total Energy          =   -1331.8857004889728159 [Eh]
	-----------------------------------------------------------

  Dipole Moment: [D]
     X:    -1.2112      Y:     1.8309      Z:     0.6894     Total:     2.3009

*** Psi4 exiting successfully. Buy a developer a beer!
