                               Psi4 1.3.2 release

  ==> Input File <==

--------------------------------------------------------------------------
#psi4
#
memory 32 gb

molecule  {
0 1
  P       -2.2900960    -0.9400430     0.3446780
  O       -0.9821530    -0.2015620     0.9382890
  O        1.3422500    -1.6754830     1.2308510
  O        0.0787050     2.3596040     0.4621680
  O        3.0685150    -2.1870720    -0.8085900
  O        2.8473350     2.5031130     0.3715350
  O        4.1956880     0.4353970    -0.9728740
  O       -2.8268630     0.0333510    -0.8075310
  O       -3.2591210    -0.7232820     1.6216710
  O       -2.1189930    -2.3436440    -0.0996680
  C        0.1181620     0.0300090     0.0163190
  C        0.9532920    -1.2442050    -0.0757250
  C        0.8985890     1.2026440     0.5648510
  C        2.2596600    -1.0143070    -0.8180370
  C        2.1770750     1.3964720    -0.2280410
  C        3.0090155     0.2213855    -0.2124629
  C       -3.1242130     1.4315980    -0.4888860
  C       -3.5363170     2.0851650    -1.7841190
  H       -0.2830920     0.2988010    -0.9702380
  H        0.3702690    -2.0293640    -0.5720320
  H        1.1571200     0.9978770     1.6121560
  H        2.0609340    -0.7886600    -1.8727560
  H        1.9169870     1.6362870    -1.2735830
  H        3.2958550    -0.0945320     0.8276460
  H        0.5217750    -1.8880320     1.7115100
  H        0.6655400     3.1093110     0.6831840
  H        2.9735430    -2.5473740     0.0946540
  H        3.7214290     2.5491860    -0.0588690
  H        4.6761697    -0.3996745    -1.1234410
  H       -3.8083950    -1.5223380     1.7347280
  H       -3.9305460     1.4455410     0.2493860
  H       -2.2297620     1.8928800    -0.0590960
  H       -3.8005210     3.1308820    -1.6026710
  H       -2.7171960     2.0533230    -2.5048750
  H       -4.4009440     1.5743230    -2.2127240
units angstrom
no_reorient  #important for SAPT in psi4, default
symmetry c1  #important for SAPT in psi4, default
}

set PROPERTIES_ORIGIN ["COM"]
properties('MP2/aug-cc-pvtz', properties = ['dipole'])
--------------------------------------------------------------------------

    Molecular point group: c1
  Charge       = 0
  Multiplicity = 1
  Basis Set: AUG-CC-PVTZ
    Blend: AUG-CC-PVTZ
  Basis Set: (AUG-CC-PVTZ AUX)
    Blend: AUG-CC-PVTZ-JKFIT

    Orbital Energies [Eh]
    ---------------------

    Doubly Occupied:

       1A    -80.116873     2A    -20.614678     3A    -20.607034
       4A    -20.598952     5A    -20.582158     6A    -20.576613
       7A    -20.575369     8A    -20.574941     9A    -20.571173
      10A    -20.523228    11A    -11.320840    12A    -11.302071
      13A    -11.300753    14A    -11.300419    15A    -11.299513
      16A    -11.295137    17A    -11.293128    18A    -11.229965
      19A     -7.632321    20A     -5.530827    21A     -5.530455
      22A     -5.529250    23A     -1.460257    24A     -1.410340
      25A     -1.395513    26A     -1.392101    27A     -1.386753
      28A     -1.371499    29A     -1.364178    30A     -1.352565
      31A     -1.303633    32A     -1.121928    33A     -1.040635
      34A     -1.018541    35A     -1.000928    36A     -0.879305
      37A     -0.865289    38A     -0.861099    39A     -0.822040
      40A     -0.809647    41A     -0.752237    42A     -0.745155
      43A     -0.732104    44A     -0.728703    45A     -0.708591
      46A     -0.685305    47A     -0.678793    48A     -0.674675
      49A     -0.667332    50A     -0.660634    51A     -0.643495
      52A     -0.636585    53A     -0.626691    54A     -0.615238
      55A     -0.603530    56A     -0.596442    57A     -0.580298
      58A     -0.575447    59A     -0.569828    60A     -0.559507
      61A     -0.555298    62A     -0.547995    63A     -0.540953
      64A     -0.534987    65A     -0.529145    66A     -0.521842
      67A     -0.512849    68A     -0.502981    69A     -0.497357
      70A     -0.485122    71A     -0.479802    72A     -0.476332
      73A     -0.465227    74A     -0.461266    75A     -0.450027
      76A     -0.425255

  @DF-RHF Final Energy: -1327.85481821937037

   => Energetics <=

    Nuclear Repulsion Energy =           1772.6018508956778987
    One-Electron Energy =               -5357.3353918345437705
    Two-Electron Energy =                2256.8787227194957268
    Total Energy =                      -1327.8548182193703724
  Basis Set: (AUG-CC-PVTZ AUX)
    Blend: AUG-CC-PVTZ-RI
    Molecular point group: c1

    Geometry (in Angstrom), charge = 0, multiplicity = 1:

       Center              X                  Y                   Z               Mass
    ------------   -----------------  -----------------  -----------------  -----------------
         P           -2.289522511808    -0.943155220669     0.344859379495    30.973761998420
         O           -0.981579511808    -0.204674220669     0.938470379495    15.994914619570
         O            1.342823488192    -1.678595220669     1.231032379495    15.994914619570
         O            0.079278488192     2.356491779331     0.462349379495    15.994914619570
         O            3.069088488192    -2.190184220669    -0.808408620505    15.994914619570
         O            2.847908488192     2.500000779331     0.371716379495    15.994914619570
         O            4.196261488192     0.432284779331    -0.972692620505    15.994914619570
         O           -2.826289511808     0.030238779331    -0.807349620505    15.994914619570
         O           -3.258547511808    -0.726394220669     1.621852379495    15.994914619570
         O           -2.118419511808    -2.346756220669    -0.099486620505    15.994914619570
         C            0.118735488192     0.026896779331     0.016500379495    12.000000000000
         C            0.953865488192    -1.247317220669    -0.075543620505    12.000000000000
         C            0.899162488192     1.199531779331     0.565032379495    12.000000000000
         C            2.260233488192    -1.017419220669    -0.817855620505    12.000000000000
         C            2.177648488192     1.393359779331    -0.227859620505    12.000000000000
         C            3.009588988192     0.218273279331    -0.212281520505    12.000000000000
         C           -3.123639511808     1.428485779331    -0.488704620505    12.000000000000
         C           -3.535743511808     2.082052779331    -1.783937620505    12.000000000000
         H           -0.282518511808     0.295688779331    -0.970056620505     1.007825032230
         H            0.370842488192    -2.032476220669    -0.571850620505     1.007825032230
         H            1.157693488192     0.994764779331     1.612337379495     1.007825032230
         H            2.061507488192    -0.791772220669    -1.872574620505     1.007825032230
         H            1.917560488192     1.633174779331    -1.273401620505     1.007825032230
         H            3.296428488192    -0.097644220669     0.827827379495     1.007825032230
         H            0.522348488192    -1.891144220669     1.711691379495     1.007825032230
         H            0.666113488192     3.106198779331     0.683365379495     1.007825032230
         H            2.974116488192    -2.550486220669     0.094835379495     1.007825032230
         H            3.722002488192     2.546073779331    -0.058687620505     1.007825032230
         H            4.676743188192    -0.402786720669    -1.123259620505     1.007825032230
         H           -3.807821511808    -1.525450220669     1.734909379495     1.007825032230
         H           -3.929972511808     1.442428779331     0.249567379495     1.007825032230
         H           -2.229188511808     1.889767779331    -0.058914620505     1.007825032230
         H           -3.799947511808     3.127769779331    -1.602489620505     1.007825032230
         H           -2.716622511808     2.050210779331    -2.504693620505     1.007825032230
         H           -4.400370511808     1.571210779331    -2.212542620505     1.007825032230

  Basis Set: AUG-CC-PVTZ
    Blend: AUG-CC-PVTZ
  Basis Set: (AUG-CC-PVTZ AUX)
    Blend: AUG-CC-PVTZ-JKFIT
	 Reference Energy          =   -1327.8548182193703724 [Eh]
	 Singles Energy            =      -0.0000000000000000 [Eh]
	 Same-Spin Energy          =      -1.0148897983301812 [Eh]
	 Opposite-Spin Energy      =      -3.0762644177945266 [Eh]
	 Correlation Energy        =      -4.0911542161247079 [Eh]
	 Total Energy              =   -1331.9459724354951504 [Eh]

	 ================> DF-SCS-MP2 Energies <==================
	-----------------------------------------------------------
	 SCS Same-Spin Scale       =       0.3333333333333333 [-]
	 SCS Opposite-Spin Scale   =       1.2000000000000000 [-]
	 SCS Same-Spin Energy      =      -0.3382965994433937 [Eh]
	 SCS Opposite-Spin Energy  =      -3.6915173013534317 [Eh]
	 SCS Correlation Energy    =      -4.0298139007968254 [Eh]
	 SCS Total Energy          =   -1331.8846321201672254 [Eh]
	-----------------------------------------------------------

  Dipole Moment: [D]
     X:    -1.0923      Y:     1.9038      Z:     0.6845     Total:     2.2992

*** Psi4 exiting successfully. Buy a developer a beer!
