                               Psi4 1.3.2 release

  ==> Input File <==

--------------------------------------------------------------------------
#psi4
#
memory 32 gb

molecule  {
0 1
  P       -2.2900960    -0.9400430     0.3446780
  O       -0.9746344    -0.2132886     0.9361439
  O        1.3422500    -1.6754830     1.2308510
  O        0.0787050     2.3596040     0.4621680
  O        3.0685150    -2.1870720    -0.8085900
  O        2.8473350     2.5031130     0.3715350
  O        4.1956880     0.4353970    -0.9728740
  O       -2.8268630     0.0333510    -0.8075310
  O       -3.2591210    -0.7232820     1.6216710
  O       -2.1065204    -2.3431362    -0.0962810
  C        0.1181620     0.0300090     0.0163190
  C        0.9532920    -1.2442050    -0.0757250
  C        0.8985890     1.2026440     0.5648510
  C        2.2596600    -1.0143070    -0.8180370
  C        2.1770750     1.3964720    -0.2280410
  C        3.0258420     0.1487050    -0.2103220
  C       -3.1242130     1.4315980    -0.4888860
  C       -3.5363170     2.0851650    -1.7841190
  H       -0.2830920     0.2988010    -0.9702380
  H        0.3702690    -2.0293640    -0.5720320
  H        1.1571200     0.9978770     1.6121560
  H        2.0609340    -0.7886600    -1.8727560
  H        1.9169870     1.6362870    -1.2735830
  H        3.2958550    -0.0945320     0.8276460
  H        0.5217750    -1.8880320     1.7115100
  H        0.6655400     3.1093110     0.6831840
  H        2.9735430    -2.5473740     0.0946540
  H        3.7214290     2.5491860    -0.0588690
  H        4.6397270    -0.4238340    -1.0970870
  H       -3.8083950    -1.5223380     1.7347280
  H       -3.9305460     1.4455410     0.2493860
  H       -2.2297620     1.8928800    -0.0590960
  H       -3.8005210     3.1308820    -1.6026710
  H       -2.7171960     2.0533230    -2.5048750
  H       -4.4009440     1.5743230    -2.2127240
units angstrom
no_reorient  #important for SAPT in psi4, default
symmetry c1  #important for SAPT in psi4, default
}

set PROPERTIES_ORIGIN ["COM"]
properties('MP2/aug-cc-pvtz', properties = ['dipole'])
--------------------------------------------------------------------------

    Molecular point group: c1
  Charge       = 0
  Multiplicity = 1
  Basis Set: AUG-CC-PVTZ
    Blend: AUG-CC-PVTZ
  Basis Set: (AUG-CC-PVTZ AUX)
    Blend: AUG-CC-PVTZ-JKFIT

    Orbital Energies [Eh]
    ---------------------

    Doubly Occupied:

       1A    -80.117393     2A    -20.615713     3A    -20.606313
       4A    -20.599959     5A    -20.582352     6A    -20.576578
       7A    -20.574024     8A    -20.573754     9A    -20.573392
      10A    -20.522975    11A    -11.319947    12A    -11.302485
      13A    -11.300040    14A    -11.298646    15A    -11.298293
      16A    -11.296412    17A    -11.291032    18A    -11.230292
      19A     -7.632814    20A     -5.531307    21A     -5.530959
      22A     -5.529744    23A     -1.460895    24A     -1.410855
      25A     -1.394993    26A     -1.392752    27A     -1.387667
      28A     -1.372640    29A     -1.363577    30A     -1.353506
      31A     -1.303636    32A     -1.118513    33A     -1.041007
      34A     -1.011640    35A     -1.002936    36A     -0.880379
      37A     -0.865291    38A     -0.858801    39A     -0.822697
      40A     -0.810264    41A     -0.751507    42A     -0.745262
      43A     -0.731470    44A     -0.729481    45A     -0.708054
      46A     -0.687119    47A     -0.677680    48A     -0.673912
      49A     -0.662274    50A     -0.660956    51A     -0.643060
      52A     -0.635024    53A     -0.627317    54A     -0.615389
      55A     -0.603859    56A     -0.598065    57A     -0.581579
      58A     -0.576057    59A     -0.571087    60A     -0.559258
      61A     -0.556172    62A     -0.548686    63A     -0.541426
      64A     -0.536205    65A     -0.530182    66A     -0.521350
      67A     -0.513248    68A     -0.503980    69A     -0.497113
      70A     -0.484354    71A     -0.480111    72A     -0.476583
      73A     -0.461732    74A     -0.455603    75A     -0.449393
      76A     -0.435728

  @DF-RHF Final Energy: -1327.86164235453407

   => Energetics <=

    Nuclear Repulsion Energy =           1772.7466601585679200
    One-Electron Energy =               -5357.6431146437762436
    Two-Electron Energy =                2257.0348121306742541
    Total Energy =                      -1327.8616423545340695
  Basis Set: (AUG-CC-PVTZ AUX)
    Blend: AUG-CC-PVTZ-RI
    Molecular point group: c1

    Geometry (in Angstrom), charge = 0, multiplicity = 1:

       Center              X                  Y                   Z               Mass
    ------------   -----------------  -----------------  -----------------  -----------------
         P           -2.291206001207    -0.939420045739     0.344609032865    30.973761998420
         O           -0.975744401207    -0.212665645739     0.936074932865    15.994914619570
         O            1.341139998793    -1.674860045739     1.230782032865    15.994914619570
         O            0.077594998793     2.360226954261     0.462099032865    15.994914619570
         O            3.067404998793    -2.186449045739    -0.808658967135    15.994914619570
         O            2.846224998793     2.503735954261     0.371466032865    15.994914619570
         O            4.194577998793     0.436019954261    -0.972942967135    15.994914619570
         O           -2.827973001207     0.033973954261    -0.807599967135    15.994914619570
         O           -3.260231001207    -0.722659045739     1.621602032865    15.994914619570
         O           -2.107630401207    -2.342513245739    -0.096349967135    15.994914619570
         C            0.117051998793     0.030631954261     0.016250032865    12.000000000000
         C            0.952181998793    -1.243582045739    -0.075793967135    12.000000000000
         C            0.897478998793     1.203266954261     0.564782032865    12.000000000000
         C            2.258549998793    -1.013684045739    -0.818105967135    12.000000000000
         C            2.175964998793     1.397094954261    -0.228109967135    12.000000000000
         C            3.024731998793     0.149327954261    -0.210390967135    12.000000000000
         C           -3.125323001207     1.432220954261    -0.488954967135    12.000000000000
         C           -3.537427001207     2.085787954261    -1.784187967135    12.000000000000
         H           -0.284202001207     0.299423954261    -0.970306967135     1.007825032230
         H            0.369158998793    -2.028741045739    -0.572100967135     1.007825032230
         H            1.156009998793     0.998499954261     1.612087032865     1.007825032230
         H            2.059823998793    -0.788037045739    -1.872824967135     1.007825032230
         H            1.915876998793     1.636909954261    -1.273651967135     1.007825032230
         H            3.294744998793    -0.093909045739     0.827577032865     1.007825032230
         H            0.520664998793    -1.887409045739     1.711441032865     1.007825032230
         H            0.664429998793     3.109933954261     0.683115032865     1.007825032230
         H            2.972432998793    -2.546751045739     0.094585032865     1.007825032230
         H            3.720318998793     2.549808954261    -0.058937967135     1.007825032230
         H            4.638616998793    -0.423211045739    -1.097155967135     1.007825032230
         H           -3.809505001207    -1.521715045739     1.734659032865     1.007825032230
         H           -3.931656001207     1.446163954261     0.249317032865     1.007825032230
         H           -2.230872001207     1.893502954261    -0.059164967135     1.007825032230
         H           -3.801631001207     3.131504954261    -1.602739967135     1.007825032230
         H           -2.718306001207     2.053945954261    -2.504943967135     1.007825032230
         H           -4.402054001207     1.574945954261    -2.212792967135     1.007825032230

  Basis Set: AUG-CC-PVTZ
    Blend: AUG-CC-PVTZ
  Basis Set: (AUG-CC-PVTZ AUX)
    Blend: AUG-CC-PVTZ-JKFIT
	 Reference Energy          =   -1327.8616423545340695 [Eh]
	 Singles Energy            =      -0.0000000000000000 [Eh]
	 Same-Spin Energy          =      -1.0145641822831564 [Eh]
	 Opposite-Spin Energy      =      -3.0759182744211735 [Eh]
	 Correlation Energy        =      -4.0904824567043301 [Eh]
	 Total Energy              =   -1331.9521248112384910 [Eh]

	 ================> DF-SCS-MP2 Energies <==================
	-----------------------------------------------------------
	 SCS Same-Spin Scale       =       0.3333333333333333 [-]
	 SCS Opposite-Spin Scale   =       1.2000000000000000 [-]
	 SCS Same-Spin Energy      =      -0.3381880607610521 [Eh]
	 SCS Opposite-Spin Energy  =      -3.6911019293054079 [Eh]
	 SCS Correlation Energy    =      -4.0292899900664603 [Eh]
	 SCS Total Energy          =   -1331.8909323446005146 [Eh]
	-----------------------------------------------------------

  Dipole Moment: [D]
     X:    -1.2061      Y:     1.8886      Z:     0.7202     Total:     2.3538

*** Psi4 exiting successfully. Buy a developer a beer!
