                               Psi4 1.4a3.dev225

  ==> Input File <==

--------------------------------------------------------------------------
#psi4
#
memory 32 gb

molecule  {
0 1
  P       -2.3219140    -1.0563120    -0.0968450
  O       -1.0444970    -0.5684188     0.7444627
  O        1.3695440    -1.8069540     1.2202350
  O       -0.1592450     2.1412630     0.5207450
  O        3.3269040    -2.0858120    -0.6453880
  O        2.5724350     2.5270130     0.6374560
  O        4.2203020     0.6406430    -0.6358120
  O       -2.8737010     0.2643620    -0.8096810
  O       -3.3065970    -1.3497020     1.1531960
  O       -2.1044560    -2.1814480    -1.0350500
  C        0.1200290    -0.1583450    -0.0432010
  C        1.0698050    -1.3527180    -0.1046720
  C        0.7441670     1.0454510     0.6308160
  C        2.4193320    -0.9866070    -0.7068450
  C        2.0603010     1.3853380    -0.0470020
  C        3.0180900     0.2181970     0.0056710
  C       -3.2473180     1.4231610     0.0025120
  C       -3.2076300     2.6262440    -0.9075720
  H       -0.2047330     0.1313700    -1.0514980
  H        0.5965010    -2.1549610    -0.6866410
  H        0.9371260     0.8063110     1.6860210
  H        2.3054700    -0.7437210    -1.7704410
  H        1.8633300     1.6367370    -1.1028410
  H        3.2142070    -0.0417910     1.0561650
  H        0.5126160    -2.0057500     1.6426110
  H        0.3598300     2.9232990     0.7925780
  H        3.1793900    -2.4823080     0.2360710
  H        3.4672560     2.6739710     0.2770410
  H        4.7639490    -0.1654590    -0.7244900
  H       -3.7873380    -2.1826420     0.9908450
  H       -4.2474700     1.2335250     0.4005830
  H       -2.5352900     1.5309660     0.8217280
  H       -3.5402110     3.5125760    -0.3587690
  H       -2.1856630     2.7912820    -1.2511950
  H       -3.8637180     2.4807570    -1.7684970
units angstrom
no_reorient  #important for SAPT in psi4, default
symmetry c1  #important for SAPT in psi4, default
}

set PROPERTIES_ORIGIN ["COM"]
properties('MP2/aug-cc-pvtz', properties = ['dipole'])
--------------------------------------------------------------------------

    Molecular point group: c1
  Charge       = 0
  Multiplicity = 1
  Basis Set: AUG-CC-PVTZ
    Blend: AUG-CC-PVTZ
  Basis Set: (AUG-CC-PVTZ AUX)
    Blend: AUG-CC-PVTZ-JKFIT

    Orbital Energies [Eh]
    ---------------------

    Doubly Occupied:

       1A    -80.113835     2A    -20.613252     3A    -20.608072
       4A    -20.594178     5A    -20.585068     6A    -20.579358
       7A    -20.576011     8A    -20.575947     9A    -20.575415
      10A    -20.520408    11A    -11.323845    12A    -11.306501
      13A    -11.302109    14A    -11.301225    15A    -11.299516
      16A    -11.295419    17A    -11.293825    18A    -11.222459
      19A     -7.629483    20A     -5.528021    21A     -5.527558
      22A     -5.526443    23A     -1.459849    24A     -1.411102
      25A     -1.396065    26A     -1.393101    27A     -1.383853
      28A     -1.373821    29A     -1.365054    30A     -1.355129
      31A     -1.300897    32A     -1.120376    33A     -1.034873
      34A     -1.013237    35A     -1.004582    36A     -0.878738
      37A     -0.861937    38A     -0.860437    39A     -0.822387
      40A     -0.810637    41A     -0.755045    42A     -0.746625
      43A     -0.729575    44A     -0.726364    45A     -0.706166
      46A     -0.687316    47A     -0.679387    48A     -0.674858
      49A     -0.662890    50A     -0.659057    51A     -0.642658
      52A     -0.638282    53A     -0.624015    54A     -0.612963
      55A     -0.604843    56A     -0.597789    57A     -0.580890
      58A     -0.578617    59A     -0.569134    60A     -0.560601
      61A     -0.555493    62A     -0.548132    63A     -0.539214
      64A     -0.537471    65A     -0.530308    66A     -0.518737
      67A     -0.508832    68A     -0.503643    69A     -0.494535
      70A     -0.487911    71A     -0.477903    72A     -0.474170
      73A     -0.463387    74A     -0.458064    75A     -0.451873
      76A     -0.437524

  @DF-RHF Final Energy: -1327.86203050321342

   => Energetics <=

    Nuclear Repulsion Energy =           1774.9532487744211267
    One-Electron Energy =               -5362.0939725916232419
    Two-Electron Energy =                2259.2786933139886969
    Total Energy =                      -1327.8620305032136457
  Basis Set: (AUG-CC-PVTZ AUX)
    Blend: AUG-CC-PVTZ-RI
    Molecular point group: c1

    Geometry (in Angstrom), charge = 0, multiplicity = 1:

       Center              X                  Y                   Z               Mass
    ------------   -----------------  -----------------  -----------------  -----------------
         P           -2.310269029716    -1.018195464411    -0.098707547110    30.973761998420
         O           -1.032852029716    -0.530302264411     0.742600152890    15.994914619570
         O            1.381188970284    -1.768837464411     1.218372452890    15.994914619570
         O           -0.147600029716     2.179379535589     0.518882452890    15.994914619570
         O            3.338548970284    -2.047695464411    -0.647250547110    15.994914619570
         O            2.584079970284     2.565129535589     0.635593452890    15.994914619570
         O            4.231946970284     0.678759535589    -0.637674547110    15.994914619570
         O           -2.862056029716     0.302478535589    -0.811543547110    15.994914619570
         O           -3.294952029716    -1.311585464411     1.151333452890    15.994914619570
         O           -2.092811029716    -2.143331464411    -1.036912547110    15.994914619570
         C            0.131673970284    -0.120228464411    -0.045063547110    12.000000000000
         C            1.081449970284    -1.314601464411    -0.106534547110    12.000000000000
         C            0.755811970284     1.083567535589     0.628953452890    12.000000000000
         C            2.430976970284    -0.948490464411    -0.708707547110    12.000000000000
         C            2.071945970284     1.423454535589    -0.048864547110    12.000000000000
         C            3.029734970284     0.256313535589     0.003808452890    12.000000000000
         C           -3.235673029716     1.461277535589     0.000649452890    12.000000000000
         C           -3.195985029716     2.664360535589    -0.909434547110    12.000000000000
         H           -0.193088029716     0.169486535589    -1.053360547110     1.007825032230
         H            0.608145970284    -2.116844464411    -0.688503547110     1.007825032230
         H            0.948770970284     0.844427535589     1.684158452890     1.007825032230
         H            2.317114970284    -0.705604464411    -1.772303547110     1.007825032230
         H            1.874974970284     1.674853535589    -1.104703547110     1.007825032230
         H            3.225851970284    -0.003674464411     1.054302452890     1.007825032230
         H            0.524260970284    -1.967633464411     1.640748452890     1.007825032230
         H            0.371474970284     2.961415535589     0.790715452890     1.007825032230
         H            3.191034970284    -2.444191464411     0.234208452890     1.007825032230
         H            3.478900970284     2.712087535589     0.275178452890     1.007825032230
         H            4.775593970284    -0.127342464411    -0.726352547110     1.007825032230
         H           -3.775693029716    -2.144525464411     0.988982452890     1.007825032230
         H           -4.235825029716     1.271641535589     0.398720452890     1.007825032230
         H           -2.523645029716     1.569082535589     0.819865452890     1.007825032230
         H           -3.528566029716     3.550692535589    -0.360631547110     1.007825032230
         H           -2.174018029716     2.829398535589    -1.253057547110     1.007825032230
         H           -3.852073029716     2.518873535589    -1.770359547110     1.007825032230

  Basis Set: AUG-CC-PVTZ
    Blend: AUG-CC-PVTZ
  Basis Set: (AUG-CC-PVTZ AUX)
    Blend: AUG-CC-PVTZ-JKFIT
	 Reference Energy          =   -1327.8620305032134183 [Eh]
	 Singles Energy            =      -0.0000000000000000 [Eh]
	 Same-Spin Energy          =      -1.0144016906635835 [Eh]
	 Opposite-Spin Energy      =      -3.0758921035347973 [Eh]
	 Correlation Energy        =      -4.0902937941983808 [Eh]
	 Total Energy              =   -1331.9523242974119057 [Eh]

	 ================> DF-SCS-MP2 Energies <==================
	-----------------------------------------------------------
	 SCS Same-Spin Scale       =       0.3333333333333333 [-]
	 SCS Opposite-Spin Scale   =       1.2000000000000000 [-]
	 SCS Same-Spin Energy      =      -0.3381338968878612 [Eh]
	 SCS Opposite-Spin Energy  =      -3.6910705242417565 [Eh]
	 SCS Correlation Energy    =      -4.0292044211296174 [Eh]
	 SCS Total Energy          =   -1331.8912349243430526 [Eh]
	-----------------------------------------------------------

  Dipole Moment: [D]
     X:    -0.7002      Y:     1.4554      Z:     1.9115     Total:     2.5024

*** Psi4 exiting successfully. Buy a developer a beer!
