                               Psi4 1.3.2 release

  ==> Input File <==

--------------------------------------------------------------------------
#psi4
#
memory 32 gb

molecule  {
0 1
  P       -2.2900960    -0.9400430     0.3446780
  O       -0.9821530    -0.2015620     0.9382890
  O        1.3422500    -1.6754830     1.2308510
  O        0.0787050     2.3596040     0.4621680
  O        3.0685150    -2.1870720    -0.8085900
  O        2.8473350     2.5031130     0.3715350
  O        4.1956880     0.4353970    -0.9728740
  O       -2.8268630     0.0333510    -0.8075310
  O       -3.1992168    -0.7366820     1.5427285
  O       -2.1189930    -2.3436440    -0.0996680
  C        0.1181620     0.0300090     0.0163190
  C        0.9532920    -1.2442050    -0.0757250
  C        0.8985890     1.2026440     0.5648510
  C        2.2596600    -1.0143070    -0.8180370
  C        2.1770750     1.3964720    -0.2280410
  C        3.0258420     0.1487050    -0.2103220
  C       -3.1242130     1.4315980    -0.4888860
  C       -3.5363170     2.0851650    -1.7841190
  H       -0.2830920     0.2988010    -0.9702380
  H        0.3702690    -2.0293640    -0.5720320
  H        1.1571200     0.9978770     1.6121560
  H        2.0609340    -0.7886600    -1.8727560
  H        1.9169870     1.6362870    -1.2735830
  H        3.2958550    -0.0945320     0.8276460
  H        0.5217750    -1.8880320     1.7115100
  H        0.6655400     3.1093110     0.6831840
  H        2.9735430    -2.5473740     0.0946540
  H        3.7214290     2.5491860    -0.0588690
  H        4.6397270    -0.4238340    -1.0970870
  H       -3.8083950    -1.5223380     1.7347280
  H       -3.9305460     1.4455410     0.2493860
  H       -2.2297620     1.8928800    -0.0590960
  H       -3.8005210     3.1308820    -1.6026710
  H       -2.7171960     2.0533230    -2.5048750
  H       -4.4009440     1.5743230    -2.2127240
units angstrom
no_reorient  #important for SAPT in psi4, default
symmetry c1  #important for SAPT in psi4, default
}

set PROPERTIES_ORIGIN ["COM"]
properties('MP2/aug-cc-pvtz', properties = ['dipole'])
--------------------------------------------------------------------------

    Molecular point group: c1
  Charge       = 0
  Multiplicity = 1
  Basis Set: AUG-CC-PVTZ
    Blend: AUG-CC-PVTZ
  Basis Set: (AUG-CC-PVTZ AUX)
    Blend: AUG-CC-PVTZ-JKFIT

    Orbital Energies [Eh]
    ---------------------

    Doubly Occupied:

       1A    -80.103731     2A    -20.620768     3A    -20.601378
       4A    -20.592146     5A    -20.581110     6A    -20.575390
       7A    -20.572993     8A    -20.572744     9A    -20.571769
      10A    -20.514568    11A    -11.317205    12A    -11.300972
      13A    -11.297465    14A    -11.297250    15A    -11.296472
      16A    -11.294945    17A    -11.289870    18A    -11.228192
      19A     -7.621836    20A     -5.520815    21A     -5.519706
      22A     -5.518563    23A     -1.474536    24A     -1.412506
      25A     -1.397284    26A     -1.391851    27A     -1.385530
      28A     -1.370449    29A     -1.362279    30A     -1.352255
      31A     -1.296749    32A     -1.116806    33A     -1.038124
      34A     -1.009764    35A     -1.001414    36A     -0.881150
      37A     -0.862688    38A     -0.857439    39A     -0.830642
      40A     -0.808803    41A     -0.751101    42A     -0.745860
      43A     -0.731993    44A     -0.729933    45A     -0.707756
      46A     -0.686097    47A     -0.680597    48A     -0.674545
      49A     -0.664991    50A     -0.659925    51A     -0.643404
      52A     -0.632456    53A     -0.624300    54A     -0.614853
      55A     -0.603618    56A     -0.596828    57A     -0.581630
      58A     -0.578947    59A     -0.568605    60A     -0.557832
      61A     -0.554958    62A     -0.546441    63A     -0.539717
      64A     -0.534804    65A     -0.527555    66A     -0.519070
      67A     -0.510814    68A     -0.502270    69A     -0.493690
      70A     -0.481843    71A     -0.475819    72A     -0.471062
      73A     -0.459356    74A     -0.454350    75A     -0.447221
      76A     -0.434268

  @DF-RHF Final Energy: -1327.85778423507168

   => Energetics <=

    Nuclear Repulsion Energy =           1777.3501237715483967
    One-Electron Energy =               -5367.1184723598798882
    Two-Electron Energy =                2261.9105643532598151
    Total Energy =                      -1327.8577842350719038
  Basis Set: (AUG-CC-PVTZ AUX)
    Blend: AUG-CC-PVTZ-RI
    Molecular point group: c1

    Geometry (in Angstrom), charge = 0, multiplicity = 1:

       Center              X                  Y                   Z               Mass
    ------------   -----------------  -----------------  -----------------  -----------------
         P           -2.293422215776    -0.939298932136     0.349061362568    30.973761998420
         O           -0.985479215776    -0.200817932136     0.942672362568    15.994914619570
         O            1.338923784224    -1.674738932136     1.235234362568    15.994914619570
         O            0.075378784224     2.360348067864     0.466551362568    15.994914619570
         O            3.065188784224    -2.186327932136    -0.804206637432    15.994914619570
         O            2.844008784224     2.503857067864     0.375918362568    15.994914619570
         O            4.192361784224     0.436141067864    -0.968490637432    15.994914619570
         O           -2.830189215776     0.034095067864    -0.803147637432    15.994914619570
         O           -3.202543015776    -0.735937932136     1.547111862568    15.994914619570
         O           -2.122319215776    -2.342899932136    -0.095284637432    15.994914619570
         C            0.114835784224     0.030753067864     0.020702362568    12.000000000000
         C            0.949965784224    -1.243460932136    -0.071341637432    12.000000000000
         C            0.895262784224     1.203388067864     0.569234362568    12.000000000000
         C            2.256333784224    -1.013562932136    -0.813653637432    12.000000000000
         C            2.173748784224     1.397216067864    -0.223657637432    12.000000000000
         C            3.022515784224     0.149449067864    -0.205938637432    12.000000000000
         C           -3.127539215776     1.432342067864    -0.484502637432    12.000000000000
         C           -3.539643215776     2.085909067864    -1.779735637432    12.000000000000
         H           -0.286418215776     0.299545067864    -0.965854637432     1.007825032230
         H            0.366942784224    -2.028619932136    -0.567648637432     1.007825032230
         H            1.153793784224     0.998621067864     1.616539362568     1.007825032230
         H            2.057607784224    -0.787915932136    -1.868372637432     1.007825032230
         H            1.913660784224     1.637031067864    -1.269199637432     1.007825032230
         H            3.292528784224    -0.093787932136     0.832029362568     1.007825032230
         H            0.518448784224    -1.887287932136     1.715893362568     1.007825032230
         H            0.662213784224     3.110055067864     0.687567362568     1.007825032230
         H            2.970216784224    -2.546629932136     0.099037362568     1.007825032230
         H            3.718102784224     2.549930067864    -0.054485637432     1.007825032230
         H            4.636400784224    -0.423089932136    -1.092703637432     1.007825032230
         H           -3.811721215776    -1.521593932136     1.739111362568     1.007825032230
         H           -3.933872215776     1.446285067864     0.253769362568     1.007825032230
         H           -2.233088215776     1.893624067864    -0.054712637432     1.007825032230
         H           -3.803847215776     3.131626067864    -1.598287637432     1.007825032230
         H           -2.720522215776     2.054067067864    -2.500491637432     1.007825032230
         H           -4.404270215776     1.575067067864    -2.208340637432     1.007825032230

  Basis Set: AUG-CC-PVTZ
    Blend: AUG-CC-PVTZ
  Basis Set: (AUG-CC-PVTZ AUX)
    Blend: AUG-CC-PVTZ-JKFIT
	 Reference Energy          =   -1327.8577842350716764 [Eh]
	 Singles Energy            =      -0.0000000000000000 [Eh]
	 Same-Spin Energy          =      -1.0141845630098749 [Eh]
	 Opposite-Spin Energy      =      -3.0738826707756242 [Eh]
	 Correlation Energy        =      -4.0880672337854991 [Eh]
	 Total Energy              =   -1331.9458514688571995 [Eh]

	 ================> DF-SCS-MP2 Energies <==================
	-----------------------------------------------------------
	 SCS Same-Spin Scale       =       0.3333333333333333 [-]
	 SCS Opposite-Spin Scale   =       1.2000000000000000 [-]
	 SCS Same-Spin Energy      =      -0.3380615210032916 [Eh]
	 SCS Opposite-Spin Energy  =      -3.6886592049307487 [Eh]
	 SCS Correlation Energy    =      -4.0267207259340401 [Eh]
	 SCS Total Energy          =   -1331.8845049610056321 [Eh]
	-----------------------------------------------------------

  Dipole Moment: [D]
     X:    -1.5892      Y:     1.8074      Z:     1.2156     Total:     2.6963

*** Psi4 exiting successfully. Buy a developer a beer!
