                               Psi4 1.3.2 release

  ==> Input File <==

--------------------------------------------------------------------------
#psi4
#
memory 32 gb

molecule  {
0 1
  P       -2.2900960    -0.9400430     0.3446780
  O       -0.9904050    -0.1989727     0.9290038
  O        1.3422500    -1.6754830     1.2308510
  O        0.0787050     2.3596040     0.4621680
  O        3.0685150    -2.1870720    -0.8085900
  O        2.8473350     2.5031130     0.3715350
  O        4.1956880     0.4353970    -0.9728740
  O       -2.8268630     0.0333510    -0.8075310
  O       -3.2591210    -0.7232820     1.6216710
  O       -2.1189930    -2.3436440    -0.0996680
  C        0.1181620     0.0300090     0.0163190
  C        0.9532920    -1.2442050    -0.0757250
  C        0.8985890     1.2026440     0.5648510
  C        2.2596600    -1.0143070    -0.8180370
  C        2.1770750     1.3964720    -0.2280410
  C        3.0258420     0.1487050    -0.2103220
  C       -3.1242130     1.4315980    -0.4888860
  C       -3.5363170     2.0851650    -1.7841190
  H       -0.2919989     0.2979981    -0.9667876
  H        0.3702690    -2.0293640    -0.5720320
  H        1.1571200     0.9978770     1.6121560
  H        2.0609340    -0.7886600    -1.8727560
  H        1.9169870     1.6362870    -1.2735830
  H        3.2958550    -0.0945320     0.8276460
  H        0.5217750    -1.8880320     1.7115100
  H        0.6655400     3.1093110     0.6831840
  H        2.9735430    -2.5473740     0.0946540
  H        3.7214290     2.5491860    -0.0588690
  H        4.6397270    -0.4238340    -1.0970870
  H       -3.8083950    -1.5223380     1.7347280
  H       -3.9305460     1.4455410     0.2493860
  H       -2.2297620     1.8928800    -0.0590960
  H       -3.8005210     3.1308820    -1.6026710
  H       -2.7171960     2.0533230    -2.5048750
  H       -4.4009440     1.5743230    -2.2127240
units angstrom
no_reorient  #important for SAPT in psi4, default
symmetry c1  #important for SAPT in psi4, default
}

set PROPERTIES_ORIGIN ["COM"]
properties('MP2/aug-cc-pvtz', properties = ['dipole'])
--------------------------------------------------------------------------

    Molecular point group: c1
  Charge       = 0
  Multiplicity = 1
  Basis Set: AUG-CC-PVTZ
    Blend: AUG-CC-PVTZ
  Basis Set: (AUG-CC-PVTZ AUX)
    Blend: AUG-CC-PVTZ-JKFIT

    Orbital Energies [Eh]
    ---------------------

    Doubly Occupied:

       1A    -80.115830     2A    -20.614299     3A    -20.606666
       4A    -20.597792     5A    -20.583722     6A    -20.577087
       7A    -20.574939     8A    -20.574357     9A    -20.573719
      10A    -20.522889    11A    -11.321429    12A    -11.304095
      13A    -11.299728    14A    -11.299170    15A    -11.298904
      16A    -11.297077    17A    -11.291755    18A    -11.229528
      19A     -7.631438    20A     -5.529940    21A     -5.529601
      22A     -5.528365    23A     -1.461298    24A     -1.411041
      25A     -1.395078    26A     -1.393441    27A     -1.386194
      28A     -1.373348    29A     -1.364295    30A     -1.354194
      31A     -1.303376    32A     -1.119588    33A     -1.040047
      34A     -1.012787    35A     -1.003856    36A     -0.881015
      37A     -0.864698    38A     -0.859469    39A     -0.821999
      40A     -0.810848    41A     -0.752095    42A     -0.745741
      43A     -0.731787    44A     -0.728644    45A     -0.708488
      46A     -0.687395    47A     -0.678396    48A     -0.673589
      49A     -0.662487    50A     -0.661011    51A     -0.643634
      52A     -0.635340    53A     -0.627533    54A     -0.615306
      55A     -0.603855    56A     -0.598794    57A     -0.581720
      58A     -0.575385    59A     -0.571455    60A     -0.559454
      61A     -0.556823    62A     -0.548392    63A     -0.540901
      64A     -0.536846    65A     -0.529623    66A     -0.522061
      67A     -0.513027    68A     -0.504461    69A     -0.496944
      70A     -0.485115    71A     -0.479403    72A     -0.476243
      73A     -0.462753    74A     -0.456172    75A     -0.450447
      76A     -0.436612

  @DF-RHF Final Energy: -1327.86207151884537

   => Energetics <=

    Nuclear Repulsion Energy =           1772.7391542741177091
    One-Electron Energy =               -5357.6087802643223768
    Two-Electron Energy =                2257.0075544713590716
    Total Energy =                      -1327.8620715188453687
  Basis Set: (AUG-CC-PVTZ AUX)
    Blend: AUG-CC-PVTZ-RI
    Molecular point group: c1

    Geometry (in Angstrom), charge = 0, multiplicity = 1:

       Center              X                  Y                   Z               Mass
    ------------   -----------------  -----------------  -----------------  -----------------
         P           -2.289606603375    -0.940183947076     0.345181490279    30.973761998420
         O           -0.989915603375    -0.199113647076     0.929507290279    15.994914619570
         O            1.342739396625    -1.675623947076     1.231354490279    15.994914619570
         O            0.079194396625     2.359463052924     0.462671490279    15.994914619570
         O            3.069004396625    -2.187212947076    -0.808086509721    15.994914619570
         O            2.847824396625     2.502972052924     0.372038490279    15.994914619570
         O            4.196177396625     0.435256052924    -0.972370509721    15.994914619570
         O           -2.826373603375     0.033210052924    -0.807027509721    15.994914619570
         O           -3.258631603375    -0.723422947076     1.622174490279    15.994914619570
         O           -2.118503603375    -2.343784947076    -0.099164509721    15.994914619570
         C            0.118651396625     0.029868052924     0.016822490279    12.000000000000
         C            0.953781396625    -1.244345947076    -0.075221509721    12.000000000000
         C            0.899078396625     1.202503052924     0.565354490279    12.000000000000
         C            2.260149396625    -1.014447947076    -0.817533509721    12.000000000000
         C            2.177564396625     1.396331052924    -0.227537509721    12.000000000000
         C            3.026331396625     0.148564052924    -0.209818509721    12.000000000000
         C           -3.123723603375     1.431457052924    -0.488382509721    12.000000000000
         C           -3.535827603375     2.085024052924    -1.783615509721    12.000000000000
         H           -0.291509503375     0.297857152924    -0.966284109721     1.007825032230
         H            0.370758396625    -2.029504947076    -0.571528509721     1.007825032230
         H            1.157609396625     0.997736052924     1.612659490279     1.007825032230
         H            2.061423396625    -0.788800947076    -1.872252509721     1.007825032230
         H            1.917476396625     1.636146052924    -1.273079509721     1.007825032230
         H            3.296344396625    -0.094672947076     0.828149490279     1.007825032230
         H            0.522264396625    -1.888172947076     1.712013490279     1.007825032230
         H            0.666029396625     3.109170052924     0.683687490279     1.007825032230
         H            2.974032396625    -2.547514947076     0.095157490279     1.007825032230
         H            3.721918396625     2.549045052924    -0.058365509721     1.007825032230
         H            4.640216396625    -0.423974947076    -1.096583509721     1.007825032230
         H           -3.807905603375    -1.522478947076     1.735231490279     1.007825032230
         H           -3.930056603375     1.445400052924     0.249889490279     1.007825032230
         H           -2.229272603375     1.892739052924    -0.058592509721     1.007825032230
         H           -3.800031603375     3.130741052924    -1.602167509721     1.007825032230
         H           -2.716706603375     2.053182052924    -2.504371509721     1.007825032230
         H           -4.400454603375     1.574182052924    -2.212220509721     1.007825032230

  Basis Set: AUG-CC-PVTZ
    Blend: AUG-CC-PVTZ
  Basis Set: (AUG-CC-PVTZ AUX)
    Blend: AUG-CC-PVTZ-JKFIT
	 Reference Energy          =   -1327.8620715188453687 [Eh]
	 Singles Energy            =      -0.0000000000000000 [Eh]
	 Same-Spin Energy          =      -1.0144501303369620 [Eh]
	 Opposite-Spin Energy      =      -3.0757022606557269 [Eh]
	 Correlation Energy        =      -4.0901523909926887 [Eh]
	 Total Energy              =   -1331.9522239098380396 [Eh]

	 ================> DF-SCS-MP2 Energies <==================
	-----------------------------------------------------------
	 SCS Same-Spin Scale       =       0.3333333333333333 [-]
	 SCS Opposite-Spin Scale   =       1.2000000000000000 [-]
	 SCS Same-Spin Energy      =      -0.3381500434456540 [Eh]
	 SCS Opposite-Spin Energy  =      -3.6908427127868721 [Eh]
	 SCS Correlation Energy    =      -4.0289927562325261 [Eh]
	 SCS Total Energy          =   -1331.8910642750779516 [Eh]
	-----------------------------------------------------------

  Dipole Moment: [D]
     X:    -1.0490      Y:     1.8621      Z:     0.7434     Total:     2.2629

*** Psi4 exiting successfully. Buy a developer a beer!
