                               Psi4 1.3.2 release

  ==> Input File <==

--------------------------------------------------------------------------
#psi4
#
memory 32 gb

molecule  {
0 1
  P       -2.2900960    -0.9400430     0.3446780
  O       -0.9821530    -0.2015620     0.9382890
  O        1.3422500    -1.6754830     1.2308510
  O        0.0787050     2.3596040     0.4621680
  O        3.0685150    -2.1870720    -0.8085900
  O        2.8473350     2.5031130     0.3715350
  O        4.1956880     0.4353970    -0.9728740
  O       -2.8268630     0.0333510    -0.8075310
  O       -3.2591210    -0.7232820     1.6216710
  O       -2.1189930    -2.3436440    -0.0996680
  C        0.1087879     0.0233126     0.0230039
  C        0.9532920    -1.2442050    -0.0757250
  C        0.8985890     1.2026440     0.5648510
  C        2.2628450    -1.0270609    -0.8162633
  C        2.1770750     1.3964720    -0.2280410
  C        3.0258420     0.1487050    -0.2103220
  C       -3.1242130     1.4315980    -0.4888860
  C       -3.5363170     2.0851650    -1.7841190
  H       -0.2830920     0.2988010    -0.9702380
  H        0.3702690    -2.0293640    -0.5720320
  H        1.1571200     0.9978770     1.6121560
  H        2.0609340    -0.7886600    -1.8727560
  H        1.9169870     1.6362870    -1.2735830
  H        3.2958550    -0.0945320     0.8276460
  H        0.5217750    -1.8880320     1.7115100
  H        0.6655400     3.1093110     0.6831840
  H        2.9735430    -2.5473740     0.0946540
  H        3.7214290     2.5491860    -0.0588690
  H        4.6397270    -0.4238340    -1.0970870
  H       -3.8083950    -1.5223380     1.7347280
  H       -3.9305460     1.4455410     0.2493860
  H       -2.2297620     1.8928800    -0.0590960
  H       -3.8005210     3.1308820    -1.6026710
  H       -2.7171960     2.0533230    -2.5048750
  H       -4.4009440     1.5743230    -2.2127240
units angstrom
no_reorient  #important for SAPT in psi4, default
symmetry c1  #important for SAPT in psi4, default
}

set PROPERTIES_ORIGIN ["COM"]
properties('MP2/aug-cc-pvtz', properties = ['dipole'])
--------------------------------------------------------------------------

    Molecular point group: c1
  Charge       = 0
  Multiplicity = 1
  Basis Set: AUG-CC-PVTZ
    Blend: AUG-CC-PVTZ
  Basis Set: (AUG-CC-PVTZ AUX)
    Blend: AUG-CC-PVTZ-JKFIT

    Orbital Energies [Eh]
    ---------------------

    Doubly Occupied:

       1A    -80.117792     2A    -20.615326     3A    -20.608699
       4A    -20.599380     5A    -20.582680     6A    -20.576358
       7A    -20.575980     8A    -20.573564     9A    -20.572912
      10A    -20.524025    11A    -11.320428    12A    -11.302548
      13A    -11.299605    14A    -11.299349    15A    -11.298129
      16A    -11.296083    17A    -11.290781    18A    -11.229960
      19A     -7.633254    20A     -5.531763    21A     -5.531384
      22A     -5.530177    23A     -1.462291    24A     -1.412010
      25A     -1.396409    26A     -1.393692    27A     -1.387401
      28A     -1.373166    29A     -1.365365    30A     -1.354474
      31A     -1.304480    32A     -1.116487    33A     -1.040644
      34A     -1.010610    35A     -1.002132    36A     -0.880835
      37A     -0.865052    38A     -0.858799    39A     -0.822719
      40A     -0.809919    41A     -0.752038    42A     -0.745402
      43A     -0.731501    44A     -0.729989    45A     -0.707807
      46A     -0.686932    47A     -0.679312    48A     -0.673850
      49A     -0.662225    50A     -0.661462    51A     -0.643549
      52A     -0.635135    53A     -0.628561    54A     -0.615710
      55A     -0.604389    56A     -0.598863    57A     -0.581334
      58A     -0.576218    59A     -0.571594    60A     -0.559420
      61A     -0.556043    62A     -0.548527    63A     -0.541548
      64A     -0.536988    65A     -0.529726    66A     -0.521012
      67A     -0.513138    68A     -0.503703    69A     -0.496939
      70A     -0.484295    71A     -0.480127    72A     -0.476981
      73A     -0.462065    74A     -0.455397    75A     -0.449218
      76A     -0.433645

  @DF-RHF Final Energy: -1327.86159405167928

   => Energetics <=

    Nuclear Repulsion Energy =           1772.4615788068315396
    One-Electron Energy =               -5357.0437463180796840
    Two-Electron Energy =                2256.7205734595690956
    Total Energy =                      -1327.8615940516792762
  Basis Set: (AUG-CC-PVTZ AUX)
    Blend: AUG-CC-PVTZ-RI
    Molecular point group: c1

    Geometry (in Angstrom), charge = 0, multiplicity = 1:

       Center              X                  Y                   Z               Mass
    ------------   -----------------  -----------------  -----------------  -----------------
         P           -2.289838142625    -0.939232724830     0.344325623760    30.973761998420
         O           -0.981895142625    -0.200751724830     0.937936623760    15.994914619570
         O            1.342507857375    -1.674672724830     1.230498623760    15.994914619570
         O            0.078962857375     2.360414275170     0.461815623760    15.994914619570
         O            3.068772857375    -2.186261724830    -0.808942376240    15.994914619570
         O            2.847592857375     2.503923275170     0.371182623760    15.994914619570
         O            4.195945857375     0.436207275170    -0.973226376240    15.994914619570
         O           -2.826605142625     0.034161275170    -0.807883376240    15.994914619570
         O           -3.258863142625    -0.722471724830     1.621318623760    15.994914619570
         O           -2.118735142625    -2.342833724830    -0.100020376240    15.994914619570
         C            0.109045757375     0.024122875170     0.022651523760    12.000000000000
         C            0.953549857375    -1.243394724830    -0.076077376240    12.000000000000
         C            0.898846857375     1.203454275170     0.564498623760    12.000000000000
         C            2.263102857375    -1.026250624830    -0.816615676240    12.000000000000
         C            2.177332857375     1.397282275170    -0.228393376240    12.000000000000
         C            3.026099857375     0.149515275170    -0.210674376240    12.000000000000
         C           -3.123955142625     1.432408275170    -0.489238376240    12.000000000000
         C           -3.536059142625     2.085975275170    -1.784471376240    12.000000000000
         H           -0.282834142625     0.299611275170    -0.970590376240     1.007825032230
         H            0.370526857375    -2.028553724830    -0.572384376240     1.007825032230
         H            1.157377857375     0.998687275170     1.611803623760     1.007825032230
         H            2.061191857375    -0.787849724830    -1.873108376240     1.007825032230
         H            1.917244857375     1.637097275170    -1.273935376240     1.007825032230
         H            3.296112857375    -0.093721724830     0.827293623760     1.007825032230
         H            0.522032857375    -1.887221724830     1.711157623760     1.007825032230
         H            0.665797857375     3.110121275170     0.682831623760     1.007825032230
         H            2.973800857375    -2.546563724830     0.094301623760     1.007825032230
         H            3.721686857375     2.549996275170    -0.059221376240     1.007825032230
         H            4.639984857375    -0.423023724830    -1.097439376240     1.007825032230
         H           -3.808137142625    -1.521527724830     1.734375623760     1.007825032230
         H           -3.930288142625     1.446351275170     0.249033623760     1.007825032230
         H           -2.229504142625     1.893690275170    -0.059448376240     1.007825032230
         H           -3.800263142625     3.131692275170    -1.603023376240     1.007825032230
         H           -2.716938142625     2.054133275170    -2.505227376240     1.007825032230
         H           -4.400686142625     1.575133275170    -2.213076376240     1.007825032230

  Basis Set: AUG-CC-PVTZ
    Blend: AUG-CC-PVTZ
  Basis Set: (AUG-CC-PVTZ AUX)
    Blend: AUG-CC-PVTZ-JKFIT
	 Reference Energy          =   -1327.8615940516792762 [Eh]
	 Singles Energy            =      -0.0000000000000000 [Eh]
	 Same-Spin Energy          =      -1.0145207239368188 [Eh]
	 Opposite-Spin Energy      =      -3.0757819389130323 [Eh]
	 Correlation Energy        =      -4.0903026628498509 [Eh]
	 Total Energy              =   -1331.9518967145290844 [Eh]

	 ================> DF-SCS-MP2 Energies <==================
	-----------------------------------------------------------
	 SCS Same-Spin Scale       =       0.3333333333333333 [-]
	 SCS Opposite-Spin Scale   =       1.2000000000000000 [-]
	 SCS Same-Spin Energy      =      -0.3381735746456063 [Eh]
	 SCS Opposite-Spin Energy  =      -3.6909383266956386 [Eh]
	 SCS Correlation Energy    =      -4.0291119013412446 [Eh]
	 SCS Total Energy          =   -1331.8907059530204151 [Eh]
	-----------------------------------------------------------

  Dipole Moment: [D]
     X:    -1.1538      Y:     1.8050      Z:     0.7346     Total:     2.2647

*** Psi4 exiting successfully. Buy a developer a beer!
