                               Psi4 1.4a3.dev225

  ==> Input File <==

--------------------------------------------------------------------------
#psi4
#
memory 32 gb

molecule  {
0 1
  P       -2.3219140    -1.0563120    -0.0968450
  O       -1.0285840    -0.5623410     0.7549430
  O        1.3695440    -1.8069540     1.2202350
  O       -0.1592450     2.1412630     0.5207450
  O        3.3269040    -2.0858120    -0.6453880
  O        2.5724350     2.5270130     0.6374560
  O        4.2203020     0.6406430    -0.6358120
  O       -2.8737010     0.2643620    -0.8096810
  O       -3.3065970    -1.3497020     1.1531960
  O       -2.1044560    -2.1814480    -1.0350500
  C        0.1200290    -0.1583450    -0.0432010
  C        1.0698050    -1.3527180    -0.1046720
  C        0.7441670     1.0454510     0.6308160
  C        2.4193320    -0.9866070    -0.7068450
  C        2.0603010     1.3853380    -0.0470020
  C        3.0180900     0.2181970     0.0056710
  C       -3.2473180     1.4231610     0.0025120
  C       -3.2076300     2.6262440    -0.9075720
  H       -0.1899470     0.1181797    -1.0055917
  H        0.5965010    -2.1549610    -0.6866410
  H        0.9371260     0.8063110     1.6860210
  H        2.3054700    -0.7437210    -1.7704410
  H        1.8633300     1.6367370    -1.1028410
  H        3.2142070    -0.0417910     1.0561650
  H        0.5126160    -2.0057500     1.6426110
  H        0.3598300     2.9232990     0.7925780
  H        3.1793900    -2.4823080     0.2360710
  H        3.4672560     2.6739710     0.2770410
  H        4.7639490    -0.1654590    -0.7244900
  H       -3.7873380    -2.1826420     0.9908450
  H       -4.2474700     1.2335250     0.4005830
  H       -2.5352900     1.5309660     0.8217280
  H       -3.5402110     3.5125760    -0.3587690
  H       -2.1856630     2.7912820    -1.2511950
  H       -3.8637180     2.4807570    -1.7684970
units angstrom
no_reorient  #important for SAPT in psi4, default
symmetry c1  #important for SAPT in psi4, default
}

set PROPERTIES_ORIGIN ["COM"]
properties('MP2/aug-cc-pvtz', properties = ['dipole'])
--------------------------------------------------------------------------

    Molecular point group: c1
  Charge       = 0
  Multiplicity = 1
  Basis Set: AUG-CC-PVTZ
    Blend: AUG-CC-PVTZ
  Basis Set: (AUG-CC-PVTZ AUX)
    Blend: AUG-CC-PVTZ-JKFIT

    Orbital Energies [Eh]
    ---------------------

    Doubly Occupied:

       1A    -80.116770     2A    -20.614964     3A    -20.607620
       4A    -20.596115     5A    -20.583866     6A    -20.578587
       7A    -20.575391     8A    -20.575215     9A    -20.574722
      10A    -20.522644    11A    -11.315919    12A    -11.305042
      13A    -11.300401    14A    -11.300337    15A    -11.298486
      16A    -11.296196    17A    -11.293079    18A    -11.222941
      19A     -7.632043    20A     -5.530578    21A     -5.530073
      22A     -5.529017    23A     -1.458473    24A     -1.410922
      25A     -1.395444    26A     -1.392726    27A     -1.385223
      28A     -1.372686    29A     -1.364257    30A     -1.354308
      31A     -1.302812    32A     -1.119779    33A     -1.035579
      34A     -1.013387    35A     -1.003593    36A     -0.878153
      37A     -0.862991    38A     -0.859773    39A     -0.824041
      40A     -0.813210    41A     -0.754836    42A     -0.747460
      43A     -0.729106    44A     -0.726812    45A     -0.706253
      46A     -0.687205    47A     -0.679868    48A     -0.674384
      49A     -0.662429    50A     -0.659575    51A     -0.642059
      52A     -0.637680    53A     -0.623829    54A     -0.613116
      55A     -0.604531    56A     -0.596990    57A     -0.582147
      58A     -0.577676    59A     -0.570523    60A     -0.560114
      61A     -0.555852    62A     -0.549001    63A     -0.539559
      64A     -0.537847    65A     -0.530588    66A     -0.517751
      67A     -0.508938    68A     -0.503767    69A     -0.494976
      70A     -0.487837    71A     -0.478942    72A     -0.475545
      73A     -0.462645    74A     -0.457427    75A     -0.450964
      76A     -0.436773

  @DF-RHF Final Energy: -1327.86036036001769

   => Energetics <=

    Nuclear Repulsion Energy =           1774.9285275743807233
    One-Electron Energy =               -5362.0330310374147302
    Two-Electron Energy =                2259.2441431030165404
    Total Energy =                      -1327.8603603600176939
  Basis Set: (AUG-CC-PVTZ AUX)
    Blend: AUG-CC-PVTZ-RI
    Molecular point group: c1

    Geometry (in Angstrom), charge = 0, multiplicity = 1:

       Center              X                  Y                   Z               Mass
    ------------   -----------------  -----------------  -----------------  -----------------
         P           -2.311204348136    -1.018486792887    -0.099450087780    30.973761998420
         O           -1.017874348136    -0.524515792887     0.752337912220    15.994914619570
         O            1.380253651864    -1.769128792887     1.217629912220    15.994914619570
         O           -0.148535348136     2.179088207113     0.518139912220    15.994914619570
         O            3.337613651864    -2.047986792887    -0.647993087780    15.994914619570
         O            2.583144651864     2.564838207113     0.634850912220    15.994914619570
         O            4.231011651864     0.678468207113    -0.638417087780    15.994914619570
         O           -2.862991348136     0.302187207113    -0.812286087780    15.994914619570
         O           -3.295887348136    -1.311876792887     1.150590912220    15.994914619570
         O           -2.093746348136    -2.143622792887    -1.037655087780    15.994914619570
         C            0.130738651864    -0.120519792887    -0.045806087780    12.000000000000
         C            1.080514651864    -1.314892792887    -0.107277087780    12.000000000000
         C            0.754876651864     1.083276207113     0.628210912220    12.000000000000
         C            2.430041651864    -0.948781792887    -0.709450087780    12.000000000000
         C            2.071010651864     1.423163207113    -0.049607087780    12.000000000000
         C            3.028799651864     0.256022207113     0.003065912220    12.000000000000
         C           -3.236608348136     1.460986207113    -0.000093087780    12.000000000000
         C           -3.196920348136     2.664069207113    -0.910177087780    12.000000000000
         H           -0.179237348136     0.156004907113    -1.008196787780     1.007825032230
         H            0.607210651864    -2.117135792887    -0.689246087780     1.007825032230
         H            0.947835651864     0.844136207113     1.683415912220     1.007825032230
         H            2.316179651864    -0.705895792887    -1.773046087780     1.007825032230
         H            1.874039651864     1.674562207113    -1.105446087780     1.007825032230
         H            3.224916651864    -0.003965792887     1.053559912220     1.007825032230
         H            0.523325651864    -1.967924792887     1.640005912220     1.007825032230
         H            0.370539651864     2.961124207113     0.789972912220     1.007825032230
         H            3.190099651864    -2.444482792887     0.233465912220     1.007825032230
         H            3.477965651864     2.711796207113     0.274435912220     1.007825032230
         H            4.774658651864    -0.127633792887    -0.727095087780     1.007825032230
         H           -3.776628348136    -2.144816792887     0.988239912220     1.007825032230
         H           -4.236760348136     1.271350207113     0.397977912220     1.007825032230
         H           -2.524580348136     1.568791207113     0.819122912220     1.007825032230
         H           -3.529501348136     3.550401207113    -0.361374087780     1.007825032230
         H           -2.174953348136     2.829107207113    -1.253800087780     1.007825032230
         H           -3.853008348136     2.518582207113    -1.771102087780     1.007825032230

  Basis Set: AUG-CC-PVTZ
    Blend: AUG-CC-PVTZ
  Basis Set: (AUG-CC-PVTZ AUX)
    Blend: AUG-CC-PVTZ-JKFIT
	 Reference Energy          =   -1327.8603603600176939 [Eh]
	 Singles Energy            =      -0.0000000000000000 [Eh]
	 Same-Spin Energy          =      -1.0145303020800445 [Eh]
	 Opposite-Spin Energy      =      -3.0760958581936051 [Eh]
	 Correlation Energy        =      -4.0906261602736498 [Eh]
	 Total Energy              =   -1331.9509865202912806 [Eh]

	 ================> DF-SCS-MP2 Energies <==================
	-----------------------------------------------------------
	 SCS Same-Spin Scale       =       0.3333333333333333 [-]
	 SCS Opposite-Spin Scale   =       1.2000000000000000 [-]
	 SCS Same-Spin Energy      =      -0.3381767673600148 [Eh]
	 SCS Opposite-Spin Energy  =      -3.6913150298323258 [Eh]
	 SCS Correlation Energy    =      -4.0294917971923407 [Eh]
	 SCS Total Energy          =   -1331.8898521572100435 [Eh]
	-----------------------------------------------------------

  Dipole Moment: [D]
     X:    -0.8562      Y:     1.4220      Z:     1.8699     Total:     2.5004

*** Psi4 exiting successfully. Buy a developer a beer!
