                               Psi4 1.3.2 release

  ==> Input File <==

--------------------------------------------------------------------------
#psi4
#
memory 32 gb

molecule  {
0 1
  P       -2.2900960    -0.9400430     0.3446780
  O       -0.9821530    -0.2015620     0.9382890
  O        1.3422500    -1.6754830     1.2308510
  O        0.0787050     2.3596040     0.4621680
  O        3.0685150    -2.1870720    -0.8085900
  O        2.8473350     2.5031130     0.3715350
  O        4.1956880     0.4353970    -0.9728740
  O       -2.8268630     0.0333510    -0.8075310
  O       -3.2591210    -0.7232820     1.6216710
  O       -2.1189930    -2.3436440    -0.0996680
  C        0.1181620     0.0300090     0.0163190
  C        0.9532920    -1.2442050    -0.0757250
  C        0.8985890     1.2026440     0.5648510
  C        2.2596600    -1.0143070    -0.8180370
  C        2.1770750     1.3964720    -0.2280410
  C        3.0258420     0.1487050    -0.2103220
  C       -3.1242130     1.4315980    -0.4888860
  C       -3.5363170     2.0851650    -1.7841190
  H       -0.2830920     0.2988010    -0.9702380
  H        0.3702690    -2.0293640    -0.5720320
  H        1.1571200     0.9978770     1.6121560
  H        2.0609340    -0.7886600    -1.8727560
  H        1.9169870     1.6362870    -1.2735830
  H        3.2958550    -0.0945320     0.8276460
  H        0.5217750    -1.8880320     1.7115100
  H        0.6655400     3.1093110     0.6831840
  H        2.9735430    -2.5473740     0.0946540
  H        3.7214290     2.5491860    -0.0588690
  H        4.5486542    -0.2476049    -1.0716108
  H       -3.8083950    -1.5223380     1.7347280
  H       -3.9305460     1.4455410     0.2493860
  H       -2.2297620     1.8928800    -0.0590960
  H       -3.8005210     3.1308820    -1.6026710
  H       -2.7171960     2.0533230    -2.5048750
  H       -4.4009440     1.5743230    -2.2127240
units angstrom
no_reorient  #important for SAPT in psi4, default
symmetry c1  #important for SAPT in psi4, default
}

set PROPERTIES_ORIGIN ["COM"]
properties('MP2/aug-cc-pvtz', properties = ['dipole'])
--------------------------------------------------------------------------

    Molecular point group: c1
  Charge       = 0
  Multiplicity = 1
  Basis Set: AUG-CC-PVTZ
    Blend: AUG-CC-PVTZ
  Basis Set: (AUG-CC-PVTZ AUX)
    Blend: AUG-CC-PVTZ-JKFIT

    Orbital Energies [Eh]
    ---------------------

    Doubly Occupied:

       1A    -80.117355     2A    -20.615083     3A    -20.607595
       4A    -20.599330     5A    -20.583743     6A    -20.578138
       7A    -20.574302     8A    -20.573455     9A    -20.555666
      10A    -20.523817    11A    -11.321487    12A    -11.304395
      13A    -11.300609    14A    -11.299761    15A    -11.299585
      16A    -11.298196    17A    -11.294383    18A    -11.230190
      19A     -7.632806    20A     -5.531312    21A     -5.530940
      22A     -5.529736    23A     -1.460765    24A     -1.442838
      25A     -1.407218    26A     -1.393764    27A     -1.387985
      28A     -1.383535    29A     -1.364316    30A     -1.361015
      31A     -1.304212    32A     -1.123350    33A     -1.040979
      34A     -1.021398    35A     -1.004370    36A     -0.887817
      37A     -0.867487    38A     -0.862649    39A     -0.824964
      40A     -0.811759    41A     -0.765210    42A     -0.751082
      43A     -0.735653    44A     -0.729208    45A     -0.709341
      46A     -0.694307    47A     -0.682906    48A     -0.676350
      49A     -0.668335    50A     -0.661595    51A     -0.644780
      52A     -0.638484    53A     -0.628035    54A     -0.616746
      55A     -0.605716    56A     -0.600446    57A     -0.583931
      58A     -0.576016    59A     -0.572633    60A     -0.560839
      61A     -0.559373    62A     -0.549292    63A     -0.542905
      64A     -0.541143    65A     -0.530906    66A     -0.523264
      67A     -0.514578    68A     -0.506666    69A     -0.497674
      70A     -0.485745    71A     -0.480252    72A     -0.477090
      73A     -0.463250    74A     -0.459900    75A     -0.450919
      76A     -0.438732

  @DF-RHF Final Energy: -1327.81590475499684

   => Energetics <=

    Nuclear Repulsion Energy =           1773.9557903590632577
    One-Electron Energy =               -5359.5921814135626846
    Two-Electron Energy =                2257.8204862995025906
    Total Energy =                      -1327.8159047549970637
  Basis Set: (AUG-CC-PVTZ AUX)
    Blend: AUG-CC-PVTZ-RI
    Molecular point group: c1

    Geometry (in Angstrom), charge = 0, multiplicity = 1:

       Center              X                  Y                   Z               Mass
    ------------   -----------------  -----------------  -----------------  -----------------
         P           -2.289777335204    -0.940659546479     0.344588858432    30.973761998420
         O           -0.981834335204    -0.202178546479     0.938199858432    15.994914619570
         O            1.342568664796    -1.676099546479     1.230761858432    15.994914619570
         O            0.079023664796     2.358987453521     0.462078858432    15.994914619570
         O            3.068833664796    -2.187688546479    -0.808679141568    15.994914619570
         O            2.847653664796     2.502496453521     0.371445858432    15.994914619570
         O            4.196006664796     0.434780453521    -0.972963141568    15.994914619570
         O           -2.826544335204     0.032734453521    -0.807620141568    15.994914619570
         O           -3.258802335204    -0.723898546479     1.621581858432    15.994914619570
         O           -2.118674335204    -2.344260546479    -0.099757141568    15.994914619570
         C            0.118480664796     0.029392453521     0.016229858432    12.000000000000
         C            0.953610664796    -1.244821546479    -0.075814141568    12.000000000000
         C            0.898907664796     1.202027453521     0.564761858432    12.000000000000
         C            2.259978664796    -1.014923546479    -0.818126141568    12.000000000000
         C            2.177393664796     1.395855453521    -0.228130141568    12.000000000000
         C            3.026160664796     0.148088453521    -0.210411141568    12.000000000000
         C           -3.123894335204     1.430981453521    -0.488975141568    12.000000000000
         C           -3.535998335204     2.084548453521    -1.784208141568    12.000000000000
         H           -0.282773335204     0.298184453521    -0.970327141568     1.007825032230
         H            0.370587664796    -2.029980546479    -0.572121141568     1.007825032230
         H            1.157438664796     0.997260453521     1.612066858432     1.007825032230
         H            2.061252664796    -0.789276546479    -1.872845141568     1.007825032230
         H            1.917305664796     1.635670453521    -1.273672141568     1.007825032230
         H            3.296173664796    -0.095148546479     0.827556858432     1.007825032230
         H            0.522093664796    -1.888648546479     1.711420858432     1.007825032230
         H            0.665858664796     3.108694453521     0.683094858432     1.007825032230
         H            2.973861664796    -2.547990546479     0.094564858432     1.007825032230
         H            3.721747664796     2.548569453521    -0.058958141568     1.007825032230
         H            4.548972864796    -0.248221446479    -1.071699941568     1.007825032230
         H           -3.808076335204    -1.522954546479     1.734638858432     1.007825032230
         H           -3.930227335204     1.444924453521     0.249296858432     1.007825032230
         H           -2.229443335204     1.892263453521    -0.059185141568     1.007825032230
         H           -3.800202335204     3.130265453521    -1.602760141568     1.007825032230
         H           -2.716877335204     2.052706453521    -2.504964141568     1.007825032230
         H           -4.400625335204     1.573706453521    -2.212813141568     1.007825032230

  Basis Set: AUG-CC-PVTZ
    Blend: AUG-CC-PVTZ
  Basis Set: (AUG-CC-PVTZ AUX)
    Blend: AUG-CC-PVTZ-JKFIT
	 Reference Energy          =   -1327.8159047549968363 [Eh]
	 Singles Energy            =      -0.0000000000000000 [Eh]
	 Same-Spin Energy          =      -1.0120433123116159 [Eh]
	 Opposite-Spin Energy      =      -3.0704532584812347 [Eh]
	 Correlation Energy        =      -4.0824965707928502 [Eh]
	 Total Energy              =   -1331.8984013257897914 [Eh]

	 ================> DF-SCS-MP2 Energies <==================
	-----------------------------------------------------------
	 SCS Same-Spin Scale       =       0.3333333333333333 [-]
	 SCS Opposite-Spin Scale   =       1.2000000000000000 [-]
	 SCS Same-Spin Energy      =      -0.3373477707705386 [Eh]
	 SCS Opposite-Spin Energy  =      -3.6845439101774815 [Eh]
	 SCS Correlation Energy    =      -4.0218916809480199 [Eh]
	 SCS Total Energy          =   -1331.8377964359449379 [Eh]
	-----------------------------------------------------------

  Dipole Moment: [D]
     X:    -1.2549      Y:     2.0366      Z:     0.7761     Total:     2.5150

*** Psi4 exiting successfully. Buy a developer a beer!
