                               Psi4 1.3.2 release

  ==> Input File <==

--------------------------------------------------------------------------
#psi4
#
memory 32 gb

molecule  {
0 1
  P       -2.2900960    -0.9400430     0.3446780
  O       -0.9821530    -0.2015620     0.9382890
  O        1.3422500    -1.6754830     1.2308510
  O        0.0787050     2.3596040     0.4621680
  O        3.0685150    -2.1870720    -0.8085900
  O        2.8473350     2.5031130     0.3715350
  O        4.1956880     0.4353970    -0.9728740
  O       -2.8268630     0.0333510    -0.8075310
  O       -3.2591210    -0.7232820     1.6216710
  O       -2.1189930    -2.3436440    -0.0996680
  C        0.1181620     0.0300090     0.0163190
  C        1.0257265    -1.2345281    -0.0919497
  C        0.8985890     1.2026440     0.5648510
  C        2.2596600    -1.0143070    -0.8180370
  C        2.1770750     1.3964720    -0.2280410
  C        3.0258420     0.1487050    -0.2103220
  C       -3.1242130     1.4315980    -0.4888860
  C       -3.5363170     2.0851650    -1.7841190
  H       -0.2830920     0.2988010    -0.9702380
  H        0.3702690    -2.0293640    -0.5720320
  H        1.1571200     0.9978770     1.6121560
  H        2.0609340    -0.7886600    -1.8727560
  H        1.9169870     1.6362870    -1.2735830
  H        3.2958550    -0.0945320     0.8276460
  H        0.5502730    -1.9004608     1.7519525
  H        0.6655400     3.1093110     0.6831840
  H        2.9735430    -2.5473740     0.0946540
  H        3.7214290     2.5491860    -0.0588690
  H        4.6397270    -0.4238340    -1.0970870
  H       -3.8083950    -1.5223380     1.7347280
  H       -3.9305460     1.4455410     0.2493860
  H       -2.2297620     1.8928800    -0.0590960
  H       -3.8005210     3.1308820    -1.6026710
  H       -2.7171960     2.0533230    -2.5048750
  H       -4.4009440     1.5743230    -2.2127240
units angstrom
no_reorient  #important for SAPT in psi4, default
symmetry c1  #important for SAPT in psi4, default
}

set PROPERTIES_ORIGIN ["COM"]
properties('MP2/aug-cc-pvtz', properties = ['dipole'])
--------------------------------------------------------------------------

    Molecular point group: c1
  Charge       = 0
  Multiplicity = 1
  Basis Set: AUG-CC-PVTZ
    Blend: AUG-CC-PVTZ
  Basis Set: (AUG-CC-PVTZ AUX)
    Blend: AUG-CC-PVTZ-JKFIT

    Orbital Energies [Eh]
    ---------------------

    Doubly Occupied:

       1A    -80.116449     2A    -20.614427     3A    -20.607803
       4A    -20.598437     5A    -20.580053     6A    -20.577020
       7A    -20.575249     8A    -20.574687     9A    -20.572311
      10A    -20.522647    11A    -11.321525    12A    -11.306285
      13A    -11.298955    14A    -11.297698    15A    -11.297358
      16A    -11.296664    17A    -11.292186    18A    -11.229522
      19A     -7.631892    20A     -5.530396    21A     -5.530023
      22A     -5.528823    23A     -1.459514    24A     -1.410715
      25A     -1.394253    26A     -1.393223    27A     -1.386427
      28A     -1.371991    29A     -1.363157    30A     -1.353961
      31A     -1.302959    32A     -1.122965    33A     -1.040077
      34A     -1.013833    35A     -1.007057    36A     -0.881319
      37A     -0.865106    38A     -0.856170    39A     -0.822561
      40A     -0.813608    41A     -0.750871    42A     -0.745018
      43A     -0.730002    44A     -0.727944    45A     -0.708014
      46A     -0.689100    47A     -0.681534    48A     -0.672387
      49A     -0.663358    50A     -0.661376    51A     -0.640682
      52A     -0.634938    53A     -0.628157    54A     -0.615045
      55A     -0.602942    56A     -0.598163    57A     -0.581177
      58A     -0.575258    59A     -0.569714    60A     -0.558721
      61A     -0.554860    62A     -0.544869    63A     -0.539782
      64A     -0.537889    65A     -0.531379    66A     -0.521889
      67A     -0.514370    68A     -0.507260    69A     -0.496283
      70A     -0.485609    71A     -0.478516    72A     -0.475864
      73A     -0.462018    74A     -0.456119    75A     -0.447563
      76A     -0.431642

  @DF-RHF Final Energy: -1327.85439919466103

   => Energetics <=

    Nuclear Repulsion Energy =           1772.3111842502398758
    One-Electron Energy =               -5356.7719284654394869
    Two-Electron Energy =                2256.6063450205383560
    Total Energy =                      -1327.8543991946612550
  Basis Set: (AUG-CC-PVTZ AUX)
    Blend: AUG-CC-PVTZ-RI
    Molecular point group: c1

    Geometry (in Angstrom), charge = 0, multiplicity = 1:

       Center              X                  Y                   Z               Mass
    ------------   -----------------  -----------------  -----------------  -----------------
         P           -2.293213136578    -0.940402617047     0.345212382534    30.973761998420
         O           -0.985270136578    -0.201921617047     0.938823382534    15.994914619570
         O            1.339132863422    -1.675842617047     1.231385382534    15.994914619570
         O            0.075587863422     2.359244382953     0.462702382534    15.994914619570
         O            3.065397863422    -2.187431617047    -0.808055617466    15.994914619570
         O            2.844217863422     2.502753382953     0.372069382534    15.994914619570
         O            4.192570863422     0.435037382953    -0.972339617466    15.994914619570
         O           -2.829980136578     0.032991382953    -0.806996617466    15.994914619570
         O           -3.262238136578    -0.723641617047     1.622205382534    15.994914619570
         O           -2.122110136578    -2.344003617047    -0.099133617466    15.994914619570
         C            0.115044863422     0.029649382953     0.016853382534    12.000000000000
         C            1.022609363422    -1.234887717047    -0.091415317466    12.000000000000
         C            0.895471863422     1.202284382953     0.565385382534    12.000000000000
         C            2.256542863422    -1.014666617047    -0.817502617466    12.000000000000
         C            2.173957863422     1.396112382953    -0.227506617466    12.000000000000
         C            3.022724863422     0.148345382953    -0.209787617466    12.000000000000
         C           -3.127330136578     1.431238382953    -0.488351617466    12.000000000000
         C           -3.539434136578     2.084805382953    -1.783584617466    12.000000000000
         H           -0.286209136578     0.298441382953    -0.969703617466     1.007825032230
         H            0.367151863422    -2.029723617047    -0.571497617466     1.007825032230
         H            1.154002863422     0.997517382953     1.612690382534     1.007825032230
         H            2.057816863422    -0.789019617047    -1.872221617466     1.007825032230
         H            1.913869863422     1.635927382953    -1.273048617466     1.007825032230
         H            3.292737863422    -0.094891617047     0.828180382534     1.007825032230
         H            0.547155863422    -1.900820417047     1.752486882534     1.007825032230
         H            0.662422863422     3.108951382953     0.683718382534     1.007825032230
         H            2.970425863422    -2.547733617047     0.095188382534     1.007825032230
         H            3.718311863422     2.548826382953    -0.058334617466     1.007825032230
         H            4.636609863422    -0.424193617047    -1.096552617466     1.007825032230
         H           -3.811512136578    -1.522697617047     1.735262382534     1.007825032230
         H           -3.933663136578     1.445181382953     0.249920382534     1.007825032230
         H           -2.232879136578     1.892520382953    -0.058561617466     1.007825032230
         H           -3.803638136578     3.130522382953    -1.602136617466     1.007825032230
         H           -2.720313136578     2.052963382953    -2.504340617466     1.007825032230
         H           -4.404061136578     1.573963382953    -2.212189617466     1.007825032230

  Basis Set: AUG-CC-PVTZ
    Blend: AUG-CC-PVTZ
  Basis Set: (AUG-CC-PVTZ AUX)
    Blend: AUG-CC-PVTZ-JKFIT
	 Reference Energy          =   -1327.8543991946610276 [Eh]
	 Singles Energy            =      -0.0000000000000000 [Eh]
	 Same-Spin Energy          =      -1.0149532308571465 [Eh]
	 Opposite-Spin Energy      =      -3.0763273847416865 [Eh]
	 Correlation Energy        =      -4.0912806155988335 [Eh]
	 Total Energy              =   -1331.9456798102598896 [Eh]

	 ================> DF-SCS-MP2 Energies <==================
	-----------------------------------------------------------
	 SCS Same-Spin Scale       =       0.3333333333333333 [-]
	 SCS Opposite-Spin Scale   =       1.2000000000000000 [-]
	 SCS Same-Spin Energy      =      -0.3383177436190488 [Eh]
	 SCS Opposite-Spin Energy  =      -3.6915928616900238 [Eh]
	 SCS Correlation Energy    =      -4.0299106053090723 [Eh]
	 SCS Total Energy          =   -1331.8843097999701968 [Eh]
	-----------------------------------------------------------

  Dipole Moment: [D]
     X:    -1.0373      Y:     1.8465      Z:     0.7615     Total:     2.2507

*** Psi4 exiting successfully. Buy a developer a beer!
