                               Psi4 1.3.2 release

  ==> Input File <==

--------------------------------------------------------------------------
#psi4
#
memory 32 gb

molecule  {
0 1
  P       -2.2944977    -0.8756135     0.3981103
  O       -0.9821530    -0.2015620     0.9382890
  O        1.3422500    -1.6754830     1.2308510
  O        0.0787050     2.3596040     0.4621680
  O        3.0685150    -2.1870720    -0.8085900
  O        2.8473350     2.5031130     0.3715350
  O        4.1956880     0.4353970    -0.9728740
  O       -2.8268630     0.0333510    -0.8075310
  O       -3.2591210    -0.7232820     1.6216710
  O       -2.1189930    -2.3436440    -0.0996680
  C        0.1181620     0.0300090     0.0163190
  C        0.9532920    -1.2442050    -0.0757250
  C        0.8985890     1.2026440     0.5648510
  C        2.2596600    -1.0143070    -0.8180370
  C        2.1770750     1.3964720    -0.2280410
  C        3.0258420     0.1487050    -0.2103220
  C       -3.1030812     1.4175022    -0.4165384
  C       -3.5363170     2.0851650    -1.7841190
  H       -0.2830920     0.2988010    -0.9702380
  H        0.3702690    -2.0293640    -0.5720320
  H        1.1571200     0.9978770     1.6121560
  H        2.0609340    -0.7886600    -1.8727560
  H        1.9169870     1.6362870    -1.2735830
  H        3.2958550    -0.0945320     0.8276460
  H        0.5217750    -1.8880320     1.7115100
  H        0.6655400     3.1093110     0.6831840
  H        2.9735430    -2.5473740     0.0946540
  H        3.7214290     2.5491860    -0.0588690
  H        4.6397270    -0.4238340    -1.0970870
  H       -3.8083950    -1.5223380     1.7347280
  H       -3.9305460     1.4455410     0.2493860
  H       -2.2297620     1.8928800    -0.0590960
  H       -3.8005210     3.1308820    -1.6026710
  H       -2.7171960     2.0533230    -2.5048750
  H       -4.4009440     1.5743230    -2.2127240
units angstrom
no_reorient  #important for SAPT in psi4, default
symmetry c1  #important for SAPT in psi4, default
}

set PROPERTIES_ORIGIN ["COM"]
properties('MP2/aug-cc-pvtz', properties = ['dipole'])
--------------------------------------------------------------------------

    Molecular point group: c1
  Charge       = 0
  Multiplicity = 1
  Basis Set: AUG-CC-PVTZ
    Blend: AUG-CC-PVTZ
  Basis Set: (AUG-CC-PVTZ AUX)
    Blend: AUG-CC-PVTZ-JKFIT

    Orbital Energies [Eh]
    ---------------------

    Doubly Occupied:

       1A    -80.117397     2A    -20.625363     3A    -20.614787
       4A    -20.603055     5A    -20.583602     6A    -20.578488
       7A    -20.576636     8A    -20.574960     9A    -20.574888
      10A    -20.505269    11A    -11.326359    12A    -11.303877
      13A    -11.301737    14A    -11.299977    15A    -11.298709
      16A    -11.298157    17A    -11.292450    18A    -11.232512
      19A     -7.632830    20A     -5.531559    21A     -5.531034
      22A     -5.529299    23A     -1.476652    24A     -1.420715
      25A     -1.403819    26A     -1.395603    27A     -1.394266
      28A     -1.376861    29A     -1.365460    30A     -1.355249
      31A     -1.256650    32A     -1.122324    33A     -1.027531
      34A     -1.016599    35A     -1.004902    36A     -0.886826
      37A     -0.871328    38A     -0.861192    39A     -0.834542
      40A     -0.812864    41A     -0.758635    42A     -0.751684
      43A     -0.737328    44A     -0.734574    45A     -0.713766
      46A     -0.691605    47A     -0.681318    48A     -0.678577
      49A     -0.669970    50A     -0.663271    51A     -0.648062
      52A     -0.638726    53A     -0.631153    54A     -0.618147
      55A     -0.608937    56A     -0.599381    57A     -0.582352
      58A     -0.578531    59A     -0.570417    60A     -0.559134
      61A     -0.553071    62A     -0.548383    63A     -0.538438
      64A     -0.537496    65A     -0.531273    66A     -0.517858
      67A     -0.508395    68A     -0.503660    69A     -0.499388
      70A     -0.489781    71A     -0.475231    72A     -0.458239
      73A     -0.457493    74A     -0.447914    75A     -0.443784
      76A     -0.432620

  @DF-RHF Final Energy: -1327.84568709175619

   => Energetics <=

    Nuclear Repulsion Energy =           1773.9838552745766265
    One-Electron Energy =               -5359.9092472329775774
    Two-Electron Energy =                2258.0797048666445335
    Total Energy =                      -1327.8456870917561901
  Basis Set: (AUG-CC-PVTZ AUX)
    Blend: AUG-CC-PVTZ-RI
    Molecular point group: c1

    Geometry (in Angstrom), charge = 0, multiplicity = 1:

       Center              X                  Y                   Z               Mass
    ------------   -----------------  -----------------  -----------------  -----------------
         P           -2.294904679514    -0.881954063930     0.389351137758    30.973761998420
         O           -0.982559979514    -0.207902563930     0.929529837758    15.994914619570
         O            1.341843020486    -1.681823563930     1.222091837758    15.994914619570
         O            0.078298020486     2.353263436070     0.453408837758    15.994914619570
         O            3.068108020486    -2.193412563930    -0.817349162242    15.994914619570
         O            2.846928020486     2.496772436070     0.362775837758    15.994914619570
         O            4.195281020486     0.429056436070    -0.981633162242    15.994914619570
         O           -2.827269979514     0.027010436070    -0.816290162242    15.994914619570
         O           -3.259527979514    -0.729622563930     1.612911837758    15.994914619570
         O           -2.119399979514    -2.349984563930    -0.108427162242    15.994914619570
         C            0.117755020486     0.023668436070     0.007559837758    12.000000000000
         C            0.952885020486    -1.250545563930    -0.084484162242    12.000000000000
         C            0.898182020486     1.196303436070     0.556091837758    12.000000000000
         C            2.259253020486    -1.020647563930    -0.826796162242    12.000000000000
         C            2.176668020486     1.390131436070    -0.236800162242    12.000000000000
         C            3.025435020486     0.142364436070    -0.219081162242    12.000000000000
         C           -3.103488179514     1.411161636070    -0.425297562242    12.000000000000
         C           -3.536723979514     2.078824436070    -1.792878162242    12.000000000000
         H           -0.283498979514     0.292460436070    -0.978997162242     1.007825032230
         H            0.369862020486    -2.035704563930    -0.580791162242     1.007825032230
         H            1.156713020486     0.991536436070     1.603396837758     1.007825032230
         H            2.060527020486    -0.795000563930    -1.881515162242     1.007825032230
         H            1.916580020486     1.629946436070    -1.282342162242     1.007825032230
         H            3.295448020486    -0.100872563930     0.818886837758     1.007825032230
         H            0.521368020486    -1.894372563930     1.702750837758     1.007825032230
         H            0.665133020486     3.102970436070     0.674424837758     1.007825032230
         H            2.973136020486    -2.553714563930     0.085894837758     1.007825032230
         H            3.721022020486     2.542845436070    -0.067628162242     1.007825032230
         H            4.639320020486    -0.430174563930    -1.105846162242     1.007825032230
         H           -3.808801979514    -1.528678563930     1.725968837758     1.007825032230
         H           -3.930952979514     1.439200436070     0.240626837758     1.007825032230
         H           -2.230168979514     1.886539436070    -0.067855162242     1.007825032230
         H           -3.800927979514     3.124541436070    -1.611430162242     1.007825032230
         H           -2.717602979514     2.046982436070    -2.513634162242     1.007825032230
         H           -4.401350979514     1.567982436070    -2.221483162242     1.007825032230

  Basis Set: AUG-CC-PVTZ
    Blend: AUG-CC-PVTZ
  Basis Set: (AUG-CC-PVTZ AUX)
    Blend: AUG-CC-PVTZ-JKFIT
	 Reference Energy          =   -1327.8456870917561901 [Eh]
	 Singles Energy            =      -0.0000000000000000 [Eh]
	 Same-Spin Energy          =      -1.0149277409946307 [Eh]
	 Opposite-Spin Energy      =      -3.0767423370867357 [Eh]
	 Correlation Energy        =      -4.0916700780813660 [Eh]
	 Total Energy              =   -1331.9373571698374690 [Eh]

	 ================> DF-SCS-MP2 Energies <==================
	-----------------------------------------------------------
	 SCS Same-Spin Scale       =       0.3333333333333333 [-]
	 SCS Opposite-Spin Scale   =       1.2000000000000000 [-]
	 SCS Same-Spin Energy      =      -0.3383092469982102 [Eh]
	 SCS Opposite-Spin Energy  =      -3.6920908045040828 [Eh]
	 SCS Correlation Energy    =      -4.0304000515022933 [Eh]
	 SCS Total Energy          =   -1331.8760871432584736 [Eh]
	-----------------------------------------------------------

  Dipole Moment: [D]
     X:    -1.0180      Y:     2.4107      Z:     1.2426     Total:     2.8968

*** Psi4 exiting successfully. Buy a developer a beer!
