                               Psi4 1.3.2 release

  ==> Input File <==

--------------------------------------------------------------------------
#psi4
#
memory 32 gb

molecule  {
0 1
  P       -2.2900960    -0.9400430     0.3446780
  O       -0.9821530    -0.2015620     0.9382890
  O        1.3422500    -1.6754830     1.2308510
  O        0.0787050     2.3596040     0.4621680
  O        3.0685150    -2.1870720    -0.8085900
  O        2.8473350     2.5031130     0.3715350
  O        4.1956880     0.4353970    -0.9728740
  O       -2.8268630     0.0333510    -0.8075310
  O       -3.2591210    -0.7232820     1.6216710
  O       -2.1189930    -2.3436440    -0.0996680
  C        0.1181620     0.0300090     0.0163190
  C        0.9532920    -1.2442050    -0.0757250
  C        0.8985890     1.2026440     0.5648510
  C        2.2627979    -1.0123043    -0.8298993
  C        2.1770750     1.3964720    -0.2280410
  C        3.0258420     0.1487050    -0.2103220
  C       -3.1242130     1.4315980    -0.4888860
  C       -3.5363170     2.0851650    -1.7841190
  H       -0.2830920     0.2988010    -0.9702380
  H        0.3702690    -2.0293640    -0.5720320
  H        1.1571200     0.9978770     1.6121560
  H        2.0609340    -0.7886600    -1.8727560
  H        1.9169870     1.6362870    -1.2735830
  H        3.2958550    -0.0945320     0.8276460
  H        0.5217750    -1.8880320     1.7115100
  H        0.6655400     3.1093110     0.6831840
  H        2.9787704    -2.5537907     0.0926038
  H        3.7214290     2.5491860    -0.0588690
  H        4.6397270    -0.4238340    -1.0970870
  H       -3.8083950    -1.5223380     1.7347280
  H       -3.9305460     1.4455410     0.2493860
  H       -2.2297620     1.8928800    -0.0590960
  H       -3.8005210     3.1308820    -1.6026710
  H       -2.7171960     2.0533230    -2.5048750
  H       -4.4009440     1.5743230    -2.2127240
units angstrom
no_reorient  #important for SAPT in psi4, default
symmetry c1  #important for SAPT in psi4, default
}

set PROPERTIES_ORIGIN ["COM"]
properties('MP2/aug-cc-pvtz', properties = ['dipole'])
--------------------------------------------------------------------------

    Molecular point group: c1
  Charge       = 0
  Multiplicity = 1
  Basis Set: AUG-CC-PVTZ
    Blend: AUG-CC-PVTZ
  Basis Set: (AUG-CC-PVTZ AUX)
    Blend: AUG-CC-PVTZ-JKFIT

    Orbital Energies [Eh]
    ---------------------

    Doubly Occupied:

       1A    -80.116796     2A    -20.614616     3A    -20.606780
       4A    -20.598836     5A    -20.582917     6A    -20.576828
       7A    -20.574132     8A    -20.573803     9A    -20.573390
      10A    -20.523282    11A    -11.320457    12A    -11.303536
      13A    -11.299312    14A    -11.299249    15A    -11.298513
      16A    -11.296667    17A    -11.291438    18A    -11.229821
      19A     -7.632246    20A     -5.530752    21A     -5.530379
      22A     -5.529177    23A     -1.460117    24A     -1.410383
      25A     -1.394592    26A     -1.392583    27A     -1.386746
      28A     -1.372537    29A     -1.363699    30A     -1.353623
      31A     -1.303681    32A     -1.118398    33A     -1.040395
      34A     -1.011826    35A     -1.002665    36A     -0.879799
      37A     -0.864701    38A     -0.859817    39A     -0.822436
      40A     -0.810897    41A     -0.751125    42A     -0.744943
      43A     -0.731164    44A     -0.728439    45A     -0.707806
      46A     -0.687032    47A     -0.678269    48A     -0.673463
      49A     -0.662444    50A     -0.661272    51A     -0.642877
      52A     -0.635012    53A     -0.627039    54A     -0.615253
      55A     -0.603717    56A     -0.598814    57A     -0.581770
      58A     -0.575584    59A     -0.570764    60A     -0.559368
      61A     -0.556917    62A     -0.548413    63A     -0.541130
      64A     -0.536826    65A     -0.529992    66A     -0.521669
      67A     -0.512967    68A     -0.503907    69A     -0.496878
      70A     -0.484273    71A     -0.479692    72A     -0.476456
      73A     -0.462082    74A     -0.455804    75A     -0.449799
      76A     -0.435734

  @DF-RHF Final Energy: -1327.86162417810010

   => Energetics <=

    Nuclear Repulsion Energy =           1772.2174533457898633
    One-Electron Energy =               -5356.5971246017597878
    Two-Electron Energy =                2256.5180470778695963
    Total Energy =                      -1327.8616241781001008
  Basis Set: (AUG-CC-PVTZ AUX)
    Blend: AUG-CC-PVTZ-RI
    Molecular point group: c1

    Geometry (in Angstrom), charge = 0, multiplicity = 1:

       Center              X                  Y                   Z               Mass
    ------------   -----------------  -----------------  -----------------  -----------------
         P           -2.290244974153    -0.940103960688     0.345179321506    30.973761998420
         O           -0.982301974153    -0.201622960688     0.938790321506    15.994914619570
         O            1.342101025847    -1.675543960688     1.231352321506    15.994914619570
         O            0.078556025847     2.359543039312     0.462669321506    15.994914619570
         O            3.068366025847    -2.187132960688    -0.808088678494    15.994914619570
         O            2.847186025847     2.503052039312     0.372036321506    15.994914619570
         O            4.195539025847     0.435336039312    -0.972372678494    15.994914619570
         O           -2.827011974153     0.033290039312    -0.807029678494    15.994914619570
         O           -3.259269974153    -0.723342960688     1.622172321506    15.994914619570
         O           -2.119141974153    -2.343704960688    -0.099166678494    15.994914619570
         C            0.118013025847     0.029948039312     0.016820321506    12.000000000000
         C            0.953143025847    -1.244265960688    -0.075223678494    12.000000000000
         C            0.898440025847     1.202583039312     0.565352321506    12.000000000000
         C            2.262648925847    -1.012365260688    -0.829397978494    12.000000000000
         C            2.176926025847     1.396411039312    -0.227539678494    12.000000000000
         C            3.025693025847     0.148644039312    -0.209820678494    12.000000000000
         C           -3.124361974153     1.431537039312    -0.488384678494    12.000000000000
         C           -3.536465974153     2.085104039312    -1.783617678494    12.000000000000
         H           -0.283240974153     0.298740039312    -0.969736678494     1.007825032230
         H            0.370120025847    -2.029424960688    -0.571530678494     1.007825032230
         H            1.156971025847     0.997816039312     1.612657321506     1.007825032230
         H            2.060785025847    -0.788720960688    -1.872254678494     1.007825032230
         H            1.916838025847     1.636226039312    -1.273081678494     1.007825032230
         H            3.295706025847    -0.094592960688     0.828147321506     1.007825032230
         H            0.521626025847    -1.888092960688     1.712011321506     1.007825032230
         H            0.665391025847     3.109250039312     0.683685321506     1.007825032230
         H            2.978621425847    -2.553851660688     0.093105121506     1.007825032230
         H            3.721280025847     2.549125039312    -0.058367678494     1.007825032230
         H            4.639578025847    -0.423894960688    -1.096585678494     1.007825032230
         H           -3.808543974153    -1.522398960688     1.735229321506     1.007825032230
         H           -3.930694974153     1.445480039312     0.249887321506     1.007825032230
         H           -2.229910974153     1.892819039312    -0.058594678494     1.007825032230
         H           -3.800669974153     3.130821039312    -1.602169678494     1.007825032230
         H           -2.717344974153     2.053262039312    -2.504373678494     1.007825032230
         H           -4.401092974153     1.574262039312    -2.212222678494     1.007825032230

  Basis Set: AUG-CC-PVTZ
    Blend: AUG-CC-PVTZ
  Basis Set: (AUG-CC-PVTZ AUX)
    Blend: AUG-CC-PVTZ-JKFIT
	 Reference Energy          =   -1327.8616241781001008 [Eh]
	 Singles Energy            =      -0.0000000000000000 [Eh]
	 Same-Spin Energy          =      -1.0144626510559305 [Eh]
	 Opposite-Spin Energy      =      -3.0758905281366000 [Eh]
	 Correlation Energy        =      -4.0903531791925305 [Eh]
	 Total Energy              =   -1331.9519773572926624 [Eh]

	 ================> DF-SCS-MP2 Energies <==================
	-----------------------------------------------------------
	 SCS Same-Spin Scale       =       0.3333333333333333 [-]
	 SCS Opposite-Spin Scale   =       1.2000000000000000 [-]
	 SCS Same-Spin Energy      =      -0.3381542170186435 [Eh]
	 SCS Opposite-Spin Energy  =      -3.6910686337639200 [Eh]
	 SCS Correlation Energy    =      -4.0292228507825634 [Eh]
	 SCS Total Energy          =   -1331.8908470288827175 [Eh]
	-----------------------------------------------------------

  Dipole Moment: [D]
     X:    -1.0960      Y:     1.8551      Z:     0.7086     Total:     2.2682

*** Psi4 exiting successfully. Buy a developer a beer!
