                               Psi4 1.3.2 release

  ==> Input File <==

--------------------------------------------------------------------------
#psi4
#
memory 32 gb

molecule  {
0 1
  P       -2.2900960    -0.9400430     0.3446780
  O       -0.9821530    -0.2015620     0.9382890
  O        1.3422500    -1.6754830     1.2308510
  O        0.0787050     2.3596040     0.4621680
  O        3.0685150    -2.1870720    -0.8085900
  O        2.8473350     2.5031130     0.3715350
  O        4.1956880     0.4353970    -0.9728740
  O       -2.8268630     0.0333510    -0.8075310
  O       -3.2591210    -0.7232820     1.6216710
  O       -2.1189930    -2.3436440    -0.0996680
  C        0.1181620     0.0300090     0.0163190
  C        0.9532920    -1.2442050    -0.0757250
  C        0.8985890     1.2026440     0.5648510
  C        2.3456038    -0.9991824    -0.8668725
  C        2.1770750     1.3964720    -0.2280410
  C        3.0258420     0.1487050    -0.2103220
  C       -3.1242130     1.4315980    -0.4888860
  C       -3.5363170     2.0851650    -1.7841190
  H       -0.2830920     0.2988010    -0.9702380
  H        0.3702690    -2.0293640    -0.5720320
  H        1.1571200     0.9978770     1.6121560
  H        2.0609340    -0.7886600    -1.8727560
  H        1.9169870     1.6362870    -1.2735830
  H        3.2958550    -0.0945320     0.8276460
  H        0.5217750    -1.8880320     1.7115100
  H        0.6655400     3.1093110     0.6831840
  H        2.9735430    -2.5473740     0.0946540
  H        3.7214290     2.5491860    -0.0588690
  H        4.6397270    -0.4238340    -1.0970870
  H       -3.8083950    -1.5223380     1.7347280
  H       -3.9305460     1.4455410     0.2493860
  H       -2.2297620     1.8928800    -0.0590960
  H       -3.8005210     3.1308820    -1.6026710
  H       -2.7171960     2.0533230    -2.5048750
  H       -4.4009440     1.5743230    -2.2127240
units angstrom
no_reorient  #important for SAPT in psi4, default
symmetry c1  #important for SAPT in psi4, default
}

set PROPERTIES_ORIGIN ["COM"]
properties('MP2/aug-cc-pvtz', properties = ['dipole'])
--------------------------------------------------------------------------

    Molecular point group: c1
  Charge       = 0
  Multiplicity = 1
  Basis Set: AUG-CC-PVTZ
    Blend: AUG-CC-PVTZ
  Basis Set: (AUG-CC-PVTZ AUX)
    Blend: AUG-CC-PVTZ-JKFIT

    Orbital Energies [Eh]
    ---------------------

    Doubly Occupied:

       1A    -80.115729     2A    -20.613758     3A    -20.605022
       4A    -20.597993     5A    -20.581332     6A    -20.578248
       7A    -20.576529     8A    -20.572922     9A    -20.572315
      10A    -20.522246    11A    -11.317995    12A    -11.302617
      13A    -11.299925    14A    -11.298688    15A    -11.298358
      16A    -11.297585    17A    -11.290484    18A    -11.229364
      19A     -7.631175    20A     -5.529683    21A     -5.529308
      22A     -5.528108    23A     -1.458895    24A     -1.411953
      25A     -1.396212    26A     -1.394038    27A     -1.386057
      28A     -1.371856    29A     -1.367305    30A     -1.355946
      31A     -1.302650    32A     -1.113813    33A     -1.039861
      34A     -1.014360    35A     -0.993106    36A     -0.878249
      37A     -0.864661    38A     -0.862367    39A     -0.823158
      40A     -0.810167    41A     -0.749794    42A     -0.744780
      43A     -0.730209    44A     -0.727003    45A     -0.707630
      46A     -0.689102    47A     -0.681383    48A     -0.672665
      49A     -0.667984    50A     -0.661089    51A     -0.641718
      52A     -0.635248    53A     -0.628111    54A     -0.616332
      55A     -0.605920    56A     -0.600313    57A     -0.581759
      58A     -0.575089    59A     -0.569522    60A     -0.560036
      61A     -0.557463    62A     -0.548097    63A     -0.540967
      64A     -0.538268    65A     -0.527623    66A     -0.521371
      67A     -0.513165    68A     -0.499848    69A     -0.494899
      70A     -0.480088    71A     -0.478053    72A     -0.475244
      73A     -0.459960    74A     -0.457311    75A     -0.446920
      76A     -0.431763

  @DF-RHF Final Energy: -1327.85403375489841

   => Energetics <=

    Nuclear Repulsion Energy =           1771.2527334981270997
    One-Electron Energy =               -5354.7120094702495408
    Two-Electron Energy =                2255.6052422172242586
    Total Energy =                      -1327.8540337548984098
  Basis Set: (AUG-CC-PVTZ AUX)
    Blend: AUG-CC-PVTZ-RI
    Molecular point group: c1

    Geometry (in Angstrom), charge = 0, multiplicity = 1:

       Center              X                  Y                   Z               Mass
    ------------   -----------------  -----------------  -----------------  -----------------
         P           -2.293676200282    -0.940673040501     0.346712372241    30.973761998420
         O           -0.985733200282    -0.202192040501     0.940323372241    15.994914619570
         O            1.338669799718    -1.676113040501     1.232885372241    15.994914619570
         O            0.075124799718     2.358973959499     0.464202372241    15.994914619570
         O            3.064934799718    -2.187702040501    -0.806555627759    15.994914619570
         O            2.843754799718     2.502482959499     0.373569372241    15.994914619570
         O            4.192107799718     0.434766959499    -0.970839627759    15.994914619570
         O           -2.830443200282     0.032720959499    -0.805496627759    15.994914619570
         O           -3.262701200282    -0.723912040501     1.623705372241    15.994914619570
         O           -2.122573200282    -2.344274040501    -0.097633627759    15.994914619570
         C            0.114581799718     0.029378959499     0.018353372241    12.000000000000
         C            0.949711799718    -1.244835040501    -0.073690627759    12.000000000000
         C            0.895008799718     1.202013959499     0.566885372241    12.000000000000
         C            2.342023599718    -0.999812440501    -0.864838127759    12.000000000000
         C            2.173494799718     1.395841959499    -0.226006627759    12.000000000000
         C            3.022261799718     0.148074959499    -0.208287627759    12.000000000000
         C           -3.127793200282     1.430967959499    -0.486851627759    12.000000000000
         C           -3.539897200282     2.084534959499    -1.782084627759    12.000000000000
         H           -0.286672200282     0.298170959499    -0.968203627759     1.007825032230
         H            0.366688799718    -2.029994040501    -0.569997627759     1.007825032230
         H            1.153539799718     0.997246959499     1.614190372241     1.007825032230
         H            2.057353799718    -0.789290040501    -1.870721627759     1.007825032230
         H            1.913406799718     1.635656959499    -1.271548627759     1.007825032230
         H            3.292274799718    -0.095162040501     0.829680372241     1.007825032230
         H            0.518194799718    -1.888662040501     1.713544372241     1.007825032230
         H            0.661959799718     3.108680959499     0.685218372241     1.007825032230
         H            2.969962799718    -2.548004040501     0.096688372241     1.007825032230
         H            3.717848799718     2.548555959499    -0.056834627759     1.007825032230
         H            4.636146799718    -0.424464040501    -1.095052627759     1.007825032230
         H           -3.811975200282    -1.522968040501     1.736762372241     1.007825032230
         H           -3.934126200282     1.444910959499     0.251420372241     1.007825032230
         H           -2.233342200282     1.892249959499    -0.057061627759     1.007825032230
         H           -3.804101200282     3.130251959499    -1.600636627759     1.007825032230
         H           -2.720776200282     2.052692959499    -2.502840627759     1.007825032230
         H           -4.404524200282     1.573692959499    -2.210689627759     1.007825032230

  Basis Set: AUG-CC-PVTZ
    Blend: AUG-CC-PVTZ
  Basis Set: (AUG-CC-PVTZ AUX)
    Blend: AUG-CC-PVTZ-JKFIT
	 Reference Energy          =   -1327.8540337548984098 [Eh]
	 Singles Energy            =      -0.0000000000000000 [Eh]
	 Same-Spin Energy          =      -1.0143860947007439 [Eh]
	 Opposite-Spin Energy      =      -3.0755302533429094 [Eh]
	 Correlation Energy        =      -4.0899163480436531 [Eh]
	 Total Energy              =   -1331.9439501029421535 [Eh]

	 ================> DF-SCS-MP2 Energies <==================
	-----------------------------------------------------------
	 SCS Same-Spin Scale       =       0.3333333333333333 [-]
	 SCS Opposite-Spin Scale   =       1.2000000000000000 [-]
	 SCS Same-Spin Energy      =      -0.3381286982335813 [Eh]
	 SCS Opposite-Spin Energy  =      -3.6906363040114911 [Eh]
	 SCS Correlation Energy    =      -4.0287650022450725 [Eh]
	 SCS Total Energy          =   -1331.8827987571435187 [Eh]
	-----------------------------------------------------------

  Dipole Moment: [D]
     X:    -0.9475      Y:     1.8378      Z:     0.6777     Total:     2.1759

*** Psi4 exiting successfully. Buy a developer a beer!
