                               Psi4 1.3.2 release

  ==> Input File <==

--------------------------------------------------------------------------
#psi4
#
memory 32 gb

molecule  {
0 1
  P       -2.2900960    -0.9400430     0.3446780
  O       -0.9821530    -0.2015620     0.9382890
  O        1.3422500    -1.6754830     1.2308510
  O        0.0787050     2.3596040     0.4621680
  O        3.0772126    -2.1810601    -0.8151306
  O        2.8473350     2.5031130     0.3715350
  O        4.1956880     0.4353970    -0.9728740
  O       -2.8268630     0.0333510    -0.8075310
  O       -3.2591210    -0.7232820     1.6216710
  O       -2.1189930    -2.3436440    -0.0996680
  C        0.1181620     0.0300090     0.0163190
  C        0.9496708    -1.2317168    -0.0783488
  C        0.8985890     1.2026440     0.5648510
  C        2.2596600    -1.0143070    -0.8180370
  C        2.1770750     1.3964720    -0.2280410
  C        3.0258420     0.1487050    -0.2103220
  C       -3.1242130     1.4315980    -0.4888860
  C       -3.5363170     2.0851650    -1.7841190
  H       -0.2830920     0.2988010    -0.9702380
  H        0.3702690    -2.0293640    -0.5720320
  H        1.1571200     0.9978770     1.6121560
  H        2.0609340    -0.7886600    -1.8727560
  H        1.9169870     1.6362870    -1.2735830
  H        3.2958550    -0.0945320     0.8276460
  H        0.5217750    -1.8880320     1.7115100
  H        0.6655400     3.1093110     0.6831840
  H        2.9735430    -2.5473740     0.0946540
  H        3.7214290     2.5491860    -0.0588690
  H        4.6397270    -0.4238340    -1.0970870
  H       -3.8083950    -1.5223380     1.7347280
  H       -3.9305460     1.4455410     0.2493860
  H       -2.2297620     1.8928800    -0.0590960
  H       -3.8005210     3.1308820    -1.6026710
  H       -2.7171960     2.0533230    -2.5048750
  H       -4.4009440     1.5743230    -2.2127240
units angstrom
no_reorient  #important for SAPT in psi4, default
symmetry c1  #important for SAPT in psi4, default
}

set PROPERTIES_ORIGIN ["COM"]
properties('MP2/aug-cc-pvtz', properties = ['dipole'])
--------------------------------------------------------------------------

    Molecular point group: c1
  Charge       = 0
  Multiplicity = 1
  Basis Set: AUG-CC-PVTZ
    Blend: AUG-CC-PVTZ
  Basis Set: (AUG-CC-PVTZ AUX)
    Blend: AUG-CC-PVTZ-JKFIT

    Orbital Energies [Eh]
    ---------------------

    Doubly Occupied:

       1A    -80.117173     2A    -20.614905     3A    -20.607531
       4A    -20.599151     5A    -20.582630     6A    -20.576775
       7A    -20.576095     8A    -20.573695     9A    -20.573637
      10A    -20.523561    11A    -11.321143    12A    -11.304077
      13A    -11.299552    14A    -11.299498    15A    -11.298850
      16A    -11.296688    17A    -11.291134    18A    -11.229993
      19A     -7.632624    20A     -5.531130    21A     -5.530758
      22A     -5.529553    23A     -1.460616    24A     -1.410131
      25A     -1.394671    26A     -1.392179    27A     -1.387038
      28A     -1.372166    29A     -1.363234    30A     -1.353156
      31A     -1.303969    32A     -1.120432    33A     -1.040622
      34A     -1.013204    35A     -1.003447    36A     -0.880154
      37A     -0.864965    38A     -0.859191    39A     -0.822505
      40A     -0.810380    41A     -0.752015    42A     -0.745075
      43A     -0.731122    44A     -0.728820    45A     -0.708105
      46A     -0.687114    47A     -0.676907    48A     -0.673669
      49A     -0.662087    50A     -0.660167    51A     -0.643391
      52A     -0.634940    53A     -0.627233    54A     -0.615156
      55A     -0.603791    56A     -0.598435    57A     -0.581804
      58A     -0.575756    59A     -0.571074    60A     -0.559326
      61A     -0.556334    62A     -0.548289    63A     -0.541197
      64A     -0.536012    65A     -0.529529    66A     -0.521566
      67A     -0.513235    68A     -0.504468    69A     -0.496985
      70A     -0.486177    71A     -0.480084    72A     -0.476885
      73A     -0.463047    74A     -0.455795    75A     -0.451132
      76A     -0.435696

  @DF-RHF Final Energy: -1327.86010612598216

   => Energetics <=

    Nuclear Repulsion Energy =           1772.5063541814035943
    One-Electron Energy =               -5357.1436506816753536
    Two-Electron Energy =                2256.7771903742900577
    Total Energy =                      -1327.8601061259819289
  Basis Set: (AUG-CC-PVTZ AUX)
    Blend: AUG-CC-PVTZ-RI
    Molecular point group: c1

    Geometry (in Angstrom), charge = 0, multiplicity = 1:

       Center              X                  Y                   Z               Mass
    ------------   -----------------  -----------------  -----------------  -----------------
         P           -2.290428059893    -0.940897031332     0.345150466841    30.973761998420
         O           -0.982485059893    -0.202416031332     0.938761466841    15.994914619570
         O            1.341917940107    -1.676337031332     1.231323466841    15.994914619570
         O            0.078372940107     2.358749968668     0.462640466841    15.994914619570
         O            3.076880540107    -2.181914131332    -0.814658133159    15.994914619570
         O            2.847002940107     2.502258968668     0.372007466841    15.994914619570
         O            4.195355940107     0.434542968668    -0.972401533159    15.994914619570
         O           -2.827195059893     0.032496968668    -0.807058533159    15.994914619570
         O           -3.259453059893    -0.724136031332     1.622143466841    15.994914619570
         O           -2.119325059893    -2.344498031332    -0.099195533159    15.994914619570
         C            0.117829940107     0.029154968668     0.016791466841    12.000000000000
         C            0.949338740107    -1.232570831332    -0.077876333159    12.000000000000
         C            0.898256940107     1.201789968668     0.565323466841    12.000000000000
         C            2.259327940107    -1.015161031332    -0.817564533159    12.000000000000
         C            2.176742940107     1.395617968668    -0.227568533159    12.000000000000
         C            3.025509940107     0.147850968668    -0.209849533159    12.000000000000
         C           -3.124545059893     1.430743968668    -0.488413533159    12.000000000000
         C           -3.536649059893     2.084310968668    -1.783646533159    12.000000000000
         H           -0.283424059893     0.297946968668    -0.969765533159     1.007825032230
         H            0.369936940107    -2.030218031332    -0.571559533159     1.007825032230
         H            1.156787940107     0.997022968668     1.612628466841     1.007825032230
         H            2.060601940107    -0.789514031332    -1.872283533159     1.007825032230
         H            1.916654940107     1.635432968668    -1.273110533159     1.007825032230
         H            3.295522940107    -0.095386031332     0.828118466841     1.007825032230
         H            0.521442940107    -1.888886031332     1.711982466841     1.007825032230
         H            0.665207940107     3.108456968668     0.683656466841     1.007825032230
         H            2.973210940107    -2.548228031332     0.095126466841     1.007825032230
         H            3.721096940107     2.548331968668    -0.058396533159     1.007825032230
         H            4.639394940107    -0.424688031332    -1.096614533159     1.007825032230
         H           -3.808727059893    -1.523192031332     1.735200466841     1.007825032230
         H           -3.930878059893     1.444686968668     0.249858466841     1.007825032230
         H           -2.230094059893     1.892025968668    -0.058623533159     1.007825032230
         H           -3.800853059893     3.130027968668    -1.602198533159     1.007825032230
         H           -2.717528059893     2.052468968668    -2.504402533159     1.007825032230
         H           -4.401276059893     1.573468968668    -2.212251533159     1.007825032230

  Basis Set: AUG-CC-PVTZ
    Blend: AUG-CC-PVTZ
  Basis Set: (AUG-CC-PVTZ AUX)
    Blend: AUG-CC-PVTZ-JKFIT
	 Reference Energy          =   -1327.8601061259821563 [Eh]
	 Singles Energy            =      -0.0000000000000000 [Eh]
	 Same-Spin Energy          =      -1.0148779652302646 [Eh]
	 Opposite-Spin Energy      =      -3.0766709175615268 [Eh]
	 Correlation Energy        =      -4.0915488827917912 [Eh]
	 Total Energy              =   -1331.9516550087739688 [Eh]

	 ================> DF-SCS-MP2 Energies <==================
	-----------------------------------------------------------
	 SCS Same-Spin Scale       =       0.3333333333333333 [-]
	 SCS Opposite-Spin Scale   =       1.2000000000000000 [-]
	 SCS Same-Spin Energy      =      -0.3382926550767549 [Eh]
	 SCS Opposite-Spin Energy  =      -3.6920051010738320 [Eh]
	 SCS Correlation Energy    =      -4.0302977561505866 [Eh]
	 SCS Total Energy          =   -1331.8904038821326594 [Eh]
	-----------------------------------------------------------

  Dipole Moment: [D]
     X:    -1.1439      Y:     1.8626      Z:     0.7170     Total:     2.3004

*** Psi4 exiting successfully. Buy a developer a beer!
