                               Psi4 1.3.2 release

  ==> Input File <==

--------------------------------------------------------------------------
#psi4
#
memory 32 gb

molecule  {
0 1
  P       -2.2900960    -0.9400430     0.3446780
  O       -0.9821530    -0.2015620     0.9382890
  O        1.3422500    -1.6754830     1.2308510
  O        0.0787050     2.3596040     0.4621680
  O        3.0685150    -2.1870720    -0.8085900
  O        2.8473350     2.5031130     0.3715350
  O        4.1956880     0.4353970    -0.9728740
  O       -2.8268630     0.0333510    -0.8075310
  O       -3.2591210    -0.7232820     1.6216710
  O       -2.1189930    -2.3436440    -0.0996680
  C        0.1181620     0.0300090     0.0163190
  C        1.0076980    -1.3045305     0.1070339
  C        0.8985890     1.2026440     0.5648510
  C        2.2596600    -1.0143070    -0.8180370
  C        2.1770750     1.3964720    -0.2280410
  C        3.0258420     0.1487050    -0.2103220
  C       -3.1242130     1.4315980    -0.4888860
  C       -3.5363170     2.0851650    -1.7841190
  H       -0.2830920     0.2988010    -0.9702380
  H        0.3702690    -2.0293640    -0.5720320
  H        1.1571200     0.9978770     1.6121560
  H        2.0609340    -0.7886600    -1.8727560
  H        1.9169870     1.6362870    -1.2735830
  H        3.2958550    -0.0945320     0.8276460
  H        0.5217750    -1.8880320     1.7115100
  H        0.6655400     3.1093110     0.6831840
  H        2.9735430    -2.5473740     0.0946540
  H        3.7214290     2.5491860    -0.0588690
  H        4.6397270    -0.4238340    -1.0970870
  H       -3.8083950    -1.5223380     1.7347280
  H       -3.9305460     1.4455410     0.2493860
  H       -2.2297620     1.8928800    -0.0590960
  H       -3.8005210     3.1308820    -1.6026710
  H       -2.7171960     2.0533230    -2.5048750
  H       -4.4009440     1.5743230    -2.2127240
units angstrom
no_reorient  #important for SAPT in psi4, default
symmetry c1  #important for SAPT in psi4, default
}

set PROPERTIES_ORIGIN ["COM"]
properties('MP2/aug-cc-pvtz', properties = ['dipole'])
--------------------------------------------------------------------------

    Molecular point group: c1
  Charge       = 0
  Multiplicity = 1
  Basis Set: AUG-CC-PVTZ
    Blend: AUG-CC-PVTZ
  Basis Set: (AUG-CC-PVTZ AUX)
    Blend: AUG-CC-PVTZ-JKFIT

    Orbital Energies [Eh]
    ---------------------

    Doubly Occupied:

       1A    -80.114332     2A    -20.613094     3A    -20.606993
       4A    -20.602387     5A    -20.596911     6A    -20.575317
       7A    -20.572145     8A    -20.571485     9A    -20.570854
      10A    -20.520679    11A    -11.312806    12A    -11.309015
      13A    -11.297805    14A    -11.295504    15A    -11.295018
      16A    -11.294352    17A    -11.288533    18A    -11.228535
      19A     -7.629765    20A     -5.528278    21A     -5.527901
      22A     -5.526694    23A     -1.494268    24A     -1.455565
      25A     -1.400017    26A     -1.391540    27A     -1.384977
      28A     -1.378895    29A     -1.364577    30A     -1.353202
      31A     -1.301112    32A     -1.107063    33A     -1.038888
      34A     -1.003953    35A     -0.987296    36A     -0.881384
      37A     -0.864969    38A     -0.852524    39A     -0.826432
      40A     -0.817893    41A     -0.769469    42A     -0.745216
      43A     -0.732615    44A     -0.728651    45A     -0.707762
      46A     -0.706136    47A     -0.689789    48A     -0.675048
      49A     -0.662332    50A     -0.659316    51A     -0.652655
      52A     -0.633569    53A     -0.631207    54A     -0.620879
      55A     -0.602519    56A     -0.600132    57A     -0.586712
      58A     -0.575383    59A     -0.573451    60A     -0.562840
      61A     -0.555330    62A     -0.551482    63A     -0.540542
      64A     -0.540053    65A     -0.530819    66A     -0.519506
      67A     -0.510072    68A     -0.498977    69A     -0.490617
      70A     -0.477816    71A     -0.475819    72A     -0.471549
      73A     -0.456817    74A     -0.454023    75A     -0.423960
      76A     -0.411857

  @DF-RHF Final Energy: -1327.81761965206647

   => Energetics <=

    Nuclear Repulsion Energy =           1773.0942077540248647
    One-Electron Energy =               -5358.2079037450939722
    Two-Electron Energy =                2257.2960763390028660
    Total Energy =                      -1327.8176196520662415
  Basis Set: (AUG-CC-PVTZ AUX)
    Blend: AUG-CC-PVTZ-RI
    Molecular point group: c1

    Geometry (in Angstrom), charge = 0, multiplicity = 1:

       Center              X                  Y                   Z               Mass
    ------------   -----------------  -----------------  -----------------  -----------------
         P           -2.292362403638    -0.937529952266     0.337064649657    30.973761998420
         O           -0.984419403638    -0.199048952266     0.930675649657    15.994914619570
         O            1.339983596362    -1.672969952266     1.223237649657    15.994914619570
         O            0.076438596362     2.362117047734     0.454554649657    15.994914619570
         O            3.066248596362    -2.184558952266    -0.816203350343    15.994914619570
         O            2.845068596362     2.505626047734     0.363921649657    15.994914619570
         O            4.193421596362     0.437910047734    -0.980487350343    15.994914619570
         O           -2.829129403638     0.035864047734    -0.815144350343    15.994914619570
         O           -3.261387403638    -0.720768952266     1.614057649657    15.994914619570
         O           -2.121259403638    -2.341130952266    -0.107281350343    15.994914619570
         C            0.115895596362     0.032522047734     0.008705649657    12.000000000000
         C            1.005431596362    -1.302017452266     0.099420549657    12.000000000000
         C            0.896322596362     1.205157047734     0.557237649657    12.000000000000
         C            2.257393596362    -1.011793952266    -0.825650350343    12.000000000000
         C            2.174808596362     1.398985047734    -0.235654350343    12.000000000000
         C            3.023575596362     0.151218047734    -0.217935350343    12.000000000000
         C           -3.126479403638     1.434111047734    -0.496499350343    12.000000000000
         C           -3.538583403638     2.087678047734    -1.791732350343    12.000000000000
         H           -0.285358403638     0.301314047734    -0.977851350343     1.007825032230
         H            0.368002596362    -2.026850952266    -0.579645350343     1.007825032230
         H            1.154853596362     1.000390047734     1.604542649657     1.007825032230
         H            2.058667596362    -0.786146952266    -1.880369350343     1.007825032230
         H            1.914720596362     1.638800047734    -1.281196350343     1.007825032230
         H            3.293588596362    -0.092018952266     0.820032649657     1.007825032230
         H            0.519508596362    -1.885518952266     1.703896649657     1.007825032230
         H            0.663273596362     3.111824047734     0.675570649657     1.007825032230
         H            2.971276596362    -2.544860952266     0.087040649657     1.007825032230
         H            3.719162596362     2.551699047734    -0.066482350343     1.007825032230
         H            4.637460596362    -0.421320952266    -1.104700350343     1.007825032230
         H           -3.810661403638    -1.519824952266     1.727114649657     1.007825032230
         H           -3.932812403638     1.448054047734     0.241772649657     1.007825032230
         H           -2.232028403638     1.895393047734    -0.066709350343     1.007825032230
         H           -3.802787403638     3.133395047734    -1.610284350343     1.007825032230
         H           -2.719462403638     2.055836047734    -2.512488350343     1.007825032230
         H           -4.403210403638     1.576836047734    -2.220337350343     1.007825032230

  Basis Set: AUG-CC-PVTZ
    Blend: AUG-CC-PVTZ
  Basis Set: (AUG-CC-PVTZ AUX)
    Blend: AUG-CC-PVTZ-JKFIT
	 Reference Energy          =   -1327.8176196520664689 [Eh]
	 Singles Energy            =      -0.0000000000000000 [Eh]
	 Same-Spin Energy          =      -1.0156274319249274 [Eh]
	 Opposite-Spin Energy      =      -3.0756532280713178 [Eh]
	 Correlation Energy        =      -4.0912806599962455 [Eh]
	 Total Energy              =   -1331.9089003120627694 [Eh]

	 ================> DF-SCS-MP2 Energies <==================
	-----------------------------------------------------------
	 SCS Same-Spin Scale       =       0.3333333333333333 [-]
	 SCS Opposite-Spin Scale   =       1.2000000000000000 [-]
	 SCS Same-Spin Energy      =      -0.3385424773083091 [Eh]
	 SCS Opposite-Spin Energy  =      -3.6907838736855814 [Eh]
	 SCS Correlation Energy    =      -4.0293263509938901 [Eh]
	 SCS Total Energy          =   -1331.8469460030603386 [Eh]
	-----------------------------------------------------------

  Dipole Moment: [D]
     X:    -0.9075      Y:     1.5816      Z:     1.2974     Total:     2.2379

*** Psi4 exiting successfully. Buy a developer a beer!
