                               Psi4 1.4a3.dev225

  ==> Input File <==

--------------------------------------------------------------------------
#psi4
#
memory 32 gb

molecule  {
0 1
  P       -2.3219140    -1.0563120    -0.0968450
  O       -1.0285840    -0.5623410     0.7549430
  O        1.3695440    -1.8069540     1.2202350
  O       -0.1592450     2.1412630     0.5207450
  O        3.3269040    -2.0858120    -0.6453880
  O        2.5724350     2.5270130     0.6374560
  O        4.2203020     0.6406430    -0.6358120
  O       -2.8737010     0.2643620    -0.8096810
  O       -3.3065970    -1.3497020     1.1531960
  O       -2.1044560    -2.1814480    -1.0350500
  C        0.1200290    -0.1583450    -0.0432010
  C        1.0698050    -1.3527180    -0.1046720
  C        0.7441670     1.0454510     0.6308160
  C        2.4193320    -0.9866070    -0.7068450
  C        2.0603010     1.3853380    -0.0470020
  C        2.9863908     0.2568250     0.0039277
  C       -3.2473180     1.4231610     0.0025120
  C       -3.2076300     2.6262440    -0.9075720
  H       -0.2047330     0.1313700    -1.0514980
  H        0.5965010    -2.1549610    -0.6866410
  H        0.9371260     0.8063110     1.6860210
  H        2.3054700    -0.7437210    -1.7704410
  H        1.8633300     1.6367370    -1.1028410
  H        3.2142070    -0.0417910     1.0561650
  H        0.5126160    -2.0057500     1.6426110
  H        0.3598300     2.9232990     0.7925780
  H        3.1793900    -2.4823080     0.2360710
  H        3.4672560     2.6739710     0.2770410
  H        4.7639490    -0.1654590    -0.7244900
  H       -3.7873380    -2.1826420     0.9908450
  H       -4.2474700     1.2335250     0.4005830
  H       -2.5352900     1.5309660     0.8217280
  H       -3.5402110     3.5125760    -0.3587690
  H       -2.1856630     2.7912820    -1.2511950
  H       -3.8637180     2.4807570    -1.7684970
units angstrom
no_reorient  #important for SAPT in psi4, default
symmetry c1  #important for SAPT in psi4, default
}

set PROPERTIES_ORIGIN ["COM"]
properties('MP2/aug-cc-pvtz', properties = ['dipole'])
--------------------------------------------------------------------------

    Molecular point group: c1
  Charge       = 0
  Multiplicity = 1
  Basis Set: AUG-CC-PVTZ
    Blend: AUG-CC-PVTZ
  Basis Set: (AUG-CC-PVTZ AUX)
    Blend: AUG-CC-PVTZ-JKFIT

    Orbital Energies [Eh]
    ---------------------

    Doubly Occupied:

       1A    -80.117071     2A    -20.615212     3A    -20.608478
       4A    -20.596290     5A    -20.584037     6A    -20.579170
       7A    -20.576970     8A    -20.575650     9A    -20.572351
      10A    -20.522707    11A    -11.321932    12A    -11.304854
      13A    -11.302115    14A    -11.301844    15A    -11.297739
      16A    -11.296438    17A    -11.294052    18A    -11.223175
      19A     -7.632334    20A     -5.530868    21A     -5.530367
      22A     -5.529303    23A     -1.458788    24A     -1.410870
      25A     -1.395947    26A     -1.392164    27A     -1.385270
      28A     -1.370765    29A     -1.365029    30A     -1.351859
      31A     -1.302893    32A     -1.122649    33A     -1.035881
      34A     -1.016255    35A     -1.003768    36A     -0.876901
      37A     -0.862939    38A     -0.861826    39A     -0.822665
      40A     -0.810187    41A     -0.755079    42A     -0.745957
      43A     -0.729356    44A     -0.726412    45A     -0.706537
      46A     -0.686501    47A     -0.678947    48A     -0.674597
      49A     -0.663491    50A     -0.659692    51A     -0.642739
      52A     -0.637934    53A     -0.624136    54A     -0.613664
      55A     -0.604711    56A     -0.595505    57A     -0.580587
      58A     -0.577094    59A     -0.570344    60A     -0.560133
      61A     -0.554409    62A     -0.547867    63A     -0.539069
      64A     -0.537929    65A     -0.529296    66A     -0.517386
      67A     -0.509226    68A     -0.502802    69A     -0.495327
      70A     -0.487513    71A     -0.478995    72A     -0.475723
      73A     -0.464651    74A     -0.462470    75A     -0.451511
      76A     -0.433155

  @DF-RHF Final Energy: -1327.85763477110709

   => Energetics <=

    Nuclear Repulsion Energy =           1775.1073995149413349
    One-Electron Energy =               -5362.3693572342035623
    Two-Electron Energy =                2259.4043229481549133
    Total Energy =                      -1327.8576347711073140
  Basis Set: (AUG-CC-PVTZ AUX)
    Blend: AUG-CC-PVTZ-RI
    Molecular point group: c1

    Geometry (in Angstrom), charge = 0, multiplicity = 1:

       Center              X                  Y                   Z               Mass
    ------------   -----------------  -----------------  -----------------  -----------------
         P           -2.309832096860    -1.020142100210    -0.099216855534    30.973761998420
         O           -1.016502096860    -0.526171100210     0.752571144466    15.994914619570
         O            1.381625903140    -1.770784100210     1.217863144466    15.994914619570
         O           -0.147163096860     2.177432899790     0.518373144466    15.994914619570
         O            3.338985903140    -2.049642100210    -0.647759855534    15.994914619570
         O            2.584516903140     2.563182899790     0.635084144466    15.994914619570
         O            4.232383903140     0.676812899790    -0.638183855534    15.994914619570
         O           -2.861619096860     0.300531899790    -0.812052855534    15.994914619570
         O           -3.294515096860    -1.313532100210     1.150824144466    15.994914619570
         O           -2.092374096860    -2.145278100210    -1.037421855534    15.994914619570
         C            0.132110903140    -0.122175100210    -0.045572855534    12.000000000000
         C            1.081886903140    -1.316548100210    -0.107043855534    12.000000000000
         C            0.756248903140     1.081620899790     0.628444144466    12.000000000000
         C            2.431413903140    -0.950437100210    -0.709216855534    12.000000000000
         C            2.072382903140     1.421507899790    -0.049373855534    12.000000000000
         C            2.998472703140     0.292994899790     0.001555844466    12.000000000000
         C           -3.235236096860     1.459330899790     0.000140144466    12.000000000000
         C           -3.195548096860     2.662413899790    -0.909943855534    12.000000000000
         H           -0.192651096860     0.167539899790    -1.053869855534     1.007825032230
         H            0.608582903140    -2.118791100210    -0.689012855534     1.007825032230
         H            0.949207903140     0.842480899790     1.683649144466     1.007825032230
         H            2.317551903140    -0.707551100210    -1.772812855534     1.007825032230
         H            1.875411903140     1.672906899790    -1.105212855534     1.007825032230
         H            3.226288903140    -0.005621100210     1.053793144466     1.007825032230
         H            0.524697903140    -1.969580100210     1.640239144466     1.007825032230
         H            0.371911903140     2.959468899790     0.790206144466     1.007825032230
         H            3.191471903140    -2.446138100210     0.233699144466     1.007825032230
         H            3.479337903140     2.710140899790     0.274669144466     1.007825032230
         H            4.776030903140    -0.129289100210    -0.726861855534     1.007825032230
         H           -3.775256096860    -2.146472100210     0.988473144466     1.007825032230
         H           -4.235388096860     1.269694899790     0.398211144466     1.007825032230
         H           -2.523208096860     1.567135899790     0.819356144466     1.007825032230
         H           -3.528129096860     3.548745899790    -0.361140855534     1.007825032230
         H           -2.173581096860     2.827451899790    -1.253566855534     1.007825032230
         H           -3.851636096860     2.516926899790    -1.770868855534     1.007825032230

  Basis Set: AUG-CC-PVTZ
    Blend: AUG-CC-PVTZ
  Basis Set: (AUG-CC-PVTZ AUX)
    Blend: AUG-CC-PVTZ-JKFIT
	 Reference Energy          =   -1327.8576347711070866 [Eh]
	 Singles Energy            =      -0.0000000000000000 [Eh]
	 Same-Spin Energy          =      -1.0150518704060554 [Eh]
	 Opposite-Spin Energy      =      -3.0770655527981314 [Eh]
	 Correlation Energy        =      -4.0921174232041864 [Eh]
	 Total Energy              =   -1331.9497521943112588 [Eh]

	 ================> DF-SCS-MP2 Energies <==================
	-----------------------------------------------------------
	 SCS Same-Spin Scale       =       0.3333333333333333 [-]
	 SCS Opposite-Spin Scale   =       1.2000000000000000 [-]
	 SCS Same-Spin Energy      =      -0.3383506234686851 [Eh]
	 SCS Opposite-Spin Energy  =      -3.6924786633577575 [Eh]
	 SCS Correlation Energy    =      -4.0308292868264424 [Eh]
	 SCS Total Energy          =   -1331.8884640579335610 [Eh]
	-----------------------------------------------------------

  Dipole Moment: [D]
     X:    -0.9462      Y:     1.4153      Z:     1.8904     Total:     2.5440

*** Psi4 exiting successfully. Buy a developer a beer!
