                               Psi4 1.4a3.dev225

  ==> Input File <==

--------------------------------------------------------------------------
#psi4
#
memory 32 gb

molecule  {
0 1
  P       -2.3219140    -1.0563120    -0.0968450
  O       -1.0285840    -0.5623410     0.7549430
  O        1.3695440    -1.8069540     1.2202350
  O       -0.1592450     2.1412630     0.5207450
  O        3.3269040    -2.0858120    -0.6453880
  O        2.5724350     2.5270130     0.6374560
  O        4.2203020     0.6406430    -0.6358120
  O       -2.8737010     0.2643620    -0.8096810
  O       -3.3065970    -1.3497020     1.1531960
  O       -2.1044560    -2.1814480    -1.0350500
  C        0.1200290    -0.1583450    -0.0432010
  C        1.0698050    -1.3527180    -0.1046720
  C        0.7441670     1.0454510     0.6308160
  C        2.4193320    -0.9866070    -0.7068450
  C        2.0603010     1.3853380    -0.0470020
  C        3.0307697     0.2027458     0.0063683
  C       -3.2473180     1.4231610     0.0025120
  C       -3.2076300     2.6262440    -0.9075720
  H       -0.2047330     0.1313700    -1.0514980
  H        0.5965010    -2.1549610    -0.6866410
  H        0.9371260     0.8063110     1.6860210
  H        2.3054700    -0.7437210    -1.7704410
  H        1.8633300     1.6367370    -1.1028410
  H        3.2142070    -0.0417910     1.0561650
  H        0.5126160    -2.0057500     1.6426110
  H        0.3598300     2.9232990     0.7925780
  H        3.1793900    -2.4823080     0.2360710
  H        3.4672560     2.6739710     0.2770410
  H        4.7639490    -0.1654590    -0.7244900
  H       -3.7873380    -2.1826420     0.9908450
  H       -4.2474700     1.2335250     0.4005830
  H       -2.5352900     1.5309660     0.8217280
  H       -3.5402110     3.5125760    -0.3587690
  H       -2.1856630     2.7912820    -1.2511950
  H       -3.8637180     2.4807570    -1.7684970
units angstrom
no_reorient  #important for SAPT in psi4, default
symmetry c1  #important for SAPT in psi4, default
}

set PROPERTIES_ORIGIN ["COM"]
properties('MP2/aug-cc-pvtz', properties = ['dipole'])
--------------------------------------------------------------------------

    Molecular point group: c1
  Charge       = 0
  Multiplicity = 1
  Basis Set: AUG-CC-PVTZ
    Blend: AUG-CC-PVTZ
  Basis Set: (AUG-CC-PVTZ AUX)
    Blend: AUG-CC-PVTZ-JKFIT

    Orbital Energies [Eh]
    ---------------------

    Doubly Occupied:

       1A    -80.116763     2A    -20.614952     3A    -20.607974
       4A    -20.595950     5A    -20.584152     6A    -20.578274
       7A    -20.576544     8A    -20.574505     9A    -20.574276
      10A    -20.522504    11A    -11.321247    12A    -11.305459
      13A    -11.300076    14A    -11.299822    15A    -11.298521
      16A    -11.296065    17A    -11.292764    18A    -11.222814
      19A     -7.632026    20A     -5.530561    21A     -5.530058
      22A     -5.528998    23A     -1.458419    24A     -1.411079
      25A     -1.395643    26A     -1.392809    27A     -1.385190
      28A     -1.373603    29A     -1.363963    30A     -1.354955
      31A     -1.302687    32A     -1.117483    33A     -1.035406
      34A     -1.010312    35A     -1.002908    36A     -0.878250
      37A     -0.862428    38A     -0.858454    39A     -0.822952
      40A     -0.810109    41A     -0.754359    42A     -0.746004
      43A     -0.729025    44A     -0.726076    45A     -0.705360
      46A     -0.687148    47A     -0.679421    48A     -0.674213
      49A     -0.662303    50A     -0.659345    51A     -0.641874
      52A     -0.637467    53A     -0.623538    54A     -0.612896
      55A     -0.604022    56A     -0.597678    57A     -0.581026
      58A     -0.578051    59A     -0.570285    60A     -0.560001
      61A     -0.555847    62A     -0.548246    63A     -0.538447
      64A     -0.537662    65A     -0.530323    66A     -0.517973
      67A     -0.508377    68A     -0.503784    69A     -0.494401
      70A     -0.487496    71A     -0.478611    72A     -0.475437
      73A     -0.462448    74A     -0.454455    75A     -0.450703
      76A     -0.437742

  @DF-RHF Final Energy: -1327.86063127959642

   => Energetics <=

    Nuclear Repulsion Energy =           1774.4242722710414455
    One-Electron Energy =               -5361.0638127145330145
    Two-Electron Energy =                2258.7789091638951504
    Total Energy =                      -1327.8606312795964186
  Basis Set: (AUG-CC-PVTZ AUX)
    Blend: AUG-CC-PVTZ-RI
    Molecular point group: c1

    Geometry (in Angstrom), charge = 0, multiplicity = 1:

       Center              X                  Y                   Z               Mass
    ------------   -----------------  -----------------  -----------------  -----------------
         P           -2.311680826000    -1.017889277520    -0.099318525660    30.973761998420
         O           -1.018350826000    -0.523918277520     0.752469474340    15.994914619570
         O            1.379777174000    -1.768531277520     1.217761474340    15.994914619570
         O           -0.149011826000     2.179685722480     0.518271474340    15.994914619570
         O            3.337137174000    -2.047389277520    -0.647861525660    15.994914619570
         O            2.582668174000     2.565435722480     0.634982474340    15.994914619570
         O            4.230535174000     0.679065722480    -0.638285525660    15.994914619570
         O           -2.863467826000     0.302784722480    -0.812154525660    15.994914619570
         O           -3.296363826000    -1.311279277520     1.150722474340    15.994914619570
         O           -2.094222826000    -2.143025277520    -1.037523525660    15.994914619570
         C            0.130262174000    -0.119922277520    -0.045674525660    12.000000000000
         C            1.080038174000    -1.314295277520    -0.107145525660    12.000000000000
         C            0.754400174000     1.083873722480     0.628342474340    12.000000000000
         C            2.429565174000    -0.948184277520    -0.709318525660    12.000000000000
         C            2.070534174000     1.423760722480    -0.049475525660    12.000000000000
         C            3.041002874000     0.241168522480     0.003894774340    12.000000000000
         C           -3.237084826000     1.461583722480     0.000038474340    12.000000000000
         C           -3.197396826000     2.664666722480    -0.910045525660    12.000000000000
         H           -0.194499826000     0.169792722480    -1.053971525660     1.007825032230
         H            0.606734174000    -2.116538277520    -0.689114525660     1.007825032230
         H            0.947359174000     0.844733722480     1.683547474340     1.007825032230
         H            2.315703174000    -0.705298277520    -1.772914525660     1.007825032230
         H            1.873563174000     1.675159722480    -1.105314525660     1.007825032230
         H            3.224440174000    -0.003368277520     1.053691474340     1.007825032230
         H            0.522849174000    -1.967327277520     1.640137474340     1.007825032230
         H            0.370063174000     2.961721722480     0.790104474340     1.007825032230
         H            3.189623174000    -2.443885277520     0.233597474340     1.007825032230
         H            3.477489174000     2.712393722480     0.274567474340     1.007825032230
         H            4.774182174000    -0.127036277520    -0.726963525660     1.007825032230
         H           -3.777104826000    -2.144219277520     0.988371474340     1.007825032230
         H           -4.237236826000     1.271947722480     0.398109474340     1.007825032230
         H           -2.525056826000     1.569388722480     0.819254474340     1.007825032230
         H           -3.529977826000     3.550998722480    -0.361242525660     1.007825032230
         H           -2.175429826000     2.829704722480    -1.253668525660     1.007825032230
         H           -3.853484826000     2.519179722480    -1.770970525660     1.007825032230

  Basis Set: AUG-CC-PVTZ
    Blend: AUG-CC-PVTZ
  Basis Set: (AUG-CC-PVTZ AUX)
    Blend: AUG-CC-PVTZ-JKFIT
	 Reference Energy          =   -1327.8606312795964186 [Eh]
	 Singles Energy            =      -0.0000000000000000 [Eh]
	 Same-Spin Energy          =      -1.0146567980211376 [Eh]
	 Opposite-Spin Energy      =      -3.0765317922887325 [Eh]
	 Correlation Energy        =      -4.0911885903098701 [Eh]
	 Total Energy              =   -1331.9518198699063305 [Eh]

	 ================> DF-SCS-MP2 Energies <==================
	-----------------------------------------------------------
	 SCS Same-Spin Scale       =       0.3333333333333333 [-]
	 SCS Opposite-Spin Scale   =       1.2000000000000000 [-]
	 SCS Same-Spin Energy      =      -0.3382189326737125 [Eh]
	 SCS Opposite-Spin Energy  =      -3.6918381507464790 [Eh]
	 SCS Correlation Energy    =      -4.0300570834201919 [Eh]
	 SCS Total Energy          =   -1331.8906883630165794 [Eh]
	-----------------------------------------------------------

  Dipole Moment: [D]
     X:    -0.8307      Y:     1.4203      Z:     1.8720     Total:     2.4923

*** Psi4 exiting successfully. Buy a developer a beer!
