                               Psi4 1.3.2 release

  ==> Input File <==

--------------------------------------------------------------------------
#psi4
#
memory 32 gb

molecule  {
0 1
  P       -2.2900960    -0.9400430     0.3446780
  O       -0.9821530    -0.2015620     0.9382890
  O        1.3422500    -1.6754830     1.2308510
  O        0.0787050     2.3596040     0.4621680
  O        3.0685150    -2.1870720    -0.8085900
  O        2.8473350     2.5031130     0.3715350
  O        4.1956880     0.4353970    -0.9728740
  O       -2.8268630     0.0333510    -0.8075310
  O       -3.2591210    -0.7232820     1.6216710
  O       -2.1189930    -2.3436440    -0.0996680
  C        0.1181620     0.0300090     0.0163190
  C        0.9532920    -1.2442050    -0.0757250
  C        0.8985890     1.2026440     0.5648510
  C        2.2596600    -1.0143070    -0.8180370
  C        2.1770750     1.3964720    -0.2280410
  C        3.0258420     0.1487050    -0.2103220
  C       -3.1242130     1.4315980    -0.4888860
  C       -3.5363170     2.0851650    -1.7841190
  H       -0.2830920     0.2988010    -0.9702380
  H        0.3702690    -2.0293640    -0.5720320
  H        1.1571200     0.9978770     1.6121560
  H        2.0609340    -0.7886600    -1.8727560
  H        1.9169870     1.6362870    -1.2735830
  H        3.2958550    -0.0945320     0.8276460
  H        0.5217750    -1.8880320     1.7115100
  H        0.5454575     2.9559004     0.6379581
  H        2.9735430    -2.5473740     0.0946540
  H        3.7214290     2.5491860    -0.0588690
  H        4.6397270    -0.4238340    -1.0970870
  H       -3.8083950    -1.5223380     1.7347280
  H       -3.9305460     1.4455410     0.2493860
  H       -2.2297620     1.8928800    -0.0590960
  H       -3.8005210     3.1308820    -1.6026710
  H       -2.7171960     2.0533230    -2.5048750
  H       -4.4009440     1.5743230    -2.2127240
units angstrom
no_reorient  #important for SAPT in psi4, default
symmetry c1  #important for SAPT in psi4, default
}

set PROPERTIES_ORIGIN ["COM"]
properties('MP2/aug-cc-pvtz', properties = ['dipole'])
--------------------------------------------------------------------------

    Molecular point group: c1
  Charge       = 0
  Multiplicity = 1
  Basis Set: AUG-CC-PVTZ
    Blend: AUG-CC-PVTZ
  Basis Set: (AUG-CC-PVTZ AUX)
    Blend: AUG-CC-PVTZ-JKFIT

    Orbital Energies [Eh]
    ---------------------

    Doubly Occupied:

       1A    -80.117776     2A    -20.615434     3A    -20.608182
       4A    -20.599719     5A    -20.584037     6A    -20.575724
       7A    -20.575223     8A    -20.574660     9A    -20.555268
      10A    -20.524184    11A    -11.322296    12A    -11.304431
      13A    -11.301584    14A    -11.300144    15A    -11.300072
      16A    -11.297976    17A    -11.292289    18A    -11.230452
      19A     -7.633226    20A     -5.531732    21A     -5.531361
      22A     -5.530156    23A     -1.461997    24A     -1.441447
      25A     -1.407939    26A     -1.395048    27A     -1.387925
      28A     -1.382334    29A     -1.368574    30A     -1.355931
      31A     -1.304645    32A     -1.124664    33A     -1.041192
      34A     -1.016590    35A     -1.009142    36A     -0.881334
      37A     -0.869713    38A     -0.865649    39A     -0.823851
      40A     -0.812159    41A     -0.770062    42A     -0.746481
      43A     -0.736481    44A     -0.729882    45A     -0.712204
      46A     -0.697329    47A     -0.678928    48A     -0.674937
      49A     -0.664909    50A     -0.661997    51A     -0.649713
      52A     -0.637890    53A     -0.628161    54A     -0.616378
      55A     -0.606629    56A     -0.600567    57A     -0.583695
      58A     -0.576442    59A     -0.572211    60A     -0.563793
      61A     -0.557852    62A     -0.549669    63A     -0.542008
      64A     -0.537851    65A     -0.531246    66A     -0.524598
      67A     -0.514080    68A     -0.505732    69A     -0.498836
      70A     -0.486618    71A     -0.481076    72A     -0.477443
      73A     -0.465852    74A     -0.457453    75A     -0.452605
      76A     -0.437113

  @DF-RHF Final Energy: -1327.81756876257236

   => Energetics <=

    Nuclear Repulsion Energy =           1774.1074983789715134
    One-Electron Energy =               -5359.8805697510961181
    Two-Electron Energy =                2257.9555026095526955
    Total Energy =                      -1327.8175687625721366
  Basis Set: (AUG-CC-PVTZ AUX)
    Blend: AUG-CC-PVTZ-RI
    Molecular point group: c1

    Geometry (in Angstrom), charge = 0, multiplicity = 1:

       Center              X                  Y                   Z               Mass
    ------------   -----------------  -----------------  -----------------  -----------------
         P           -2.289675840382    -0.939506252145     0.344836220419    30.973761998420
         O           -0.981732840382    -0.201025252145     0.938447220419    15.994914619570
         O            1.342670159618    -1.674946252145     1.231009220419    15.994914619570
         O            0.079125159618     2.360140747855     0.462326220419    15.994914619570
         O            3.068935159618    -2.186535252145    -0.808431779581    15.994914619570
         O            2.847755159618     2.503649747855     0.371693220419    15.994914619570
         O            4.196108159618     0.435933747855    -0.972715779581    15.994914619570
         O           -2.826442840382     0.033887747855    -0.807372779581    15.994914619570
         O           -3.258700840382    -0.722745252145     1.621829220419    15.994914619570
         O           -2.118572840382    -2.343107252145    -0.099509779581    15.994914619570
         C            0.118582159618     0.030545747855     0.016477220419    12.000000000000
         C            0.953712159618    -1.243668252145    -0.075566779581    12.000000000000
         C            0.899009159618     1.203180747855     0.565009220419    12.000000000000
         C            2.260080159618    -1.013770252145    -0.817878779581    12.000000000000
         C            2.177495159618     1.397008747855    -0.227882779581    12.000000000000
         C            3.026262159618     0.149241747855    -0.210163779581    12.000000000000
         C           -3.123792840382     1.432134747855    -0.488727779581    12.000000000000
         C           -3.535896840382     2.085701747855    -1.783960779581    12.000000000000
         H           -0.282671840382     0.299337747855    -0.970079779581     1.007825032230
         H            0.370689159618    -2.028827252145    -0.571873779581     1.007825032230
         H            1.157540159618     0.998413747855     1.612314220419     1.007825032230
         H            2.061354159618    -0.788123252145    -1.872597779581     1.007825032230
         H            1.917407159618     1.636823747855    -1.273424779581     1.007825032230
         H            3.296275159618    -0.093995252145     0.827804220419     1.007825032230
         H            0.522195159618    -1.887495252145     1.711668220419     1.007825032230
         H            0.545877659618     2.956437147855     0.638116320419     1.007825032230
         H            2.973963159618    -2.546837252145     0.094812220419     1.007825032230
         H            3.721849159618     2.549722747855    -0.058710779581     1.007825032230
         H            4.640147159618    -0.423297252145    -1.096928779581     1.007825032230
         H           -3.807974840382    -1.521801252145     1.734886220419     1.007825032230
         H           -3.930125840382     1.446077747855     0.249544220419     1.007825032230
         H           -2.229341840382     1.893416747855    -0.058937779581     1.007825032230
         H           -3.800100840382     3.131418747855    -1.602512779581     1.007825032230
         H           -2.716775840382     2.053859747855    -2.504716779581     1.007825032230
         H           -4.400523840382     1.574859747855    -2.212565779581     1.007825032230

  Basis Set: AUG-CC-PVTZ
    Blend: AUG-CC-PVTZ
  Basis Set: (AUG-CC-PVTZ AUX)
    Blend: AUG-CC-PVTZ-JKFIT
	 Reference Energy          =   -1327.8175687625723640 [Eh]
	 Singles Energy            =      -0.0000000000000000 [Eh]
	 Same-Spin Energy          =      -1.0120160600627790 [Eh]
	 Opposite-Spin Energy      =      -3.0704479511515901 [Eh]
	 Correlation Energy        =      -4.0824640112143689 [Eh]
	 Total Energy              =   -1331.9000327737867337 [Eh]

	 ================> DF-SCS-MP2 Energies <==================
	-----------------------------------------------------------
	 SCS Same-Spin Scale       =       0.3333333333333333 [-]
	 SCS Opposite-Spin Scale   =       1.2000000000000000 [-]
	 SCS Same-Spin Energy      =      -0.3373386866875930 [Eh]
	 SCS Opposite-Spin Energy  =      -3.6845375413819079 [Eh]
	 SCS Correlation Energy    =      -4.0218762280695008 [Eh]
	 SCS Total Energy          =   -1331.8394449906418231 [Eh]
	-----------------------------------------------------------

  Dipole Moment: [D]
     X:    -1.2161      Y:     1.6545      Z:     0.6754     Total:     2.1616

*** Psi4 exiting successfully. Buy a developer a beer!
