                               Psi4 1.3.2 release

  ==> Input File <==

--------------------------------------------------------------------------
#psi4
#
memory 32 gb

molecule  {
0 1
  P       -2.2900960    -0.9400430     0.3446780
  O       -0.9821530    -0.2015620     0.9382890
  O        1.3422500    -1.6754830     1.2308510
  O        0.0787050     2.3596040     0.4621680
  O        3.0685150    -2.1870720    -0.8085900
  O        2.8473350     2.5031130     0.3715350
  O        4.1956880     0.4353970    -0.9728740
  O       -2.8268630     0.0333510    -0.8075310
  O       -3.2591210    -0.7232820     1.6216710
  O       -2.1189930    -2.3436440    -0.0996680
  C        0.1181620     0.0300090     0.0163190
  C        0.9532920    -1.2442050    -0.0757250
  C        0.8985890     1.2026440     0.5648510
  C        2.2596600    -1.0143070    -0.8180370
  C        2.1770750     1.3964720    -0.2280410
  C        3.0258420     0.1487050    -0.2103220
  C       -3.1242130     1.4315980    -0.4888860
  C       -3.5363170     2.0851650    -1.7841190
  H       -0.2830920     0.2988010    -0.9702380
  H        0.3702690    -2.0293640    -0.5720320
  H        1.1571200     0.9978770     1.6121560
  H        2.0609340    -0.7886600    -1.8727560
  H        1.9169870     1.6362870    -1.2735830
  H        3.3449595    -0.1387670     1.0164105
  H        0.5217750    -1.8880320     1.7115100
  H        0.6655400     3.1093110     0.6831840
  H        2.9735430    -2.5473740     0.0946540
  H        3.7214290     2.5491860    -0.0588690
  H        4.6397270    -0.4238340    -1.0970870
  H       -3.8083950    -1.5223380     1.7347280
  H       -3.9305460     1.4455410     0.2493860
  H       -2.2297620     1.8928800    -0.0590960
  H       -3.8005210     3.1308820    -1.6026710
  H       -2.7171960     2.0533230    -2.5048750
  H       -4.4009440     1.5743230    -2.2127240
units angstrom
no_reorient  #important for SAPT in psi4, default
symmetry c1  #important for SAPT in psi4, default
}

set PROPERTIES_ORIGIN ["COM"]
properties('MP2/aug-cc-pvtz', properties = ['dipole'])
--------------------------------------------------------------------------

    Molecular point group: c1
  Charge       = 0
  Multiplicity = 1
  Basis Set: AUG-CC-PVTZ
    Blend: AUG-CC-PVTZ
  Basis Set: (AUG-CC-PVTZ AUX)
    Blend: AUG-CC-PVTZ-JKFIT

    Orbital Energies [Eh]
    ---------------------

    Doubly Occupied:

       1A    -80.116957     2A    -20.614720     3A    -20.607043
       4A    -20.598995     5A    -20.581953     6A    -20.578240
       7A    -20.576936     8A    -20.574552     9A    -20.573535
      10A    -20.523445    11A    -11.320862    12A    -11.312830
      13A    -11.303768    14A    -11.301724    15A    -11.299456
      16A    -11.299082    17A    -11.298322    18A    -11.229971
      19A     -7.632407    20A     -5.530913    21A     -5.530540
      22A     -5.529338    23A     -1.460285    24A     -1.410734
      25A     -1.395223    26A     -1.392917    27A     -1.386926
      28A     -1.373420    29A     -1.363853    30A     -1.354673
      31A     -1.303840    32A     -1.118497    33A     -1.040515
      34A     -1.009096    35A     -1.004020    36A     -0.877949
      37A     -0.864140    38A     -0.859236    39A     -0.820499
      40A     -0.804221    41A     -0.750523    42A     -0.743575
      43A     -0.731423    44A     -0.727756    45A     -0.705452
      46A     -0.686828    47A     -0.677923    48A     -0.673978
      49A     -0.661771    50A     -0.656444    51A     -0.643251
      52A     -0.633530    53A     -0.626641    54A     -0.615010
      55A     -0.603980    56A     -0.594992    57A     -0.581675
      58A     -0.575494    59A     -0.569616    60A     -0.559013
      61A     -0.556469    62A     -0.547652    63A     -0.541200
      64A     -0.536355    65A     -0.529570    66A     -0.521536
      67A     -0.513348    68A     -0.500357    69A     -0.497001
      70A     -0.483434    71A     -0.479846    72A     -0.476334
      73A     -0.462493    74A     -0.450489    75A     -0.449961
      76A     -0.431193

  @DF-RHF Final Energy: -1327.84070600356063

   => Energetics <=

    Nuclear Repulsion Energy =           1771.3308116739490288
    One-Electron Energy =               -5354.7995347053938531
    Two-Electron Energy =                2255.6280170278841979
    Total Energy =                      -1327.8407060035606264
  Basis Set: (AUG-CC-PVTZ AUX)
    Blend: AUG-CC-PVTZ-RI
    Molecular point group: c1

    Geometry (in Angstrom), charge = 0, multiplicity = 1:

       Center              X                  Y                   Z               Mass
    ------------   -----------------  -----------------  -----------------  -----------------
         P           -2.290267766684    -0.939888219490     0.344017569624    30.973761998420
         O           -0.982324766684    -0.201407219490     0.937628569624    15.994914619570
         O            1.342078233316    -1.675328219490     1.230190569624    15.994914619570
         O            0.078533233316     2.359758780510     0.461507569624    15.994914619570
         O            3.068343233316    -2.186917219490    -0.809250430376    15.994914619570
         O            2.847163233316     2.503267780510     0.370874569624    15.994914619570
         O            4.195516233316     0.435551780510    -0.973534430376    15.994914619570
         O           -2.827034766684     0.033505780510    -0.808191430376    15.994914619570
         O           -3.259292766684    -0.723127219490     1.621010569624    15.994914619570
         O           -2.119164766684    -2.343489219490    -0.100328430376    15.994914619570
         C            0.117990233316     0.030163780510     0.015658569624    12.000000000000
         C            0.953120233316    -1.244050219490    -0.076385430376    12.000000000000
         C            0.898417233316     1.202798780510     0.564190569624    12.000000000000
         C            2.259488233316    -1.014152219490    -0.818697430376    12.000000000000
         C            2.176903233316     1.396626780510    -0.228701430376    12.000000000000
         C            3.025670233316     0.148859780510    -0.210982430376    12.000000000000
         C           -3.124384766684     1.431752780510    -0.489546430376    12.000000000000
         C           -3.536488766684     2.085319780510    -1.784779430376    12.000000000000
         H           -0.283263766684     0.298955780510    -0.970898430376     1.007825032230
         H            0.370097233316    -2.029209219490    -0.572692430376     1.007825032230
         H            1.156948233316     0.998031780510     1.611495569624     1.007825032230
         H            2.060762233316    -0.788505219490    -1.873416430376     1.007825032230
         H            1.916815233316     1.636441780510    -1.274243430376     1.007825032230
         H            3.344787733316    -0.138612219490     1.015750069624     1.007825032230
         H            0.521603233316    -1.887877219490     1.710849569624     1.007825032230
         H            0.665368233316     3.109465780510     0.682523569624     1.007825032230
         H            2.973371233316    -2.547219219490     0.093993569624     1.007825032230
         H            3.721257233316     2.549340780510    -0.059529430376     1.007825032230
         H            4.639555233316    -0.423679219490    -1.097747430376     1.007825032230
         H           -3.808566766684    -1.522183219490     1.734067569624     1.007825032230
         H           -3.930717766684     1.445695780510     0.248725569624     1.007825032230
         H           -2.229933766684     1.893034780510    -0.059756430376     1.007825032230
         H           -3.800692766684     3.131036780510    -1.603331430376     1.007825032230
         H           -2.717367766684     2.053477780510    -2.505535430376     1.007825032230
         H           -4.401115766684     1.574477780510    -2.213384430376     1.007825032230

  Basis Set: AUG-CC-PVTZ
    Blend: AUG-CC-PVTZ
  Basis Set: (AUG-CC-PVTZ AUX)
    Blend: AUG-CC-PVTZ-JKFIT
	 Reference Energy          =   -1327.8407060035606264 [Eh]
	 Singles Energy            =      -0.0000000000000000 [Eh]
	 Same-Spin Energy          =      -1.0152676536023366 [Eh]
	 Opposite-Spin Energy      =      -3.0784187264678926 [Eh]
	 Correlation Energy        =      -4.0936863800702294 [Eh]
	 Total Energy              =   -1331.9343923836308932 [Eh]

	 ================> DF-SCS-MP2 Energies <==================
	-----------------------------------------------------------
	 SCS Same-Spin Scale       =       0.3333333333333333 [-]
	 SCS Opposite-Spin Scale   =       1.2000000000000000 [-]
	 SCS Same-Spin Energy      =      -0.3384225512007789 [Eh]
	 SCS Opposite-Spin Energy  =      -3.6941024717614708 [Eh]
	 SCS Correlation Energy    =      -4.0325250229622496 [Eh]
	 SCS Total Energy          =   -1331.8732310265229444 [Eh]
	-----------------------------------------------------------

  Dipole Moment: [D]
     X:    -1.1028      Y:     1.8946      Z:     0.6043     Total:     2.2739

*** Psi4 exiting successfully. Buy a developer a beer!
