                               Psi4 1.3.2 release

  ==> Input File <==

--------------------------------------------------------------------------
#psi4
#
memory 32 gb

molecule  {
0 1
  P       -2.2900960    -0.9400430     0.3446780
  O       -0.9821530    -0.2015620     0.9382890
  O        1.3422500    -1.6754830     1.2308510
  O        0.0787050     2.3596040     0.4621680
  O        3.0685150    -2.1870720    -0.8085900
  O        2.8473350     2.5031130     0.3715350
  O        4.1956880     0.4353970    -0.9728740
  O       -2.8268630     0.0333510    -0.8075310
  O       -3.2591210    -0.7232820     1.6216710
  O       -2.1189930    -2.3436440    -0.0996680
  C        0.1181620     0.0300090     0.0163190
  C        0.9482230    -1.2453616    -0.1018510
  C        0.8985890     1.2026440     0.5648510
  C        2.2596600    -1.0143070    -0.8180370
  C        2.1770750     1.3964720    -0.2280410
  C        3.0258420     0.1487050    -0.2103220
  C       -3.1242130     1.4315980    -0.4888860
  C       -3.5363170     2.0851650    -1.7841190
  H       -0.2744498     0.2834279    -0.9777552
  H        0.3702690    -2.0293640    -0.5720320
  H        1.1571200     0.9978770     1.6121560
  H        2.0609340    -0.7886600    -1.8727560
  H        1.9169870     1.6362870    -1.2735830
  H        3.2958550    -0.0945320     0.8276460
  H        0.5217750    -1.8880320     1.7115100
  H        0.6655400     3.1093110     0.6831840
  H        2.9735430    -2.5473740     0.0946540
  H        3.7214290     2.5491860    -0.0588690
  H        4.6397270    -0.4238340    -1.0970870
  H       -3.8083950    -1.5223380     1.7347280
  H       -3.9305460     1.4455410     0.2493860
  H       -2.2297620     1.8928800    -0.0590960
  H       -3.8005210     3.1308820    -1.6026710
  H       -2.7171960     2.0533230    -2.5048750
  H       -4.4009440     1.5743230    -2.2127240
units angstrom
no_reorient  #important for SAPT in psi4, default
symmetry c1  #important for SAPT in psi4, default
}

set PROPERTIES_ORIGIN ["COM"]
properties('MP2/aug-cc-pvtz', properties = ['dipole'])
--------------------------------------------------------------------------

    Molecular point group: c1
  Charge       = 0
  Multiplicity = 1
  Basis Set: AUG-CC-PVTZ
    Blend: AUG-CC-PVTZ
  Basis Set: (AUG-CC-PVTZ AUX)
    Blend: AUG-CC-PVTZ-JKFIT

    Orbital Energies [Eh]
    ---------------------

    Doubly Occupied:

       1A    -80.117263     2A    -20.614929     3A    -20.607769
       4A    -20.599087     5A    -20.579982     6A    -20.576974
       7A    -20.574864     8A    -20.574511     9A    -20.573678
      10A    -20.523833    11A    -11.321776    12A    -11.303555
      13A    -11.299847    14A    -11.299460    15A    -11.299216
      16A    -11.296948    17A    -11.292027    18A    -11.229930
      19A     -7.632714    20A     -5.531220    21A     -5.530846
      22A     -5.529646    23A     -1.460442    24A     -1.408880
      25A     -1.394646    26A     -1.391281    27A     -1.387001
      28A     -1.370970    29A     -1.361843    30A     -1.353020
      31A     -1.304208    32A     -1.120002    33A     -1.040539
      34A     -1.012657    35A     -1.005459    36A     -0.880911
      37A     -0.865156    38A     -0.860162    39A     -0.822773
      40A     -0.809410    41A     -0.750661    42A     -0.744655
      43A     -0.732241    44A     -0.728696    45A     -0.707847
      46A     -0.687341    47A     -0.675813    48A     -0.673498
      49A     -0.662405    50A     -0.660936    51A     -0.643290
      52A     -0.635191    53A     -0.627011    54A     -0.614534
      55A     -0.603891    56A     -0.598277    57A     -0.582312
      58A     -0.575728    59A     -0.570255    60A     -0.559328
      61A     -0.556568    62A     -0.547316    63A     -0.540977
      64A     -0.536729    65A     -0.528628    66A     -0.521335
      67A     -0.513333    68A     -0.504647    69A     -0.497550
      70A     -0.484905    71A     -0.480103    72A     -0.476887
      73A     -0.463160    74A     -0.456120    75A     -0.451308
      76A     -0.438661

  @DF-RHF Final Energy: -1327.86024187487442

   => Energetics <=

    Nuclear Repulsion Energy =           1772.1961258033309150
    One-Electron Energy =               -5356.5295942695702252
    Two-Electron Energy =                2256.4732265913653464
    Total Energy =                      -1327.8602418748741911
  Basis Set: (AUG-CC-PVTZ AUX)
    Blend: AUG-CC-PVTZ-RI
    Molecular point group: c1

    Geometry (in Angstrom), charge = 0, multiplicity = 1:

       Center              X                  Y                   Z               Mass
    ------------   -----------------  -----------------  -----------------  -----------------
         P           -2.289915039616    -0.939941015753     0.345792643573    30.973761998420
         O           -0.981972039616    -0.201460015753     0.939403643573    15.994914619570
         O            1.342430960384    -1.675381015753     1.231965643573    15.994914619570
         O            0.078885960384     2.359705984247     0.463282643573    15.994914619570
         O            3.068695960384    -2.186970015753    -0.807475356427    15.994914619570
         O            2.847515960384     2.503214984247     0.372649643573    15.994914619570
         O            4.195868960384     0.435498984247    -0.971759356427    15.994914619570
         O           -2.826682039616     0.033452984247    -0.806416356427    15.994914619570
         O           -3.258940039616    -0.723180015753     1.622785643573    15.994914619570
         O           -2.118812039616    -2.343542015753    -0.098553356427    15.994914619570
         C            0.118342960384     0.030110984247     0.017433643573    12.000000000000
         C            0.948403960384    -1.245259615753    -0.100736356427    12.000000000000
         C            0.898769960384     1.202745984247     0.565965643573    12.000000000000
         C            2.259840960384    -1.014205015753    -0.816922356427    12.000000000000
         C            2.177255960384     1.396573984247    -0.226926356427    12.000000000000
         C            3.026022960384     0.148806984247    -0.209207356427    12.000000000000
         C           -3.124032039616     1.431699984247    -0.487771356427    12.000000000000
         C           -3.536136039616     2.085266984247    -1.783004356427    12.000000000000
         H           -0.274268839616     0.283529884247    -0.976640556427     1.007825032230
         H            0.370449960384    -2.029262015753    -0.570917356427     1.007825032230
         H            1.157300960384     0.997978984247     1.613270643573     1.007825032230
         H            2.061114960384    -0.788558015753    -1.871641356427     1.007825032230
         H            1.917167960384     1.636388984247    -1.272468356427     1.007825032230
         H            3.296035960384    -0.094430015753     0.828760643573     1.007825032230
         H            0.521955960384    -1.887930015753     1.712624643573     1.007825032230
         H            0.665720960384     3.109412984247     0.684298643573     1.007825032230
         H            2.973723960384    -2.547272015753     0.095768643573     1.007825032230
         H            3.721609960384     2.549287984247    -0.057754356427     1.007825032230
         H            4.639907960384    -0.423732015753    -1.095972356427     1.007825032230
         H           -3.808214039616    -1.522236015753     1.735842643573     1.007825032230
         H           -3.930365039616     1.445642984247     0.250500643573     1.007825032230
         H           -2.229581039616     1.892981984247    -0.057981356427     1.007825032230
         H           -3.800340039616     3.130983984247    -1.601556356427     1.007825032230
         H           -2.717015039616     2.053424984247    -2.503760356427     1.007825032230
         H           -4.400763039616     1.574424984247    -2.211609356427     1.007825032230

  Basis Set: AUG-CC-PVTZ
    Blend: AUG-CC-PVTZ
  Basis Set: (AUG-CC-PVTZ AUX)
    Blend: AUG-CC-PVTZ-JKFIT
	 Reference Energy          =   -1327.8602418748744185 [Eh]
	 Singles Energy            =      -0.0000000000000000 [Eh]
	 Same-Spin Energy          =      -1.0146213082193232 [Eh]
	 Opposite-Spin Energy      =      -3.0764659177628029 [Eh]
	 Correlation Energy        =      -4.0910872259821263 [Eh]
	 Total Energy              =   -1331.9513291008565830 [Eh]

	 ================> DF-SCS-MP2 Energies <==================
	-----------------------------------------------------------
	 SCS Same-Spin Scale       =       0.3333333333333333 [-]
	 SCS Opposite-Spin Scale   =       1.2000000000000000 [-]
	 SCS Same-Spin Energy      =      -0.3382071027397744 [Eh]
	 SCS Opposite-Spin Energy  =      -3.6917591013153634 [Eh]
	 SCS Correlation Energy    =      -4.0299662040551381 [Eh]
	 SCS Total Energy          =   -1331.8902080789296178 [Eh]
	-----------------------------------------------------------

  Dipole Moment: [D]
     X:    -1.1288      Y:     1.8837      Z:     0.6569     Total:     2.2922

*** Psi4 exiting successfully. Buy a developer a beer!
