                               Psi4 1.3.2 release

  ==> Input File <==

--------------------------------------------------------------------------
#psi4
#
memory 32 gb

molecule  {
0 1
  P       -2.2900960    -0.9400430     0.3446780
  O       -0.9821530    -0.2015620     0.9382890
  O        1.3422500    -1.6754830     1.2308510
  O        0.0787050     2.3596040     0.4621680
  O        3.0685150    -2.1870720    -0.8085900
  O        2.8473350     2.5031130     0.3715350
  O        4.1956880     0.4353970    -0.9728740
  O       -2.8268630     0.0333510    -0.8075310
  O       -3.2591210    -0.7232820     1.6216710
  O       -2.1189930    -2.3436440    -0.0996680
  C        0.1181620     0.0300090     0.0163190
  C        0.9532920    -1.2442050    -0.0757250
  C        0.8985890     1.2026440     0.5648510
  C        2.2672966    -1.0527819    -0.7488269
  C        2.1770750     1.3964720    -0.2280410
  C        3.0258420     0.1487050    -0.2103220
  C       -3.1242130     1.4315980    -0.4888860
  C       -3.5363170     2.0851650    -1.7841190
  H       -0.2830920     0.2988010    -0.9702380
  H        0.3702690    -2.0293640    -0.5720320
  H        1.1571200     0.9978770     1.6121560
  H        2.0609340    -0.7886600    -1.8727560
  H        1.9169870     1.6362870    -1.2735830
  H        3.2696921    -0.1453802     0.8209393
  H        0.5217750    -1.8880320     1.7115100
  H        0.6655400     3.1093110     0.6831840
  H        2.9735430    -2.5473740     0.0946540
  H        3.7214290     2.5491860    -0.0588690
  H        4.6397270    -0.4238340    -1.0970870
  H       -3.8083950    -1.5223380     1.7347280
  H       -3.9305460     1.4455410     0.2493860
  H       -2.2297620     1.8928800    -0.0590960
  H       -3.8005210     3.1308820    -1.6026710
  H       -2.7171960     2.0533230    -2.5048750
  H       -4.4009440     1.5743230    -2.2127240
units angstrom
no_reorient  #important for SAPT in psi4, default
symmetry c1  #important for SAPT in psi4, default
}

set PROPERTIES_ORIGIN ["COM"]
properties('MP2/aug-cc-pvtz', properties = ['dipole'])
--------------------------------------------------------------------------

    Molecular point group: c1
  Charge       = 0
  Multiplicity = 1
  Basis Set: AUG-CC-PVTZ
    Blend: AUG-CC-PVTZ
  Basis Set: (AUG-CC-PVTZ AUX)
    Blend: AUG-CC-PVTZ-JKFIT

    Orbital Energies [Eh]
    ---------------------

    Doubly Occupied:

       1A    -80.117360     2A    -20.615054     3A    -20.608056
       4A    -20.599106     5A    -20.582909     6A    -20.581169
       7A    -20.576460     8A    -20.575833     9A    -20.573368
      10A    -20.523832    11A    -11.321865    12A    -11.302590
      13A    -11.300820    14A    -11.299435    15A    -11.298625
      16A    -11.297028    17A    -11.290917    18A    -11.229786
      19A     -7.632814    20A     -5.531320    21A     -5.530947
      22A     -5.529744    23A     -1.460825    24A     -1.416778
      25A     -1.398670    26A     -1.394686    27A     -1.387225
      28A     -1.373557    29A     -1.369783    30A     -1.356059
      31A     -1.304223    32A     -1.119458    33A     -1.040461
      34A     -1.011789    35A     -1.005489    36A     -0.882344
      37A     -0.865602    38A     -0.857141    39A     -0.822172
      40A     -0.808228    41A     -0.755389    42A     -0.747744
      43A     -0.732402    44A     -0.729310    45A     -0.708339
      46A     -0.688106    47A     -0.680399    48A     -0.674710
      49A     -0.662176    50A     -0.660140    51A     -0.644029
      52A     -0.634350    53A     -0.630556    54A     -0.616704
      55A     -0.603748    56A     -0.600224    57A     -0.582094
      58A     -0.575395    59A     -0.572711    60A     -0.559696
      61A     -0.556324    62A     -0.549145    63A     -0.542811
      64A     -0.537449    65A     -0.527777    66A     -0.518899
      67A     -0.511986    68A     -0.502542    69A     -0.496368
      70A     -0.485600    71A     -0.480143    72A     -0.476903
      73A     -0.463145    74A     -0.457764    75A     -0.450548
      76A     -0.430874

  @DF-RHF Final Energy: -1327.85201437583942

   => Energetics <=

    Nuclear Repulsion Energy =           1773.2755362268487715
    One-Electron Energy =               -5358.5750451837375294
    Two-Electron Energy =                2257.4474945810488862
    Total Energy =                      -1327.8520143758396443
  Basis Set: (AUG-CC-PVTZ AUX)
    Blend: AUG-CC-PVTZ-RI
    Molecular point group: c1

    Geometry (in Angstrom), charge = 0, multiplicity = 1:

       Center              X                  Y                   Z               Mass
    ------------   -----------------  -----------------  -----------------  -----------------
         P           -2.290322556569    -0.938262300961     0.341818311864    30.973761998420
         O           -0.982379556569    -0.199781300961     0.935429311864    15.994914619570
         O            1.342023443431    -1.673702300961     1.227991311864    15.994914619570
         O            0.078478443431     2.361384699039     0.459308311864    15.994914619570
         O            3.068288443431    -2.185291300961    -0.811449688136    15.994914619570
         O            2.847108443431     2.504893699039     0.368675311864    15.994914619570
         O            4.195461443431     0.437177699039    -0.975733688136    15.994914619570
         O           -2.827089556569     0.035131699039    -0.810390688136    15.994914619570
         O           -3.259347556569    -0.721501300961     1.618811311864    15.994914619570
         O           -2.119219556569    -2.341863300961    -0.102527688136    15.994914619570
         C            0.117935443431     0.031789699039     0.013459311864    12.000000000000
         C            0.953065443431    -1.242424300961    -0.078584688136    12.000000000000
         C            0.898362443431     1.204424699039     0.561991311864    12.000000000000
         C            2.267070043431    -1.051001200961    -0.751686588136    12.000000000000
         C            2.176848443431     1.398252699039    -0.230900688136    12.000000000000
         C            3.025615443431     0.150485699039    -0.213181688136    12.000000000000
         C           -3.124439556569     1.433378699039    -0.491745688136    12.000000000000
         C           -3.536543556569     2.086945699039    -1.786978688136    12.000000000000
         H           -0.283318556569     0.300581699039    -0.973097688136     1.007825032230
         H            0.370042443431    -2.027583300961    -0.574891688136     1.007825032230
         H            1.156893443431     0.999657699039     1.609296311864     1.007825032230
         H            2.060707443431    -0.786879300961    -1.875615688136     1.007825032230
         H            1.916760443431     1.638067699039    -1.276442688136     1.007825032230
         H            3.269465543431    -0.143599500961     0.818079611864     1.007825032230
         H            0.521548443431    -1.886251300961     1.708650311864     1.007825032230
         H            0.665313443431     3.111091699039     0.680324311864     1.007825032230
         H            2.973316443431    -2.545593300961     0.091794311864     1.007825032230
         H            3.721202443431     2.550966699039    -0.061728688136     1.007825032230
         H            4.639500443431    -0.422053300961    -1.099946688136     1.007825032230
         H           -3.808621556569    -1.520557300961     1.731868311864     1.007825032230
         H           -3.930772556569     1.447321699039     0.246526311864     1.007825032230
         H           -2.229988556569     1.894660699039    -0.061955688136     1.007825032230
         H           -3.800747556569     3.132662699039    -1.605530688136     1.007825032230
         H           -2.717422556569     2.055103699039    -2.507734688136     1.007825032230
         H           -4.401170556569     1.576103699039    -2.215583688136     1.007825032230

  Basis Set: AUG-CC-PVTZ
    Blend: AUG-CC-PVTZ
  Basis Set: (AUG-CC-PVTZ AUX)
    Blend: AUG-CC-PVTZ-JKFIT
	 Reference Energy          =   -1327.8520143758394170 [Eh]
	 Singles Energy            =      -0.0000000000000000 [Eh]
	 Same-Spin Energy          =      -1.0153686681685272 [Eh]
	 Opposite-Spin Energy      =      -3.0769843529385859 [Eh]
	 Correlation Energy        =      -4.0923530211071135 [Eh]
	 Total Energy              =   -1331.9443673969465181 [Eh]

	 ================> DF-SCS-MP2 Energies <==================
	-----------------------------------------------------------
	 SCS Same-Spin Scale       =       0.3333333333333333 [-]
	 SCS Opposite-Spin Scale   =       1.2000000000000000 [-]
	 SCS Same-Spin Energy      =      -0.3384562227228424 [Eh]
	 SCS Opposite-Spin Energy  =      -3.6923812235263029 [Eh]
	 SCS Correlation Energy    =      -4.0308374462491452 [Eh]
	 SCS Total Energy          =   -1331.8828518220884689 [Eh]
	-----------------------------------------------------------

  Dipole Moment: [D]
     X:    -1.0854      Y:     1.7347      Z:     0.7964     Total:     2.1958

*** Psi4 exiting successfully. Buy a developer a beer!
