                               Psi4 1.3.2 release

  ==> Input File <==

--------------------------------------------------------------------------
#psi4
#
memory 32 gb

molecule  {
0 1
  P       -2.2900960    -0.9400430     0.3446780
  O       -0.9821530    -0.2015620     0.9382890
  O        1.3422500    -1.6754830     1.2308510
  O        0.0787050     2.3596040     0.4621680
  O        3.0685150    -2.1870720    -0.8085900
  O        2.8473350     2.5031130     0.3715350
  O        4.1956880     0.4353970    -0.9728740
  O       -2.8268630     0.0333510    -0.8075310
  O       -3.2591210    -0.7232820     1.6216710
  O       -2.1189930    -2.3436440    -0.0996680
  C        0.1181620     0.0300090     0.0163190
  C        0.9532920    -1.2442050    -0.0757250
  C        0.8409209     1.2840210     0.5576286
  C        2.2596600    -1.0143070    -0.8180370
  C        2.1770750     1.3964720    -0.2280410
  C        3.0258420     0.1487050    -0.2103220
  C       -3.1242130     1.4315980    -0.4888860
  C       -3.5363170     2.0851650    -1.7841190
  H       -0.2830920     0.2988010    -0.9702380
  H        0.3702690    -2.0293640    -0.5720320
  H        1.1571200     0.9978770     1.6121560
  H        2.0609340    -0.7886600    -1.8727560
  H        1.9169870     1.6362870    -1.2735830
  H        3.2958550    -0.0945320     0.8276460
  H        0.5217750    -1.8880320     1.7115100
  H        0.6655400     3.1093110     0.6831840
  H        2.9735430    -2.5473740     0.0946540
  H        3.7214290     2.5491860    -0.0588690
  H        4.6397270    -0.4238340    -1.0970870
  H       -3.8083950    -1.5223380     1.7347280
  H       -3.9305460     1.4455410     0.2493860
  H       -2.2297620     1.8928800    -0.0590960
  H       -3.8005210     3.1308820    -1.6026710
  H       -2.7171960     2.0533230    -2.5048750
  H       -4.4009440     1.5743230    -2.2127240
units angstrom
no_reorient  #important for SAPT in psi4, default
symmetry c1  #important for SAPT in psi4, default
}

set PROPERTIES_ORIGIN ["COM"]
properties('MP2/aug-cc-pvtz', properties = ['dipole'])
--------------------------------------------------------------------------

    Molecular point group: c1
  Charge       = 0
  Multiplicity = 1
  Basis Set: AUG-CC-PVTZ
    Blend: AUG-CC-PVTZ
  Basis Set: (AUG-CC-PVTZ AUX)
    Blend: AUG-CC-PVTZ-JKFIT

    Orbital Energies [Eh]
    ---------------------

    Doubly Occupied:

       1A    -80.115941     2A    -20.614188     3A    -20.604945
       4A    -20.598925     5A    -20.584739     6A    -20.581143
       7A    -20.574906     8A    -20.573231     9A    -20.573123
      10A    -20.522660    11A    -11.318269    12A    -11.303039
      13A    -11.301269    14A    -11.300777    15A    -11.297688
      16A    -11.293886    17A    -11.290430    18A    -11.230871
      19A     -7.631428    20A     -5.529932    21A     -5.529547
      22A     -5.528361    23A     -1.459865    24A     -1.429638
      25A     -1.404407    26A     -1.393087    27A     -1.386922
      28A     -1.379168    29A     -1.366454    30A     -1.354029
      31A     -1.303104    32A     -1.109641    33A     -1.041387
      34A     -1.007571    35A     -0.996842    36A     -0.878622
      37A     -0.864854    38A     -0.860226    39A     -0.821751
      40A     -0.807018    41A     -0.761390    42A     -0.744208
      43A     -0.733110    44A     -0.728236    45A     -0.705904
      46A     -0.694463    47A     -0.676636    48A     -0.674244
      49A     -0.665672    50A     -0.660242    51A     -0.646025
      52A     -0.638123    53A     -0.627801    54A     -0.618702
      55A     -0.608632    56A     -0.601790    57A     -0.585136
      58A     -0.575773    59A     -0.570578    60A     -0.561824
      61A     -0.558153    62A     -0.548827    63A     -0.541597
      64A     -0.537887    65A     -0.529911    66A     -0.516006
      67A     -0.512982    68A     -0.502328    69A     -0.494225
      70A     -0.480088    71A     -0.478099    72A     -0.476158
      73A     -0.455143    74A     -0.453828    75A     -0.438314
      76A     -0.434242

  @DF-RHF Final Energy: -1327.85231641976452

   => Energetics <=

    Nuclear Repulsion Energy =           1772.0928917077617371
    One-Electron Energy =               -5356.2900951303399779
    Two-Electron Energy =                2256.3448870028137208
    Total Energy =                      -1327.8523164197645201
  Basis Set: (AUG-CC-PVTZ AUX)
    Blend: AUG-CC-PVTZ-RI
    Molecular point group: c1

    Geometry (in Angstrom), charge = 0, multiplicity = 1:

       Center              X                  Y                   Z               Mass
    ------------   -----------------  -----------------  -----------------  -----------------
         P           -2.287693638652    -0.943432972415     0.344978860357    30.973761998420
         O           -0.979750638652    -0.204951972415     0.938589860357    15.994914619570
         O            1.344652361348    -1.678872972415     1.231151860357    15.994914619570
         O            0.081107361348     2.356214027585     0.462468860357    15.994914619570
         O            3.070917361348    -2.190461972415    -0.808289139643    15.994914619570
         O            2.849737361348     2.499723027585     0.371835860357    15.994914619570
         O            4.198090361348     0.432007027585    -0.972573139643    15.994914619570
         O           -2.824460638652     0.029961027585    -0.807230139643    15.994914619570
         O           -3.256718638652    -0.726671972415     1.621971860357    15.994914619570
         O           -2.116590638652    -2.347033972415    -0.099367139643    15.994914619570
         C            0.120564361348     0.026619027585     0.016619860357    12.000000000000
         C            0.955694361348    -1.247594972415    -0.075424139643    12.000000000000
         C            0.843323261348     1.280631027585     0.557929460357    12.000000000000
         C            2.262062361348    -1.017696972415    -0.817736139643    12.000000000000
         C            2.179477361348     1.393082027585    -0.227740139643    12.000000000000
         C            3.028244361348     0.145315027585    -0.210021139643    12.000000000000
         C           -3.121810638652     1.428208027585    -0.488585139643    12.000000000000
         C           -3.533914638652     2.081775027585    -1.783818139643    12.000000000000
         H           -0.280689638652     0.295411027585    -0.969937139643     1.007825032230
         H            0.372671361348    -2.032753972415    -0.571731139643     1.007825032230
         H            1.159522361348     0.994487027585     1.612456860357     1.007825032230
         H            2.063336361348    -0.792049972415    -1.872455139643     1.007825032230
         H            1.919389361348     1.632897027585    -1.273282139643     1.007825032230
         H            3.298257361348    -0.097921972415     0.827946860357     1.007825032230
         H            0.524177361348    -1.891421972415     1.711810860357     1.007825032230
         H            0.667942361348     3.105921027585     0.683484860357     1.007825032230
         H            2.975945361348    -2.550763972415     0.094954860357     1.007825032230
         H            3.723831361348     2.545796027585    -0.058568139643     1.007825032230
         H            4.642129361348    -0.427223972415    -1.096786139643     1.007825032230
         H           -3.805992638652    -1.525727972415     1.735028860357     1.007825032230
         H           -3.928143638652     1.442151027585     0.249686860357     1.007825032230
         H           -2.227359638652     1.889490027585    -0.058795139643     1.007825032230
         H           -3.798118638652     3.127492027585    -1.602370139643     1.007825032230
         H           -2.714793638652     2.049933027585    -2.504574139643     1.007825032230
         H           -4.398541638652     1.570933027585    -2.212423139643     1.007825032230

  Basis Set: AUG-CC-PVTZ
    Blend: AUG-CC-PVTZ
  Basis Set: (AUG-CC-PVTZ AUX)
    Blend: AUG-CC-PVTZ-JKFIT
	 Reference Energy          =   -1327.8523164197645201 [Eh]
	 Singles Energy            =      -0.0000000000000000 [Eh]
	 Same-Spin Energy          =      -1.0145658246663254 [Eh]
	 Opposite-Spin Energy      =      -3.0750176683339339 [Eh]
	 Correlation Energy        =      -4.0895834930002595 [Eh]
	 Total Energy              =   -1331.9418999127647112 [Eh]

	 ================> DF-SCS-MP2 Energies <==================
	-----------------------------------------------------------
	 SCS Same-Spin Scale       =       0.3333333333333333 [-]
	 SCS Opposite-Spin Scale   =       1.2000000000000000 [-]
	 SCS Same-Spin Energy      =      -0.3381886082221084 [Eh]
	 SCS Opposite-Spin Energy  =      -3.6900212020007204 [Eh]
	 SCS Correlation Energy    =      -4.0282098102228288 [Eh]
	 SCS Total Energy          =   -1331.8805262299872538 [Eh]
	-----------------------------------------------------------

  Dipole Moment: [D]
     X:    -1.3079      Y:     2.1768      Z:     0.7093     Total:     2.6367

*** Psi4 exiting successfully. Buy a developer a beer!
