                               Psi4 1.3.2 release

  ==> Input File <==

--------------------------------------------------------------------------
#psi4
#
memory 32 gb

molecule  {
0 1
  P       -2.2895052    -0.9505265     0.3354615
  O       -0.9821530    -0.2015620     0.9382890
  O        1.3422500    -1.6754830     1.2308510
  O        0.0787050     2.3596040     0.4621680
  O        3.0685150    -2.1870720    -0.8085900
  O        2.8473350     2.5031130     0.3715350
  O        4.1956880     0.4353970    -0.9728740
  O       -2.8268630     0.0333510    -0.8075310
  O       -3.2591210    -0.7232820     1.6216710
  O       -2.1189930    -2.3436440    -0.0996680
  C        0.1181620     0.0300090     0.0163190
  C        0.9532920    -1.2442050    -0.0757250
  C        0.8985890     1.2026440     0.5648510
  C        2.2596600    -1.0143070    -0.8180370
  C        2.1770750     1.3964720    -0.2280410
  C        3.0258420     0.1487050    -0.2103220
  C       -3.1276573     1.4335756    -0.5010342
  C       -3.5363170     2.0851650    -1.7841190
  H       -0.2830920     0.2988010    -0.9702380
  H        0.3702690    -2.0293640    -0.5720320
  H        1.1571200     0.9978770     1.6121560
  H        2.0609340    -0.7886600    -1.8727560
  H        1.9169870     1.6362870    -1.2735830
  H        3.2958550    -0.0945320     0.8276460
  H        0.5217750    -1.8880320     1.7115100
  H        0.6655400     3.1093110     0.6831840
  H        2.9735430    -2.5473740     0.0946540
  H        3.7214290     2.5491860    -0.0588690
  H        4.6397270    -0.4238340    -1.0970870
  H       -3.8083950    -1.5223380     1.7347280
  H       -3.9305460     1.4455410     0.2493860
  H       -2.2297620     1.8928800    -0.0590960
  H       -3.8005210     3.1308820    -1.6026710
  H       -2.7171960     2.0533230    -2.5048750
  H       -4.4009440     1.5743230    -2.2127240
units angstrom
no_reorient  #important for SAPT in psi4, default
symmetry c1  #important for SAPT in psi4, default
}

set PROPERTIES_ORIGIN ["COM"]
properties('MP2/aug-cc-pvtz', properties = ['dipole'])
--------------------------------------------------------------------------

    Molecular point group: c1
  Charge       = 0
  Multiplicity = 1
  Basis Set: AUG-CC-PVTZ
    Blend: AUG-CC-PVTZ
  Basis Set: (AUG-CC-PVTZ AUX)
    Blend: AUG-CC-PVTZ-JKFIT

    Orbital Energies [Eh]
    ---------------------

    Doubly Occupied:

       1A    -80.116739     2A    -20.612879     3A    -20.605711
       4A    -20.598373     5A    -20.583054     6A    -20.576533
       7A    -20.574566     8A    -20.573984     9A    -20.572963
      10A    -20.526349    11A    -11.319829    12A    -11.303493
      13A    -11.299783    14A    -11.299266    15A    -11.298122
      16A    -11.296369    17A    -11.291290    18A    -11.229470
      19A     -7.632359    20A     -5.530810    21A     -5.530450
      22A     -5.529388    23A     -1.457994    24A     -1.410109
      25A     -1.393836    26A     -1.391900    27A     -1.384975
      28A     -1.371832    29A     -1.363727    30A     -1.353586
      31A     -1.311660    32A     -1.118548    33A     -1.043062
      34A     -1.011225    35A     -1.003217    36A     -0.879375
      37A     -0.864028    38A     -0.858712    39A     -0.820235
      40A     -0.810243    41A     -0.751204    42A     -0.744215
      43A     -0.730416    44A     -0.727421    45A     -0.706706
      46A     -0.686600    47A     -0.677919    48A     -0.672968
      49A     -0.661857    50A     -0.659976    51A     -0.642312
      52A     -0.634434    53A     -0.627014    54A     -0.615299
      55A     -0.602695    56A     -0.598395    57A     -0.583127
      58A     -0.575476    59A     -0.570923    60A     -0.559975
      61A     -0.556882    62A     -0.548539    63A     -0.541124
      64A     -0.536601    65A     -0.528934    66A     -0.522248
      67A     -0.513575    68A     -0.504177    69A     -0.497770
      70A     -0.485643    71A     -0.482079    72A     -0.477355
      73A     -0.462831    74A     -0.455635    75A     -0.450043
      76A     -0.436418

  @DF-RHF Final Energy: -1327.86079445845735

   => Energetics <=

    Nuclear Repulsion Energy =           1772.2086658259256637
    One-Electron Energy =               -5356.5812584944269474
    Two-Electron Energy =                2256.5117982100437075
    Total Energy =                      -1327.8607944584573488
  Basis Set: (AUG-CC-PVTZ AUX)
    Blend: AUG-CC-PVTZ-RI
    Molecular point group: c1

    Geometry (in Angstrom), charge = 0, multiplicity = 1:

       Center              X                  Y                   Z               Mass
    ------------   -----------------  -----------------  -----------------  -----------------
         P           -2.289425210838    -0.949481626500     0.336958562740    30.973761998420
         O           -0.982073010838    -0.200517126500     0.939786062740    15.994914619570
         O            1.342329989162    -1.674438126500     1.232348062740    15.994914619570
         O            0.078784989162     2.360648873500     0.463665062740    15.994914619570
         O            3.068594989162    -2.186027126500    -0.807092937260    15.994914619570
         O            2.847414989162     2.504157873500     0.373032062740    15.994914619570
         O            4.195767989162     0.436441873500    -0.971376937260    15.994914619570
         O           -2.826783010838     0.034395873500    -0.806033937260    15.994914619570
         O           -3.259041010838    -0.722237126500     1.623168062740    15.994914619570
         O           -2.118913010838    -2.342599126500    -0.098170937260    15.994914619570
         C            0.118241989162     0.031053873500     0.017816062740    12.000000000000
         C            0.953371989162    -1.243160126500    -0.074227937260    12.000000000000
         C            0.898668989162     1.203688873500     0.566348062740    12.000000000000
         C            2.259739989162    -1.013262126500    -0.816539937260    12.000000000000
         C            2.177154989162     1.397516873500    -0.226543937260    12.000000000000
         C            3.025921989162     0.149749873500    -0.208824937260    12.000000000000
         C           -3.127577310838     1.434620473500    -0.499537137260    12.000000000000
         C           -3.536237010838     2.086209873500    -1.782621937260    12.000000000000
         H           -0.283012010838     0.299845873500    -0.968740937260     1.007825032230
         H            0.370348989162    -2.028319126500    -0.570534937260     1.007825032230
         H            1.157199989162     0.998921873500     1.613653062740     1.007825032230
         H            2.061013989162    -0.787615126500    -1.871258937260     1.007825032230
         H            1.917066989162     1.637331873500    -1.272085937260     1.007825032230
         H            3.295934989162    -0.093487126500     0.829143062740     1.007825032230
         H            0.521854989162    -1.886987126500     1.713007062740     1.007825032230
         H            0.665619989162     3.110355873500     0.684681062740     1.007825032230
         H            2.973622989162    -2.546329126500     0.096151062740     1.007825032230
         H            3.721508989162     2.550230873500    -0.057371937260     1.007825032230
         H            4.639806989162    -0.422789126500    -1.095589937260     1.007825032230
         H           -3.808315010838    -1.521293126500     1.736225062740     1.007825032230
         H           -3.930466010838     1.446585873500     0.250883062740     1.007825032230
         H           -2.229682010838     1.893924873500    -0.057598937260     1.007825032230
         H           -3.800441010838     3.131926873500    -1.601173937260     1.007825032230
         H           -2.717116010838     2.054367873500    -2.503377937260     1.007825032230
         H           -4.400864010838     1.575367873500    -2.211226937260     1.007825032230

  Basis Set: AUG-CC-PVTZ
    Blend: AUG-CC-PVTZ
  Basis Set: (AUG-CC-PVTZ AUX)
    Blend: AUG-CC-PVTZ-JKFIT
	 Reference Energy          =   -1327.8607944584573488 [Eh]
	 Singles Energy            =      -0.0000000000000000 [Eh]
	 Same-Spin Energy          =      -1.0146118752795523 [Eh]
	 Opposite-Spin Energy      =      -3.0761085000141266 [Eh]
	 Correlation Energy        =      -4.0907203752936789 [Eh]
	 Total Energy              =   -1331.9515148337509345 [Eh]

	 ================> DF-SCS-MP2 Energies <==================
	-----------------------------------------------------------
	 SCS Same-Spin Scale       =       0.3333333333333333 [-]
	 SCS Opposite-Spin Scale   =       1.2000000000000000 [-]
	 SCS Same-Spin Energy      =      -0.3382039584265174 [Eh]
	 SCS Opposite-Spin Energy  =      -3.6913302000169517 [Eh]
	 SCS Correlation Energy    =      -4.0295341584434690 [Eh]
	 SCS Total Energy          =   -1331.8903286169008879 [Eh]
	-----------------------------------------------------------

  Dipole Moment: [D]
     X:    -1.1321      Y:     1.7782      Z:     0.6293     Total:     2.1999

*** Psi4 exiting successfully. Buy a developer a beer!
