                               Psi4 1.3.2 release

  ==> Input File <==

--------------------------------------------------------------------------
#psi4
#
memory 32 gb

molecule  {
0 1
  P       -2.2900960    -0.9400430     0.3446780
  O       -0.9821530    -0.2015620     0.9382890
  O        1.3422500    -1.6754830     1.2308510
  O        0.0783391     2.3581847     0.4498480
  O        3.0685150    -2.1870720    -0.8085900
  O        2.8473350     2.5031130     0.3715350
  O        4.1956880     0.4353970    -0.9728740
  O       -2.8268630     0.0333510    -0.8075310
  O       -3.2591210    -0.7232820     1.6216710
  O       -2.1189930    -2.3436440    -0.0996680
  C        0.1181620     0.0300090     0.0163190
  C        0.9532920    -1.2442050    -0.0757250
  C        0.8985890     1.2026440     0.5648510
  C        2.2596600    -1.0143070    -0.8180370
  C        2.1770750     1.3964720    -0.2280410
  C        3.0258420     0.1487050    -0.2103220
  C       -3.1242130     1.4315980    -0.4888860
  C       -3.5363170     2.0851650    -1.7841190
  H       -0.2830920     0.2988010    -0.9702380
  H        0.3702690    -2.0293640    -0.5720320
  H        1.1621636     0.9902210     1.6093703
  H        2.0609340    -0.7886600    -1.8727560
  H        1.9169870     1.6362870    -1.2735830
  H        3.2958550    -0.0945320     0.8276460
  H        0.5217750    -1.8880320     1.7115100
  H        0.6655400     3.1093110     0.6831840
  H        2.9735430    -2.5473740     0.0946540
  H        3.7214290     2.5491860    -0.0588690
  H        4.6397270    -0.4238340    -1.0970870
  H       -3.8083950    -1.5223380     1.7347280
  H       -3.9305460     1.4455410     0.2493860
  H       -2.2297620     1.8928800    -0.0590960
  H       -3.8005210     3.1308820    -1.6026710
  H       -2.7171960     2.0533230    -2.5048750
  H       -4.4009440     1.5743230    -2.2127240
units angstrom
no_reorient  #important for SAPT in psi4, default
symmetry c1  #important for SAPT in psi4, default
}

set PROPERTIES_ORIGIN ["COM"]
properties('MP2/aug-cc-pvtz', properties = ['dipole'])
--------------------------------------------------------------------------

    Molecular point group: c1
  Charge       = 0
  Multiplicity = 1
  Basis Set: AUG-CC-PVTZ
    Blend: AUG-CC-PVTZ
  Basis Set: (AUG-CC-PVTZ AUX)
    Blend: AUG-CC-PVTZ-JKFIT

    Orbital Energies [Eh]
    ---------------------

    Doubly Occupied:

       1A    -80.116934     2A    -20.614737     3A    -20.607018
       4A    -20.598908     5A    -20.583156     6A    -20.576756
       7A    -20.574560     8A    -20.574380     9A    -20.574023
      10A    -20.523420    11A    -11.320560    12A    -11.303434
      13A    -11.299347    14A    -11.299279    15A    -11.298689
      16A    -11.296426    17A    -11.291318    18A    -11.229822
      19A     -7.632383    20A     -5.530889    21A     -5.530516
      22A     -5.529314    23A     -1.460276    24A     -1.410807
      25A     -1.394653    26A     -1.392932    27A     -1.386834
      28A     -1.372636    29A     -1.363814    30A     -1.353746
      31A     -1.303814    32A     -1.118957    33A     -1.040422
      34A     -1.011928    35A     -1.003352    36A     -0.880268
      37A     -0.864888    38A     -0.858830    39A     -0.822301
      40A     -0.810627    41A     -0.751763    42A     -0.745121
      43A     -0.731139    44A     -0.728603    45A     -0.707920
      46A     -0.687200    47A     -0.678121    48A     -0.673653
      49A     -0.662303    50A     -0.660843    51A     -0.643087
      52A     -0.634408    53A     -0.627269    54A     -0.615290
      55A     -0.603735    56A     -0.598433    57A     -0.581667
      58A     -0.575546    59A     -0.571151    60A     -0.559356
      61A     -0.556488    62A     -0.548489    63A     -0.541136
      64A     -0.536551    65A     -0.529858    66A     -0.521828
      67A     -0.513102    68A     -0.504429    69A     -0.497060
      70A     -0.484975    71A     -0.479792    72A     -0.476596
      73A     -0.462328    74A     -0.455670    75A     -0.450191
      76A     -0.436220

  @DF-RHF Final Energy: -1327.86097111073650

   => Energetics <=

    Nuclear Repulsion Energy =           1772.5502385864906501
    One-Electron Energy =               -5357.2458671569511353
    Two-Electron Energy =                2256.8346574597239851
    Total Energy =                      -1327.8609711107365001
  Basis Set: (AUG-CC-PVTZ AUX)
    Blend: AUG-CC-PVTZ-RI
    Molecular point group: c1

    Geometry (in Angstrom), charge = 0, multiplicity = 1:

       Center              X                  Y                   Z               Mass
    ------------   -----------------  -----------------  -----------------  -----------------
         P           -2.290093295951    -0.939937388411     0.345371818928    30.973761998420
         O           -0.982150295951    -0.201456388411     0.938982818928    15.994914619570
         O            1.342252704049    -1.675377388411     1.231544818928    15.994914619570
         O            0.078341804049     2.358290311589     0.450541818928    15.994914619570
         O            3.068517704049    -2.186966388411    -0.807896181072    15.994914619570
         O            2.847337704049     2.503218611589     0.372228818928    15.994914619570
         O            4.195690704049     0.435502611589    -0.972180181072    15.994914619570
         O           -2.826860295951     0.033456611589    -0.806837181072    15.994914619570
         O           -3.259118295951    -0.723176388411     1.622364818928    15.994914619570
         O           -2.118990295951    -2.343538388411    -0.098974181072    15.994914619570
         C            0.118164704049     0.030114611589     0.017012818928    12.000000000000
         C            0.953294704049    -1.244099388411    -0.075031181072    12.000000000000
         C            0.898591704049     1.202749611589     0.565544818928    12.000000000000
         C            2.259662704049    -1.014201388411    -0.817343181072    12.000000000000
         C            2.177077704049     1.396577611589    -0.227347181072    12.000000000000
         C            3.025844704049     0.148810611589    -0.209628181072    12.000000000000
         C           -3.124210295951     1.431703611589    -0.488192181072    12.000000000000
         C           -3.536314295951     2.085270611589    -1.783425181072    12.000000000000
         H           -0.283089295951     0.298906611589    -0.969544181072     1.007825032230
         H            0.370271704049    -2.029258388411    -0.571338181072     1.007825032230
         H            1.162166304049     0.990326611589     1.610064118928     1.007825032230
         H            2.060936704049    -0.788554388411    -1.872062181072     1.007825032230
         H            1.916989704049     1.636392611589    -1.272889181072     1.007825032230
         H            3.295857704049    -0.094426388411     0.828339818928     1.007825032230
         H            0.521777704049    -1.887926388411     1.712203818928     1.007825032230
         H            0.665542704049     3.109416611589     0.683877818928     1.007825032230
         H            2.973545704049    -2.547268388411     0.095347818928     1.007825032230
         H            3.721431704049     2.549291611589    -0.058175181072     1.007825032230
         H            4.639729704049    -0.423728388411    -1.096393181072     1.007825032230
         H           -3.808392295951    -1.522232388411     1.735421818928     1.007825032230
         H           -3.930543295951     1.445646611589     0.250079818928     1.007825032230
         H           -2.229759295951     1.892985611589    -0.058402181072     1.007825032230
         H           -3.800518295951     3.130987611589    -1.601977181072     1.007825032230
         H           -2.717193295951     2.053428611589    -2.504181181072     1.007825032230
         H           -4.400941295951     1.574428611589    -2.212030181072     1.007825032230

  Basis Set: AUG-CC-PVTZ
    Blend: AUG-CC-PVTZ
  Basis Set: (AUG-CC-PVTZ AUX)
    Blend: AUG-CC-PVTZ-JKFIT
	 Reference Energy          =   -1327.8609711107365001 [Eh]
	 Singles Energy            =      -0.0000000000000000 [Eh]
	 Same-Spin Energy          =      -1.0147055284945148 [Eh]
	 Opposite-Spin Energy      =      -3.0762990562315964 [Eh]
	 Correlation Energy        =      -4.0910045847261109 [Eh]
	 Total Energy              =   -1331.9519756954625791 [Eh]

	 ================> DF-SCS-MP2 Energies <==================
	-----------------------------------------------------------
	 SCS Same-Spin Scale       =       0.3333333333333333 [-]
	 SCS Opposite-Spin Scale   =       1.2000000000000000 [-]
	 SCS Same-Spin Energy      =      -0.3382351761648382 [Eh]
	 SCS Opposite-Spin Energy  =      -3.6915588674779154 [Eh]
	 SCS Correlation Energy    =      -4.0297940436427533 [Eh]
	 SCS Total Energy          =   -1331.8907651543793236 [Eh]
	-----------------------------------------------------------

  Dipole Moment: [D]
     X:    -1.1179      Y:     1.8700      Z:     0.7447     Total:     2.3024

*** Psi4 exiting successfully. Buy a developer a beer!
