                               Psi4 1.3.2 release

  ==> Input File <==

--------------------------------------------------------------------------
#psi4
#
memory 32 gb

molecule  {
0 1
  P       -2.2900960    -0.9400430     0.3446780
  O       -0.9821530    -0.2015620     0.9382890
  O        1.3422500    -1.6754830     1.2308510
  O        0.0787050     2.3596040     0.4621680
  O        3.0685150    -2.1870720    -0.8085900
  O        2.8473350     2.5031130     0.3715350
  O        4.2194338     0.3660419    -0.9588678
  O       -2.8268630     0.0333510    -0.8075310
  O       -3.2591210    -0.7232820     1.6216710
  O       -2.1189930    -2.3436440    -0.0996680
  C        0.1181620     0.0300090     0.0163190
  C        0.9532920    -1.2442050    -0.0757250
  C        0.8985890     1.2026440     0.5648510
  C        2.2596600    -1.0143070    -0.8180370
  C        2.1239414     1.3584584    -0.1836040
  C        3.0258420     0.1487050    -0.2103220
  C       -3.1242130     1.4315980    -0.4888860
  C       -3.5363170     2.0851650    -1.7841190
  H       -0.2830920     0.2988010    -0.9702380
  H        0.3702690    -2.0293640    -0.5720320
  H        1.1571200     0.9978770     1.6121560
  H        2.0609340    -0.7886600    -1.8727560
  H        1.9169870     1.6362870    -1.2735830
  H        3.2958550    -0.0945320     0.8276460
  H        0.5217750    -1.8880320     1.7115100
  H        0.6655400     3.1093110     0.6831840
  H        2.9735430    -2.5473740     0.0946540
  H        3.7214290     2.5491860    -0.0588690
  H        4.6397270    -0.4238340    -1.0970870
  H       -3.8083950    -1.5223380     1.7347280
  H       -3.9305460     1.4455410     0.2493860
  H       -2.2297620     1.8928800    -0.0590960
  H       -3.8005210     3.1308820    -1.6026710
  H       -2.7171960     2.0533230    -2.5048750
  H       -4.4009440     1.5743230    -2.2127240
units angstrom
no_reorient  #important for SAPT in psi4, default
symmetry c1  #important for SAPT in psi4, default
}

set PROPERTIES_ORIGIN ["COM"]
properties('MP2/aug-cc-pvtz', properties = ['dipole'])
--------------------------------------------------------------------------

    Molecular point group: c1
  Charge       = 0
  Multiplicity = 1
  Basis Set: AUG-CC-PVTZ
    Blend: AUG-CC-PVTZ
  Basis Set: (AUG-CC-PVTZ AUX)
    Blend: AUG-CC-PVTZ-JKFIT

    Orbital Energies [Eh]
    ---------------------

    Doubly Occupied:

       1A    -80.117889     2A    -20.615519     3A    -20.608470
       4A    -20.599815     5A    -20.583812     6A    -20.576736
       7A    -20.573213     8A    -20.572967     9A    -20.567057
      10A    -20.524224    11A    -11.323352    12A    -11.304236
      13A    -11.302607    14A    -11.300214    15A    -11.299547
      16A    -11.298896    17A    -11.295263    18A    -11.230455
      19A     -7.633338    20A     -5.531844    21A     -5.531474
      22A     -5.530266    23A     -1.461411    24A     -1.412473
      25A     -1.398239    26A     -1.392003    27A     -1.387935
      28A     -1.377877    29A     -1.361472    30A     -1.351584
      31A     -1.304627    32A     -1.129545    33A     -1.041244
      34A     -1.016447    35A     -1.012761    36A     -0.887692
      37A     -0.867159    38A     -0.858667    39A     -0.823776
      40A     -0.810776    41A     -0.752324    42A     -0.748198
      43A     -0.735150    44A     -0.729265    45A     -0.708081
      46A     -0.689206    47A     -0.682508    48A     -0.676256
      49A     -0.667206    50A     -0.662110    51A     -0.642480
      52A     -0.642050    53A     -0.627253    54A     -0.614838
      55A     -0.602857    56A     -0.598441    57A     -0.581611
      58A     -0.576265    59A     -0.571968    60A     -0.559235
      61A     -0.551478    62A     -0.550408    63A     -0.541599
      64A     -0.533606    65A     -0.531093    66A     -0.525181
      67A     -0.511706    68A     -0.504262    69A     -0.499586
      70A     -0.487132    71A     -0.480817    72A     -0.477366
      73A     -0.470130    74A     -0.455954    75A     -0.448726
      76A     -0.435585

  @DF-RHF Final Energy: -1327.85145519663888

   => Energetics <=

    Nuclear Repulsion Energy =           1773.7194568550517033
    One-Electron Energy =               -5359.3641925314886976
    Two-Electron Energy =                2257.7932804797978861
    Total Energy =                      -1327.8514551966391082
  Basis Set: (AUG-CC-PVTZ AUX)
    Blend: AUG-CC-PVTZ-RI
    Molecular point group: c1

    Geometry (in Angstrom), charge = 0, multiplicity = 1:

       Center              X                  Y                   Z               Mass
    ------------   -----------------  -----------------  -----------------  -----------------
         P           -2.289201048592    -0.934608397293     0.342049131178    30.973761998420
         O           -0.981258048592    -0.196127397293     0.935660131178    15.994914619570
         O            1.343144951408    -1.670048397293     1.228222131178    15.994914619570
         O            0.079599951408     2.365038602707     0.459539131178    15.994914619570
         O            3.069409951408    -2.181637397293    -0.811218868822    15.994914619570
         O            2.848229951408     2.508547602707     0.368906131178    15.994914619570
         O            4.220328751408     0.371476502707    -0.961496668822    15.994914619570
         O           -2.825968048592     0.038785602707    -0.810159868822    15.994914619570
         O           -3.258226048592    -0.717847397293     1.619042131178    15.994914619570
         O           -2.118098048592    -2.338209397293    -0.102296868822    15.994914619570
         C            0.119056951408     0.035443602707     0.013690131178    12.000000000000
         C            0.954186951408    -1.238770397293    -0.078353868822    12.000000000000
         C            0.899483951408     1.208078602707     0.562222131178    12.000000000000
         C            2.260554951408    -1.008872397293    -0.820665868822    12.000000000000
         C            2.124836351408     1.363893002707    -0.186232868822    12.000000000000
         C            3.026736951408     0.154139602707    -0.212950868822    12.000000000000
         C           -3.123318048592     1.437032602707    -0.491514868822    12.000000000000
         C           -3.535422048592     2.090599602707    -1.786747868822    12.000000000000
         H           -0.282197048592     0.304235602707    -0.972866868822     1.007825032230
         H            0.371163951408    -2.023929397293    -0.574660868822     1.007825032230
         H            1.158014951408     1.003311602707     1.609527131178     1.007825032230
         H            2.061828951408    -0.783225397293    -1.875384868822     1.007825032230
         H            1.917881951408     1.641721602707    -1.276211868822     1.007825032230
         H            3.296749951408    -0.089097397293     0.825017131178     1.007825032230
         H            0.522669951408    -1.882597397293     1.708881131178     1.007825032230
         H            0.666434951408     3.114745602707     0.680555131178     1.007825032230
         H            2.974437951408    -2.541939397293     0.092025131178     1.007825032230
         H            3.722323951408     2.554620602707    -0.061497868822     1.007825032230
         H            4.640621951408    -0.418399397293    -1.099715868822     1.007825032230
         H           -3.807500048592    -1.516903397293     1.732099131178     1.007825032230
         H           -3.929651048592     1.450975602707     0.246757131178     1.007825032230
         H           -2.228867048592     1.898314602707    -0.061724868822     1.007825032230
         H           -3.799626048592     3.136316602707    -1.605299868822     1.007825032230
         H           -2.716301048592     2.058757602707    -2.507503868822     1.007825032230
         H           -4.400049048592     1.579757602707    -2.215352868822     1.007825032230

  Basis Set: AUG-CC-PVTZ
    Blend: AUG-CC-PVTZ
  Basis Set: (AUG-CC-PVTZ AUX)
    Blend: AUG-CC-PVTZ-JKFIT
	 Reference Energy          =   -1327.8514551966388808 [Eh]
	 Singles Energy            =      -0.0000000000000000 [Eh]
	 Same-Spin Energy          =      -1.0142513924524055 [Eh]
	 Opposite-Spin Energy      =      -3.0747937645098000 [Eh]
	 Correlation Energy        =      -4.0890451569622055 [Eh]
	 Total Energy              =   -1331.9405003536010099 [Eh]

	 ================> DF-SCS-MP2 Energies <==================
	-----------------------------------------------------------
	 SCS Same-Spin Scale       =       0.3333333333333333 [-]
	 SCS Opposite-Spin Scale   =       1.2000000000000000 [-]
	 SCS Same-Spin Energy      =      -0.3380837974841351 [Eh]
	 SCS Opposite-Spin Energy  =      -3.6897525174117600 [Eh]
	 SCS Correlation Energy    =      -4.0278363148958949 [Eh]
	 SCS Total Energy          =   -1331.8792915115348023 [Eh]
	-----------------------------------------------------------

  Dipole Moment: [D]
     X:    -1.3134      Y:     1.8524      Z:     0.7314     Total:     2.3856

*** Psi4 exiting successfully. Buy a developer a beer!
