                               Psi4 1.3.2 release

  ==> Input File <==

--------------------------------------------------------------------------
#psi4
#
memory 32 gb

molecule  {
0 1
  P       -2.2900960    -0.9400430     0.3446780
  O       -0.9821530    -0.2015620     0.9382890
  O        1.3422500    -1.6754830     1.2308510
  O        0.0787050     2.3596040     0.4621680
  O        3.0685150    -2.1870720    -0.8085900
  O        2.8473350     2.5031130     0.3715350
  O        4.1956880     0.4353970    -0.9728740
  O       -2.8268630     0.0333510    -0.8075310
  O       -3.2591210    -0.7232820     1.6216710
  O       -2.1189930    -2.3436440    -0.0996680
  C        0.1181620     0.0300090     0.0163190
  C        0.9532920    -1.2442050    -0.0757250
  C        0.8985890     1.2026440     0.5648510
  C        2.2596600    -1.0143070    -0.8180370
  C        2.1770750     1.3964720    -0.2280410
  C        3.0258420     0.1487050    -0.2103220
  C       -3.1242130     1.4315980    -0.4888860
  C       -3.5363170     2.0851650    -1.7841190
  H       -0.2830920     0.2988010    -0.9702380
  H        0.3702690    -2.0293640    -0.5720320
  H        1.1571200     0.9978770     1.6121560
  H        2.0609340    -0.7886600    -1.8727560
  H        1.9169870     1.6362870    -1.2735830
  H        3.2713028    -0.0724145     0.7332638
  H        0.5217750    -1.8880320     1.7115100
  H        0.6655400     3.1093110     0.6831840
  H        2.9735430    -2.5473740     0.0946540
  H        3.7214290     2.5491860    -0.0588690
  H        4.6397270    -0.4238340    -1.0970870
  H       -3.8083950    -1.5223380     1.7347280
  H       -3.9305460     1.4455410     0.2493860
  H       -2.2297620     1.8928800    -0.0590960
  H       -3.8005210     3.1308820    -1.6026710
  H       -2.7171960     2.0533230    -2.5048750
  H       -4.4009440     1.5743230    -2.2127240
units angstrom
no_reorient  #important for SAPT in psi4, default
symmetry c1  #important for SAPT in psi4, default
}

set PROPERTIES_ORIGIN ["COM"]
properties('MP2/aug-cc-pvtz', properties = ['dipole'])
--------------------------------------------------------------------------

    Molecular point group: c1
  Charge       = 0
  Multiplicity = 1
  Basis Set: AUG-CC-PVTZ
    Blend: AUG-CC-PVTZ
  Basis Set: (AUG-CC-PVTZ AUX)
    Blend: AUG-CC-PVTZ-JKFIT

    Orbital Energies [Eh]
    ---------------------

    Doubly Occupied:

       1A    -80.116986     2A    -20.614776     3A    -20.607094
       4A    -20.598959     5A    -20.583666     6A    -20.576881
       7A    -20.574781     8A    -20.573537     9A    -20.572678
      10A    -20.523477    11A    -11.320810    12A    -11.303554
      13A    -11.299396    14A    -11.298733    15A    -11.298559
      16A    -11.296009    17A    -11.279661    18A    -11.229856
      19A     -7.632436    20A     -5.530942    21A     -5.530569
      22A     -5.529367    23A     -1.460340    24A     -1.411067
      25A     -1.394741    26A     -1.393156    27A     -1.386883
      28A     -1.372656    29A     -1.364112    30A     -1.353655
      31A     -1.303873    32A     -1.120060    33A     -1.040509
      34A     -1.015348    35A     -1.003364    36A     -0.883546
      37A     -0.865880    38A     -0.859321    39A     -0.825423
      40A     -0.813878    41A     -0.753173    42A     -0.746400
      43A     -0.731812    44A     -0.729090    45A     -0.709796
      46A     -0.687759    47A     -0.678420    48A     -0.673701
      49A     -0.665040    50A     -0.661416    51A     -0.643203
      52A     -0.635809    53A     -0.627587    54A     -0.615668
      55A     -0.603630    56A     -0.600307    57A     -0.581932
      58A     -0.575652    59A     -0.571908    60A     -0.559674
      61A     -0.556762    62A     -0.549007    63A     -0.541262
      64A     -0.536898    65A     -0.530219    66A     -0.521878
      67A     -0.513109    68A     -0.506153    69A     -0.497122
      70A     -0.485549    71A     -0.479887    72A     -0.476773
      73A     -0.462530    74A     -0.458071    75A     -0.450168
      76A     -0.437095

  @DF-RHF Final Energy: -1327.85631229513865

   => Energetics <=

    Nuclear Repulsion Energy =           1773.0706076695853426
    One-Electron Energy =               -5358.2238496955178562
    Two-Electron Energy =                2257.2969297307940906
    Total Energy =                      -1327.8563122951386504
  Basis Set: (AUG-CC-PVTZ AUX)
    Blend: AUG-CC-PVTZ-RI
    Molecular point group: c1

    Geometry (in Angstrom), charge = 0, multiplicity = 1:

       Center              X                  Y                   Z               Mass
    ------------   -----------------  -----------------  -----------------  -----------------
         P           -2.290010067582    -0.940120363744     0.345008201168    30.973761998420
         O           -0.982067067582    -0.201639363744     0.938619201168    15.994914619570
         O            1.342335932418    -1.675560363744     1.231181201168    15.994914619570
         O            0.078790932418     2.359526636256     0.462498201168    15.994914619570
         O            3.068600932418    -2.187149363744    -0.808259798832    15.994914619570
         O            2.847420932418     2.503035636256     0.371865201168    15.994914619570
         O            4.195773932418     0.435319636256    -0.972543798832    15.994914619570
         O           -2.826777067582     0.033273636256    -0.807200798832    15.994914619570
         O           -3.259035067582    -0.723359363744     1.622001201168    15.994914619570
         O           -2.118907067582    -2.343721363744    -0.099337798832    15.994914619570
         C            0.118247932418     0.029931636256     0.016649201168    12.000000000000
         C            0.953377932418    -1.244282363744    -0.075394798832    12.000000000000
         C            0.898674932418     1.202566636256     0.565181201168    12.000000000000
         C            2.259745932418    -1.014384363744    -0.817706798832    12.000000000000
         C            2.177160932418     1.396394636256    -0.227710798832    12.000000000000
         C            3.025927932418     0.148627636256    -0.209991798832    12.000000000000
         C           -3.124127067582     1.431520636256    -0.488555798832    12.000000000000
         C           -3.536231067582     2.085087636256    -1.783788798832    12.000000000000
         H           -0.283006067582     0.298723636256    -0.969907798832     1.007825032230
         H            0.370354932418    -2.029441363744    -0.571701798832     1.007825032230
         H            1.157205932418     0.997799636256     1.612486201168     1.007825032230
         H            2.061019932418    -0.788737363744    -1.872425798832     1.007825032230
         H            1.917072932418     1.636209636256    -1.273252798832     1.007825032230
         H            3.271388732418    -0.072491863744     0.733594001168     1.007825032230
         H            0.521860932418    -1.888109363744     1.711840201168     1.007825032230
         H            0.665625932418     3.109233636256     0.683514201168     1.007825032230
         H            2.973628932418    -2.547451363744     0.094984201168     1.007825032230
         H            3.721514932418     2.549108636256    -0.058538798832     1.007825032230
         H            4.639812932418    -0.423911363744    -1.096756798832     1.007825032230
         H           -3.808309067582    -1.522415363744     1.735058201168     1.007825032230
         H           -3.930460067582     1.445463636256     0.249716201168     1.007825032230
         H           -2.229676067582     1.892802636256    -0.058765798832     1.007825032230
         H           -3.800435067582     3.130804636256    -1.602340798832     1.007825032230
         H           -2.717110067582     2.053245636256    -2.504544798832     1.007825032230
         H           -4.400858067582     1.574245636256    -2.212393798832     1.007825032230

  Basis Set: AUG-CC-PVTZ
    Blend: AUG-CC-PVTZ
  Basis Set: (AUG-CC-PVTZ AUX)
    Blend: AUG-CC-PVTZ-JKFIT
	 Reference Energy          =   -1327.8563122951386504 [Eh]
	 Singles Energy            =      -0.0000000000000000 [Eh]
	 Same-Spin Energy          =      -1.0143555580033299 [Eh]
	 Opposite-Spin Energy      =      -3.0753278023307478 [Eh]
	 Correlation Energy        =      -4.0896833603340781 [Eh]
	 Total Energy              =   -1331.9459956554726432 [Eh]

	 ================> DF-SCS-MP2 Energies <==================
	-----------------------------------------------------------
	 SCS Same-Spin Scale       =       0.3333333333333333 [-]
	 SCS Opposite-Spin Scale   =       1.2000000000000000 [-]
	 SCS Same-Spin Energy      =      -0.3381185193344433 [Eh]
	 SCS Opposite-Spin Energy  =      -3.6903933627968972 [Eh]
	 SCS Correlation Energy    =      -4.0285118821313404 [Eh]
	 SCS Total Energy          =   -1331.8848241772700476 [Eh]
	-----------------------------------------------------------

  Dipole Moment: [D]
     X:    -1.1256      Y:     1.8519      Z:     0.7561     Total:     2.2953

*** Psi4 exiting successfully. Buy a developer a beer!
