                               Psi4 1.3.2 release

  ==> Input File <==

--------------------------------------------------------------------------
#psi4
#
memory 32 gb

molecule  {
0 1
  P       -2.2900960    -0.9400430     0.3446780
  O       -0.9821530    -0.2015620     0.9382890
  O        1.3305444    -1.6971722     1.2269381
  O        0.0787050     2.3596040     0.4621680
  O        3.0685150    -2.1870720    -0.8085900
  O        2.8473350     2.5031130     0.3715350
  O        4.1956880     0.4353970    -0.9728740
  O       -2.8268630     0.0333510    -0.8075310
  O       -3.2591210    -0.7232820     1.6216710
  O       -2.1189930    -2.3436440    -0.0996680
  C        0.1181620     0.0300090     0.0163190
  C        0.9532920    -1.2442050    -0.0757250
  C        0.8985890     1.2026440     0.5648510
  C        2.2596600    -1.0143070    -0.8180370
  C        2.1770750     1.3964720    -0.2280410
  C        3.0258420     0.1487050    -0.2103220
  C       -3.1242130     1.4315980    -0.4888860
  C       -3.5363170     2.0851650    -1.7841190
  H       -0.2830920     0.2988010    -0.9702380
  H        0.3721931    -2.0403791    -0.5564974
  H        1.1571200     0.9978770     1.6121560
  H        2.0609340    -0.7886600    -1.8727560
  H        1.9169870     1.6362870    -1.2735830
  H        3.2958550    -0.0945320     0.8276460
  H        0.5217750    -1.8880320     1.7115100
  H        0.6655400     3.1093110     0.6831840
  H        2.9735430    -2.5473740     0.0946540
  H        3.7214290     2.5491860    -0.0588690
  H        4.6397270    -0.4238340    -1.0970870
  H       -3.8083950    -1.5223380     1.7347280
  H       -3.9305460     1.4455410     0.2493860
  H       -2.2297620     1.8928800    -0.0590960
  H       -3.8005210     3.1308820    -1.6026710
  H       -2.7171960     2.0533230    -2.5048750
  H       -4.4009440     1.5743230    -2.2127240
units angstrom
no_reorient  #important for SAPT in psi4, default
symmetry c1  #important for SAPT in psi4, default
}

set PROPERTIES_ORIGIN ["COM"]
properties('MP2/aug-cc-pvtz', properties = ['dipole'])
--------------------------------------------------------------------------

    Molecular point group: c1
  Charge       = 0
  Multiplicity = 1
  Basis Set: AUG-CC-PVTZ
    Blend: AUG-CC-PVTZ
  Basis Set: (AUG-CC-PVTZ AUX)
    Blend: AUG-CC-PVTZ-JKFIT

    Orbital Energies [Eh]
    ---------------------

    Doubly Occupied:

       1A    -80.116907     2A    -20.614698     3A    -20.607144
       4A    -20.598958     5A    -20.580868     6A    -20.577143
       7A    -20.574675     8A    -20.574475     9A    -20.573874
      10A    -20.523267    11A    -11.321320    12A    -11.303485
      13A    -11.299830    14A    -11.299442    15A    -11.299174
      16A    -11.297106    17A    -11.291939    18A    -11.229914
      19A     -7.632356    20A     -5.530862    21A     -5.530490
      22A     -5.529285    23A     -1.460327    24A     -1.411210
      25A     -1.395089    26A     -1.393385    27A     -1.386876
      28A     -1.373349    29A     -1.364516    30A     -1.354245
      31A     -1.303676    32A     -1.119720    33A     -1.040511
      34A     -1.012325    35A     -1.003889    36A     -0.880664
      37A     -0.865104    38A     -0.859397    39A     -0.822441
      40A     -0.811816    41A     -0.752534    42A     -0.745283
      43A     -0.731450    44A     -0.728838    45A     -0.708326
      46A     -0.687494    47A     -0.678365    48A     -0.673824
      49A     -0.662664    50A     -0.661172    51A     -0.643682
      52A     -0.635264    53A     -0.627556    54A     -0.616416
      55A     -0.603890    56A     -0.598395    57A     -0.581931
      58A     -0.575628    59A     -0.571316    60A     -0.559400
      61A     -0.556415    62A     -0.548061    63A     -0.541055
      64A     -0.537163    65A     -0.530098    66A     -0.521875
      67A     -0.513338    68A     -0.504319    69A     -0.496759
      70A     -0.485146    71A     -0.479799    72A     -0.476533
      73A     -0.462637    74A     -0.456268    75A     -0.450473
      76A     -0.436238

  @DF-RHF Final Energy: -1327.86219552400416

   => Energetics <=

    Nuclear Repulsion Energy =           1772.2236915205098740
    One-Electron Energy =               -5356.5610566498235130
    Two-Electron Energy =                2256.4751696053094747
    Total Energy =                      -1327.8621955240041643
  Basis Set: (AUG-CC-PVTZ AUX)
    Blend: AUG-CC-PVTZ-RI
    Molecular point group: c1

    Geometry (in Angstrom), charge = 0, multiplicity = 1:

       Center              X                  Y                   Z               Mass
    ------------   -----------------  -----------------  -----------------  -----------------
         P           -2.289452732212    -0.938800126917     0.344840908831    30.973761998420
         O           -0.981509732212    -0.200319126917     0.938451908831    15.994914619570
         O            1.331187667788    -1.695929326917     1.227101008831    15.994914619570
         O            0.079348267788     2.360846873083     0.462330908831    15.994914619570
         O            3.069158267788    -2.185829126917    -0.808427091169    15.994914619570
         O            2.847978267788     2.504355873083     0.371697908831    15.994914619570
         O            4.196331267788     0.436639873083    -0.972711091169    15.994914619570
         O           -2.826219732212     0.034593873083    -0.807368091169    15.994914619570
         O           -3.258477732212    -0.722039126917     1.621833908831    15.994914619570
         O           -2.118349732212    -2.342401126917    -0.099505091169    15.994914619570
         C            0.118805267788     0.031251873083     0.016481908831    12.000000000000
         C            0.953935267788    -1.242962126917    -0.075562091169    12.000000000000
         C            0.899232267788     1.203886873083     0.565013908831    12.000000000000
         C            2.260303267788    -1.013064126917    -0.817874091169    12.000000000000
         C            2.177718267788     1.397714873083    -0.227878091169    12.000000000000
         C            3.026485267788     0.149947873083    -0.210159091169    12.000000000000
         C           -3.123569732212     1.432840873083    -0.488723091169    12.000000000000
         C           -3.535673732212     2.086407873083    -1.783956091169    12.000000000000
         H           -0.282448732212     0.300043873083    -0.970075091169     1.007825032230
         H            0.372836367788    -2.039136226917    -0.556334491169     1.007825032230
         H            1.157763267788     0.999119873083     1.612318908831     1.007825032230
         H            2.061577267788    -0.787417126917    -1.872593091169     1.007825032230
         H            1.917630267788     1.637529873083    -1.273420091169     1.007825032230
         H            3.296498267788    -0.093289126917     0.827808908831     1.007825032230
         H            0.522418267788    -1.886789126917     1.711672908831     1.007825032230
         H            0.666183267788     3.110553873083     0.683346908831     1.007825032230
         H            2.974186267788    -2.546131126917     0.094816908831     1.007825032230
         H            3.722072267788     2.550428873083    -0.058706091169     1.007825032230
         H            4.640370267788    -0.422591126917    -1.096924091169     1.007825032230
         H           -3.807751732212    -1.521095126917     1.734890908831     1.007825032230
         H           -3.929902732212     1.446783873083     0.249548908831     1.007825032230
         H           -2.229118732212     1.894122873083    -0.058933091169     1.007825032230
         H           -3.799877732212     3.132124873083    -1.602508091169     1.007825032230
         H           -2.716552732212     2.054565873083    -2.504712091169     1.007825032230
         H           -4.400300732212     1.575565873083    -2.212561091169     1.007825032230

  Basis Set: AUG-CC-PVTZ
    Blend: AUG-CC-PVTZ
  Basis Set: (AUG-CC-PVTZ AUX)
    Blend: AUG-CC-PVTZ-JKFIT
	 Reference Energy          =   -1327.8621955240041643 [Eh]
	 Singles Energy            =      -0.0000000000000000 [Eh]
	 Same-Spin Energy          =      -1.0143383454517030 [Eh]
	 Opposite-Spin Energy      =      -3.0755184582580122 [Eh]
	 Correlation Energy        =      -4.0898568037097149 [Eh]
	 Total Energy              =   -1331.9520523277137727 [Eh]

	 ================> DF-SCS-MP2 Energies <==================
	-----------------------------------------------------------
	 SCS Same-Spin Scale       =       0.3333333333333333 [-]
	 SCS Opposite-Spin Scale   =       1.2000000000000000 [-]
	 SCS Same-Spin Energy      =      -0.3381127818172343 [Eh]
	 SCS Opposite-Spin Energy  =      -3.6906221499096143 [Eh]
	 SCS Correlation Energy    =      -4.0287349317268486 [Eh]
	 SCS Total Energy          =   -1331.8909304557309952 [Eh]
	-----------------------------------------------------------

  Dipole Moment: [D]
     X:    -1.0954      Y:     1.9174      Z:     0.7169     Total:     2.3217

*** Psi4 exiting successfully. Buy a developer a beer!
