                               Psi4 1.3.2 release

  ==> Input File <==

--------------------------------------------------------------------------
#psi4
#
memory 32 gb

molecule  {
0 1
  P       -2.2900960    -0.9400430     0.3446780
  O       -0.9821530    -0.2015620     0.9382890
  O        1.3422500    -1.6754830     1.2308510
  O        0.0787050     2.3596040     0.4621680
  O        3.0685150    -2.1870720    -0.8085900
  O        2.8473350     2.5031130     0.3715350
  O        4.1956880     0.4353970    -0.9728740
  O       -2.8268630     0.0333510    -0.8075310
  O       -3.2591210    -0.7232820     1.6216710
  O       -2.1189930    -2.3436440    -0.0996680
  C        0.1181620     0.0300090     0.0163190
  C        0.9532920    -1.2442050    -0.0757250
  C        0.8985890     1.2026440     0.5648510
  C        2.2596600    -1.0143070    -0.8180370
  C        2.1770750     1.3964720    -0.2280410
  C        3.0223292     0.1466816    -0.2628436
  C       -3.1242130     1.4315980    -0.4888860
  C       -3.5363170     2.0851650    -1.7841190
  H       -0.2830920     0.2988010    -0.9702380
  H        0.3702690    -2.0293640    -0.5720320
  H        1.1571200     0.9978770     1.6121560
  H        2.0609340    -0.7886600    -1.8727560
  H        1.9369382     1.6053444    -1.2849335
  H        3.2958550    -0.0945320     0.8276460
  H        0.5217750    -1.8880320     1.7115100
  H        0.6655400     3.1093110     0.6831840
  H        2.9735430    -2.5473740     0.0946540
  H        3.7214290     2.5491860    -0.0588690
  H        4.6397270    -0.4238340    -1.0970870
  H       -3.8083950    -1.5223380     1.7347280
  H       -3.9305460     1.4455410     0.2493860
  H       -2.2297620     1.8928800    -0.0590960
  H       -3.8005210     3.1308820    -1.6026710
  H       -2.7171960     2.0533230    -2.5048750
  H       -4.4009440     1.5743230    -2.2127240
units angstrom
no_reorient  #important for SAPT in psi4, default
symmetry c1  #important for SAPT in psi4, default
}

set PROPERTIES_ORIGIN ["COM"]
properties('MP2/aug-cc-pvtz', properties = ['dipole'])
--------------------------------------------------------------------------

    Molecular point group: c1
  Charge       = 0
  Multiplicity = 1
  Basis Set: AUG-CC-PVTZ
    Blend: AUG-CC-PVTZ
  Basis Set: (AUG-CC-PVTZ AUX)
    Blend: AUG-CC-PVTZ-JKFIT

    Orbital Energies [Eh]
    ---------------------

    Doubly Occupied:

       1A    -80.116934     2A    -20.614700     3A    -20.607015
       4A    -20.598902     5A    -20.582638     6A    -20.578347
       7A    -20.577280     8A    -20.574980     9A    -20.573417
      10A    -20.523463    11A    -11.320790    12A    -11.304445
      13A    -11.299332    14A    -11.299112    15A    -11.298572
      16A    -11.296871    17A    -11.292837    18A    -11.229803
      19A     -7.632384    20A     -5.530890    21A     -5.530517
      22A     -5.529316    23A     -1.460261    24A     -1.412442
      25A     -1.397932    26A     -1.393201    27A     -1.386982
      28A     -1.375923    29A     -1.364225    30A     -1.356616
      31A     -1.303855    32A     -1.120137    33A     -1.040433
      34A     -1.013585    35A     -1.004086    36A     -0.880334
      37A     -0.864939    38A     -0.861414    39A     -0.821386
      40A     -0.808316    41A     -0.752526    42A     -0.746593
      43A     -0.732460    44A     -0.728377    45A     -0.708255
      46A     -0.687911    47A     -0.678865    48A     -0.674675
      49A     -0.664385    50A     -0.661323    51A     -0.643708
      52A     -0.635869    53A     -0.627399    54A     -0.615470
      55A     -0.604022    56A     -0.597128    57A     -0.582708
      58A     -0.575485    59A     -0.571196    60A     -0.559516
      61A     -0.558231    62A     -0.548587    63A     -0.541420
      64A     -0.538453    65A     -0.530191    66A     -0.521872
      67A     -0.513842    68A     -0.502421    69A     -0.497195
      70A     -0.484166    71A     -0.479860    72A     -0.476429
      73A     -0.463245    74A     -0.450860    75A     -0.448985
      76A     -0.436258

  @DF-RHF Final Energy: -1327.85800251253090

   => Energetics <=

    Nuclear Repulsion Energy =           1772.7539113714055929
    One-Electron Energy =               -5357.5868374583496916
    Two-Electron Energy =                2256.9749235744129692
    Total Energy =                      -1327.8580025125311295
  Basis Set: (AUG-CC-PVTZ AUX)
    Blend: AUG-CC-PVTZ-RI
    Molecular point group: c1

    Geometry (in Angstrom), charge = 0, multiplicity = 1:

       Center              X                  Y                   Z               Mass
    ------------   -----------------  -----------------  -----------------  -----------------
         P           -2.290019433794    -0.939850434486     0.346905638648    30.973761998420
         O           -0.982076433794    -0.201369434486     0.940516638648    15.994914619570
         O            1.342326566206    -1.675290434486     1.233078638648    15.994914619570
         O            0.078781566206     2.359796565514     0.464395638648    15.994914619570
         O            3.068591566206    -2.186879434486    -0.806362361352    15.994914619570
         O            2.847411566206     2.503305565514     0.373762638648    15.994914619570
         O            4.195764566206     0.435589565514    -0.970646361352    15.994914619570
         O           -2.826786433794     0.033543565514    -0.805303361352    15.994914619570
         O           -3.259044433794    -0.723089434486     1.623898638648    15.994914619570
         O           -2.118916433794    -2.343451434486    -0.097440361352    15.994914619570
         C            0.118238566206     0.030201565514     0.018546638648    12.000000000000
         C            0.953368566206    -1.244012434486    -0.073497361352    12.000000000000
         C            0.898665566206     1.202836565514     0.567078638648    12.000000000000
         C            2.259736566206    -1.014114434486    -0.815809361352    12.000000000000
         C            2.177151566206     1.396664565514    -0.225813361352    12.000000000000
         C            3.022405766206     0.146874165514    -0.260615961352    12.000000000000
         C           -3.124136433794     1.431790565514    -0.486658361352    12.000000000000
         C           -3.536240433794     2.085357565514    -1.781891361352    12.000000000000
         H           -0.283015433794     0.298993565514    -0.968010361352     1.007825032230
         H            0.370345566206    -2.029171434486    -0.569804361352     1.007825032230
         H            1.157196566206     0.998069565514     1.614383638648     1.007825032230
         H            2.061010566206    -0.788467434486    -1.870528361352     1.007825032230
         H            1.937014766206     1.605536965514    -1.282705861352     1.007825032230
         H            3.295931566206    -0.094339434486     0.829873638648     1.007825032230
         H            0.521851566206    -1.887839434486     1.713737638648     1.007825032230
         H            0.665616566206     3.109503565514     0.685411638648     1.007825032230
         H            2.973619566206    -2.547181434486     0.096881638648     1.007825032230
         H            3.721505566206     2.549378565514    -0.056641361352     1.007825032230
         H            4.639803566206    -0.423641434486    -1.094859361352     1.007825032230
         H           -3.808318433794    -1.522145434486     1.736955638648     1.007825032230
         H           -3.930469433794     1.445733565514     0.251613638648     1.007825032230
         H           -2.229685433794     1.893072565514    -0.056868361352     1.007825032230
         H           -3.800444433794     3.131074565514    -1.600443361352     1.007825032230
         H           -2.717119433794     2.053515565514    -2.502647361352     1.007825032230
         H           -4.400867433794     1.574515565514    -2.210496361352     1.007825032230

  Basis Set: AUG-CC-PVTZ
    Blend: AUG-CC-PVTZ
  Basis Set: (AUG-CC-PVTZ AUX)
    Blend: AUG-CC-PVTZ-JKFIT
	 Reference Energy          =   -1327.8580025125309021 [Eh]
	 Singles Energy            =      -0.0000000000000000 [Eh]
	 Same-Spin Energy          =      -1.0148939024655146 [Eh]
	 Opposite-Spin Energy      =      -3.0761683026443913 [Eh]
	 Correlation Energy        =      -4.0910622051099059 [Eh]
	 Total Energy              =   -1331.9490647176407947 [Eh]

	 ================> DF-SCS-MP2 Energies <==================
	-----------------------------------------------------------
	 SCS Same-Spin Scale       =       0.3333333333333333 [-]
	 SCS Opposite-Spin Scale   =       1.2000000000000000 [-]
	 SCS Same-Spin Energy      =      -0.3382979674885048 [Eh]
	 SCS Opposite-Spin Energy  =      -3.6914019631732695 [Eh]
	 SCS Correlation Energy    =      -4.0296999306617742 [Eh]
	 SCS Total Energy          =   -1331.8877024431926657 [Eh]
	-----------------------------------------------------------

  Dipole Moment: [D]
     X:    -1.0631      Y:     1.8816      Z:     0.6473     Total:     2.2560

*** Psi4 exiting successfully. Buy a developer a beer!
