                               Psi4 1.3.2 release

  ==> Input File <==

--------------------------------------------------------------------------
#psi4
#
memory 32 gb

molecule  {
0 1
  P       -2.2900960    -0.9400430     0.3446780
  O       -0.9821530    -0.2015620     0.9382890
  O        1.3422500    -1.6754830     1.2308510
  O        0.0618018     2.3486453     0.4766559
  O        3.0685150    -2.1870720    -0.8085900
  O        2.8473350     2.5031130     0.3715350
  O        4.1956880     0.4353970    -0.9728740
  O       -2.8268630     0.0333510    -0.8075310
  O       -3.2591210    -0.7232820     1.6216710
  O       -2.1189930    -2.3436440    -0.0996680
  C        0.1181620     0.0300090     0.0163190
  C        0.9532920    -1.2442050    -0.0757250
  C        0.8985890     1.2026440     0.5648510
  C        2.2596600    -1.0143070    -0.8180370
  C        2.1849575     1.3722563    -0.2208087
  C        3.0258420     0.1487050    -0.2103220
  C       -3.1242130     1.4315980    -0.4888860
  C       -3.5363170     2.0851650    -1.7841190
  H       -0.2830920     0.2988010    -0.9702380
  H        0.3702690    -2.0293640    -0.5720320
  H        1.1571200     0.9978770     1.6121560
  H        2.0609340    -0.7886600    -1.8727560
  H        1.9169870     1.6362870    -1.2735830
  H        3.2958550    -0.0945320     0.8276460
  H        0.5217750    -1.8880320     1.7115100
  H        0.6655400     3.1093110     0.6831840
  H        2.9735430    -2.5473740     0.0946540
  H        3.7214290     2.5491860    -0.0588690
  H        4.6397270    -0.4238340    -1.0970870
  H       -3.8083950    -1.5223380     1.7347280
  H       -3.9305460     1.4455410     0.2493860
  H       -2.2297620     1.8928800    -0.0590960
  H       -3.8005210     3.1308820    -1.6026710
  H       -2.7171960     2.0533230    -2.5048750
  H       -4.4009440     1.5743230    -2.2127240
units angstrom
no_reorient  #important for SAPT in psi4, default
symmetry c1  #important for SAPT in psi4, default
}

set PROPERTIES_ORIGIN ["COM"]
properties('MP2/aug-cc-pvtz', properties = ['dipole'])
--------------------------------------------------------------------------

    Molecular point group: c1
  Charge       = 0
  Multiplicity = 1
  Basis Set: AUG-CC-PVTZ
    Blend: AUG-CC-PVTZ
  Basis Set: (AUG-CC-PVTZ AUX)
    Blend: AUG-CC-PVTZ-JKFIT

    Orbital Energies [Eh]
    ---------------------

    Doubly Occupied:

       1A    -80.116751     2A    -20.614569     3A    -20.606701
       4A    -20.598770     5A    -20.583275     6A    -20.576291
       7A    -20.576134     8A    -20.575141     9A    -20.575129
      10A    -20.523310    11A    -11.320355    12A    -11.303666
      13A    -11.300181    14A    -11.299152    15A    -11.299061
      16A    -11.298053    17A    -11.291866    18A    -11.229774
      19A     -7.632203    20A     -5.530709    21A     -5.530336
      22A     -5.529135    23A     -1.460086    24A     -1.410740
      25A     -1.394439    26A     -1.391510    27A     -1.386691
      28A     -1.372285    29A     -1.363064    30A     -1.352791
      31A     -1.303698    32A     -1.121341    33A     -1.040375
      34A     -1.015072    35A     -1.003497    36A     -0.880308
      37A     -0.864786    38A     -0.860030    39A     -0.821764
      40A     -0.810456    41A     -0.750614    42A     -0.745612
      43A     -0.731217    44A     -0.727957    45A     -0.707256
      46A     -0.685390    47A     -0.678494    48A     -0.673692
      49A     -0.663921    50A     -0.660819    51A     -0.641627
      52A     -0.635240    53A     -0.627246    54A     -0.615324
      55A     -0.601614    56A     -0.598731    57A     -0.581551
      58A     -0.575446    59A     -0.571043    60A     -0.558588
      61A     -0.556698    62A     -0.548232    63A     -0.541072
      64A     -0.537305    65A     -0.529794    66A     -0.521905
      67A     -0.512805    68A     -0.504529    69A     -0.497248
      70A     -0.485139    71A     -0.479653    72A     -0.476486
      73A     -0.462801    74A     -0.459320    75A     -0.449396
      76A     -0.437057

  @DF-RHF Final Energy: -1327.85841675112829

   => Energetics <=

    Nuclear Repulsion Energy =           1772.8240365808076149
    One-Electron Energy =               -5357.7762648385769353
    Two-Electron Energy =                2257.0938115066405771
    Total Energy =                      -1327.8584167511285159
  Basis Set: (AUG-CC-PVTZ AUX)
    Blend: AUG-CC-PVTZ-RI
    Molecular point group: c1

    Geometry (in Angstrom), charge = 0, multiplicity = 1:

       Center              X                  Y                   Z               Mass
    ------------   -----------------  -----------------  -----------------  -----------------
         P           -2.289485765753    -0.938425714317     0.343572251699    30.973761998420
         O           -0.981542765753    -0.199944714317     0.937183251699    15.994914619570
         O            1.342860234247    -1.673865714317     1.229745251699    15.994914619570
         O            0.062412034247     2.350262585683     0.475550151699    15.994914619570
         O            3.069125234247    -2.185454714317    -0.809695748301    15.994914619570
         O            2.847945234247     2.504730285683     0.370429251699    15.994914619570
         O            4.196298234247     0.437014285683    -0.973979748301    15.994914619570
         O           -2.826252765753     0.034968285683    -0.808636748301    15.994914619570
         O           -3.258510765753    -0.721664714317     1.620565251699    15.994914619570
         O           -2.118382765753    -2.342026714317    -0.100773748301    15.994914619570
         C            0.118772234247     0.031626285683     0.015213251699    12.000000000000
         C            0.953902234247    -1.242587714317    -0.076830748301    12.000000000000
         C            0.899199234247     1.204261285683     0.563745251699    12.000000000000
         C            2.260270234247    -1.012689714317    -0.819142748301    12.000000000000
         C            2.185567734247     1.373873585683    -0.221914448301    12.000000000000
         C            3.026452234247     0.150322285683    -0.211427748301    12.000000000000
         C           -3.123602765753     1.433215285683    -0.489991748301    12.000000000000
         C           -3.535706765753     2.086782285683    -1.785224748301    12.000000000000
         H           -0.282481765753     0.300418285683    -0.971343748301     1.007825032230
         H            0.370879234247    -2.027746714317    -0.573137748301     1.007825032230
         H            1.157730234247     0.999494285683     1.611050251699     1.007825032230
         H            2.061544234247    -0.787042714317    -1.873861748301     1.007825032230
         H            1.917597234247     1.637904285683    -1.274688748301     1.007825032230
         H            3.296465234247    -0.092914714317     0.826540251699     1.007825032230
         H            0.522385234247    -1.886414714317     1.710404251699     1.007825032230
         H            0.666150234247     3.110928285683     0.682078251699     1.007825032230
         H            2.974153234247    -2.545756714317     0.093548251699     1.007825032230
         H            3.722039234247     2.550803285683    -0.059974748301     1.007825032230
         H            4.640337234247    -0.422216714317    -1.098192748301     1.007825032230
         H           -3.807784765753    -1.520720714317     1.733622251699     1.007825032230
         H           -3.929935765753     1.447158285683     0.248280251699     1.007825032230
         H           -2.229151765753     1.894497285683    -0.060201748301     1.007825032230
         H           -3.799910765753     3.132499285683    -1.603776748301     1.007825032230
         H           -2.716585765753     2.054940285683    -2.505980748301     1.007825032230
         H           -4.400333765753     1.575940285683    -2.213829748301     1.007825032230

  Basis Set: AUG-CC-PVTZ
    Blend: AUG-CC-PVTZ
  Basis Set: (AUG-CC-PVTZ AUX)
    Blend: AUG-CC-PVTZ-JKFIT
	 Reference Energy          =   -1327.8584167511282885 [Eh]
	 Singles Energy            =      -0.0000000000000000 [Eh]
	 Same-Spin Energy          =      -1.0151642048841427 [Eh]
	 Opposite-Spin Energy      =      -3.0771954496304788 [Eh]
	 Correlation Energy        =      -4.0923596545146212 [Eh]
	 Total Energy              =   -1331.9507764056429551 [Eh]

	 ================> DF-SCS-MP2 Energies <==================
	-----------------------------------------------------------
	 SCS Same-Spin Scale       =       0.3333333333333333 [-]
	 SCS Opposite-Spin Scale   =       1.2000000000000000 [-]
	 SCS Same-Spin Energy      =      -0.3383880682947142 [Eh]
	 SCS Opposite-Spin Energy  =      -3.6926345395565745 [Eh]
	 SCS Correlation Energy    =      -4.0310226078512885 [Eh]
	 SCS Total Energy          =   -1331.8894393589796437 [Eh]
	-----------------------------------------------------------

  Dipole Moment: [D]
     X:    -1.0835      Y:     1.8377      Z:     0.6954     Total:     2.2438

*** Psi4 exiting successfully. Buy a developer a beer!
