                               Psi4 1.3.2 release

  ==> Input File <==

--------------------------------------------------------------------------
#psi4
#
memory 32 gb

molecule  {
0 1
  P       -2.2900960    -0.9400430     0.3446780
  O       -0.9821530    -0.2015620     0.9382890
  O        1.3422500    -1.6754830     1.2308510
  O        0.0787050     2.3596040     0.4621680
  O        3.0685150    -2.1870720    -0.8085900
  O        2.8473350     2.5031130     0.3715350
  O        4.1956880     0.4353970    -0.9728740
  O       -2.8268630     0.0333510    -0.8075310
  O       -3.2634757    -0.7511544     1.6227856
  O       -2.1347739    -2.3513431    -0.0806718
  C        0.1181620     0.0300090     0.0163190
  C        0.9532920    -1.2442050    -0.0757250
  C        0.8985890     1.2026440     0.5648510
  C        2.2596600    -1.0143070    -0.8180370
  C        2.1770750     1.3964720    -0.2280410
  C        3.0258420     0.1487050    -0.2103220
  C       -3.1242130     1.4315980    -0.4888860
  C       -3.5363170     2.0851650    -1.7841190
  H       -0.2830920     0.2988010    -0.9702380
  H        0.3702690    -2.0293640    -0.5720320
  H        1.1571200     0.9978770     1.6121560
  H        2.0609340    -0.7886600    -1.8727560
  H        1.9169870     1.6362870    -1.2735830
  H        3.2958550    -0.0945320     0.8276460
  H        0.5217750    -1.8880320     1.7115100
  H        0.6655400     3.1093110     0.6831840
  H        2.9735430    -2.5473740     0.0946540
  H        3.7214290     2.5491860    -0.0588690
  H        4.6397270    -0.4238340    -1.0970870
  H       -3.8083950    -1.5223380     1.7347280
  H       -3.9305460     1.4455410     0.2493860
  H       -2.2297620     1.8928800    -0.0590960
  H       -3.8005210     3.1308820    -1.6026710
  H       -2.7171960     2.0533230    -2.5048750
  H       -4.4009440     1.5743230    -2.2127240
units angstrom
no_reorient  #important for SAPT in psi4, default
symmetry c1  #important for SAPT in psi4, default
}

set PROPERTIES_ORIGIN ["COM"]
properties('MP2/aug-cc-pvtz', properties = ['dipole'])
--------------------------------------------------------------------------

    Molecular point group: c1
  Charge       = 0
  Multiplicity = 1
  Basis Set: AUG-CC-PVTZ
    Blend: AUG-CC-PVTZ
  Basis Set: (AUG-CC-PVTZ AUX)
    Blend: AUG-CC-PVTZ-JKFIT

    Orbital Energies [Eh]
    ---------------------

    Doubly Occupied:

       1A    -80.117293     2A    -20.610030     3A    -20.608509
       4A    -20.600489     5A    -20.583591     6A    -20.577238
       7A    -20.575036     8A    -20.574497     9A    -20.574060
      10A    -20.521687    11A    -11.321779    12A    -11.304317
      13A    -11.300375    14A    -11.299900    15A    -11.299276
      16A    -11.297218    17A    -11.291907    18A    -11.230521
      19A     -7.632643    20A     -5.531130    21A     -5.530800
      22A     -5.529583    23A     -1.461270    24A     -1.411795
      25A     -1.396045    26A     -1.393843    27A     -1.388975
      28A     -1.373468    29A     -1.364448    30A     -1.354318
      31A     -1.302545    32A     -1.119738    33A     -1.041318
      34A     -1.012779    35A     -1.004060    36A     -0.881735
      37A     -0.865720    38A     -0.859765    39A     -0.825422
      40A     -0.811343    41A     -0.752669    42A     -0.747091
      43A     -0.733449    44A     -0.729169    45A     -0.709443
      46A     -0.687656    47A     -0.678497    48A     -0.673621
      49A     -0.662360    50A     -0.661215    51A     -0.643756
      52A     -0.635574    53A     -0.628138    54A     -0.616010
      55A     -0.604088    56A     -0.598966    57A     -0.581570
      58A     -0.576097    59A     -0.571693    60A     -0.559441
      61A     -0.556910    62A     -0.548959    63A     -0.541612
      64A     -0.537007    65A     -0.530638    66A     -0.522254
      67A     -0.513833    68A     -0.504879    69A     -0.497095
      70A     -0.485383    71A     -0.479881    72A     -0.475316
      73A     -0.462650    74A     -0.456353    75A     -0.450632
      76A     -0.436775

  @DF-RHF Final Energy: -1327.86256970716431

   => Energetics <=

    Nuclear Repulsion Energy =           1772.0256154209957913
    One-Electron Energy =               -5356.1140881917581282
    Two-Electron Energy =                2256.2259030635982526
    Total Energy =                      -1327.8625697071643117
  Basis Set: (AUG-CC-PVTZ AUX)
    Blend: AUG-CC-PVTZ-RI
    Molecular point group: c1

    Geometry (in Angstrom), charge = 0, multiplicity = 1:

       Center              X                  Y                   Z               Mass
    ------------   -----------------  -----------------  -----------------  -----------------
         P           -2.288977915151    -0.938067834466     0.343561315803    30.973761998420
         O           -0.981034915151    -0.199586834466     0.937172315803    15.994914619570
         O            1.343368084849    -1.673507834466     1.229734315803    15.994914619570
         O            0.079823084849     2.361579165534     0.461051315803    15.994914619570
         O            3.069633084849    -2.185096834466    -0.809706684197    15.994914619570
         O            2.848453084849     2.505088165534     0.370418315803    15.994914619570
         O            4.196806084849     0.437372165534    -0.973990684197    15.994914619570
         O           -2.825744915151     0.035326165534    -0.808647684197    15.994914619570
         O           -3.262357615151    -0.749179234466     1.621668915803    15.994914619570
         O           -2.133655815151    -2.349367934466    -0.081788484197    15.994914619570
         C            0.119280084849     0.031984165534     0.015202315803    12.000000000000
         C            0.954410084849    -1.242229834466    -0.076841684197    12.000000000000
         C            0.899707084849     1.204619165534     0.563734315803    12.000000000000
         C            2.260778084849    -1.012331834466    -0.819153684197    12.000000000000
         C            2.178193084849     1.398447165534    -0.229157684197    12.000000000000
         C            3.026960084849     0.150680165534    -0.211438684197    12.000000000000
         C           -3.123094915151     1.433573165534    -0.490002684197    12.000000000000
         C           -3.535198915151     2.087140165534    -1.785235684197    12.000000000000
         H           -0.281973915151     0.300776165534    -0.971354684197     1.007825032230
         H            0.371387084849    -2.027388834466    -0.573148684197     1.007825032230
         H            1.158238084849     0.999852165534     1.611039315803     1.007825032230
         H            2.062052084849    -0.786684834466    -1.873872684197     1.007825032230
         H            1.918105084849     1.638262165534    -1.274699684197     1.007825032230
         H            3.296973084849    -0.092556834466     0.826529315803     1.007825032230
         H            0.522893084849    -1.886056834466     1.710393315803     1.007825032230
         H            0.666658084849     3.111286165534     0.682067315803     1.007825032230
         H            2.974661084849    -2.545398834466     0.093537315803     1.007825032230
         H            3.722547084849     2.551161165534    -0.059985684197     1.007825032230
         H            4.640845084849    -0.421858834466    -1.098203684197     1.007825032230
         H           -3.807276915151    -1.520362834466     1.733611315803     1.007825032230
         H           -3.929427915151     1.447516165534     0.248269315803     1.007825032230
         H           -2.228643915151     1.894855165534    -0.060212684197     1.007825032230
         H           -3.799402915151     3.132857165534    -1.603787684197     1.007825032230
         H           -2.716077915151     2.055298165534    -2.505991684197     1.007825032230
         H           -4.399825915151     1.576298165534    -2.213840684197     1.007825032230

  Basis Set: AUG-CC-PVTZ
    Blend: AUG-CC-PVTZ
  Basis Set: (AUG-CC-PVTZ AUX)
    Blend: AUG-CC-PVTZ-JKFIT
	 Reference Energy          =   -1327.8625697071643117 [Eh]
	 Singles Energy            =      -0.0000000000000000 [Eh]
	 Same-Spin Energy          =      -1.0141504152317513 [Eh]
	 Opposite-Spin Energy      =      -3.0751095739427048 [Eh]
	 Correlation Energy        =      -4.0892599891744563 [Eh]
	 Total Energy              =   -1331.9518296963387911 [Eh]

	 ================> DF-SCS-MP2 Energies <==================
	-----------------------------------------------------------
	 SCS Same-Spin Scale       =       0.3333333333333333 [-]
	 SCS Opposite-Spin Scale   =       1.2000000000000000 [-]
	 SCS Same-Spin Energy      =      -0.3380501384105837 [Eh]
	 SCS Opposite-Spin Energy  =      -3.6901314887312457 [Eh]
	 SCS Correlation Energy    =      -4.0281816271418291 [Eh]
	 SCS Total Energy          =   -1331.8907513343060600 [Eh]
	-----------------------------------------------------------

  Dipole Moment: [D]
     X:    -1.0239      Y:     1.9731      Z:     0.6420     Total:     2.3138

*** Psi4 exiting successfully. Buy a developer a beer!
