                               Psi4 1.3.2 release

  ==> Input File <==

--------------------------------------------------------------------------
#psi4
#
memory 32 gb

molecule  {
0 1
  P       -2.2900960    -0.9400430     0.3446780
  O       -0.9821530    -0.2015620     0.9382890
  O        1.3422500    -1.6754830     1.2308510
  O        0.0787050     2.3596040     0.4621680
  O        3.0685150    -2.1870720    -0.8085900
  O        2.8571967     2.4958599     0.3737687
  O        4.1956880     0.4353970    -0.9728740
  O       -2.8268630     0.0333510    -0.8075310
  O       -3.2591210    -0.7232820     1.6216710
  O       -2.1189930    -2.3436440    -0.0996680
  C        0.1181620     0.0300090     0.0163190
  C        0.9532920    -1.2442050    -0.0757250
  C        0.8985890     1.2026440     0.5648510
  C        2.2596600    -1.0143070    -0.8180370
  C        2.1770750     1.3964720    -0.2280410
  C        3.0354512     0.1553966    -0.2042940
  C       -3.1242130     1.4315980    -0.4888860
  C       -3.5363170     2.0851650    -1.7841190
  H       -0.2830920     0.2988010    -0.9702380
  H        0.3702690    -2.0293640    -0.5720320
  H        1.1571200     0.9978770     1.6121560
  H        2.0609340    -0.7886600    -1.8727560
  H        1.9169870     1.6362870    -1.2735830
  H        3.2958550    -0.0945320     0.8276460
  H        0.5217750    -1.8880320     1.7115100
  H        0.6655400     3.1093110     0.6831840
  H        2.9735430    -2.5473740     0.0946540
  H        3.7214290     2.5491860    -0.0588690
  H        4.6397270    -0.4238340    -1.0970870
  H       -3.8083950    -1.5223380     1.7347280
  H       -3.9305460     1.4455410     0.2493860
  H       -2.2297620     1.8928800    -0.0590960
  H       -3.8005210     3.1308820    -1.6026710
  H       -2.7171960     2.0533230    -2.5048750
  H       -4.4009440     1.5743230    -2.2127240
units angstrom
no_reorient  #important for SAPT in psi4, default
symmetry c1  #important for SAPT in psi4, default
}

set PROPERTIES_ORIGIN ["COM"]
properties('MP2/aug-cc-pvtz', properties = ['dipole'])
--------------------------------------------------------------------------

    Molecular point group: c1
  Charge       = 0
  Multiplicity = 1
  Basis Set: AUG-CC-PVTZ
    Blend: AUG-CC-PVTZ
  Basis Set: (AUG-CC-PVTZ AUX)
    Blend: AUG-CC-PVTZ-JKFIT

    Orbital Energies [Eh]
    ---------------------

    Doubly Occupied:

       1A    -80.116938     2A    -20.614730     3A    -20.607032
       4A    -20.598952     5A    -20.582970     6A    -20.575429
       7A    -20.574392     8A    -20.574176     9A    -20.573819
      10A    -20.523405    11A    -11.320774    12A    -11.303211
      13A    -11.299426    14A    -11.299125    15A    -11.298888
      16A    -11.296613    17A    -11.290836    18A    -11.229902
      19A     -7.632388    20A     -5.530894    21A     -5.530521
      22A     -5.529319    23A     -1.460285    24A     -1.410909
      25A     -1.395523    26A     -1.392932    27A     -1.386889
      28A     -1.373342    29A     -1.364235    30A     -1.354640
      31A     -1.303802    32A     -1.118103    33A     -1.040479
      34A     -1.011301    35A     -1.002851    36A     -0.880253
      37A     -0.864984    38A     -0.858772    39A     -0.822632
      40A     -0.810662    41A     -0.751972    42A     -0.745440
      43A     -0.731526    44A     -0.728744    45A     -0.708478
      46A     -0.687192    47A     -0.677902    48A     -0.673892
      49A     -0.662802    50A     -0.660868    51A     -0.643887
      52A     -0.635411    53A     -0.627228    54A     -0.615179
      55A     -0.603579    56A     -0.598846    57A     -0.581814
      58A     -0.575567    59A     -0.571064    60A     -0.559308
      61A     -0.556624    62A     -0.548513    63A     -0.541142
      64A     -0.536321    65A     -0.530030    66A     -0.521873
      67A     -0.513138    68A     -0.504770    69A     -0.497126
      70A     -0.484899    71A     -0.479846    72A     -0.476584
      73A     -0.462651    74A     -0.456126    75A     -0.450008
      76A     -0.433647

  @DF-RHF Final Energy: -1327.86202382704664

   => Energetics <=

    Nuclear Repulsion Energy =           1772.2922646839615481
    One-Electron Energy =               -5356.7279197241805377
    Two-Electron Energy =                2256.5736312131721206
    Total Energy =                      -1327.8620238270468690
  Basis Set: (AUG-CC-PVTZ AUX)
    Blend: AUG-CC-PVTZ-RI
    Molecular point group: c1

    Geometry (in Angstrom), charge = 0, multiplicity = 1:

       Center              X                  Y                   Z               Mass
    ------------   -----------------  -----------------  -----------------  -----------------
         P           -2.291043847758    -0.939919003332     0.344302848583    30.973761998420
         O           -0.983100847758    -0.201438003332     0.937913848583    15.994914619570
         O            1.341302152242    -1.675359003332     1.230475848583    15.994914619570
         O            0.077757152242     2.359727996668     0.461792848583    15.994914619570
         O            3.067567152242    -2.186948003332    -0.808965151417    15.994914619570
         O            2.856248852242     2.495983896668     0.373393548583    15.994914619570
         O            4.194740152242     0.435520996668    -0.973249151417    15.994914619570
         O           -2.827810847758     0.033474996668    -0.807906151417    15.994914619570
         O           -3.260068847758    -0.723158003332     1.621295848583    15.994914619570
         O           -2.119940847758    -2.343520003332    -0.100043151417    15.994914619570
         C            0.117214152242     0.030132996668     0.015943848583    12.000000000000
         C            0.952344152242    -1.244081003332    -0.076100151417    12.000000000000
         C            0.897641152242     1.202767996668     0.564475848583    12.000000000000
         C            2.258712152242    -1.014183003332    -0.818412151417    12.000000000000
         C            2.176127152242     1.396595996668    -0.228416151417    12.000000000000
         C            3.034503352242     0.155520596668    -0.204669151417    12.000000000000
         C           -3.125160847758     1.431721996668    -0.489261151417    12.000000000000
         C           -3.537264847758     2.085288996668    -1.784494151417    12.000000000000
         H           -0.284039847758     0.298924996668    -0.970613151417     1.007825032230
         H            0.369321152242    -2.029240003332    -0.572407151417     1.007825032230
         H            1.156172152242     0.998000996668     1.611780848583     1.007825032230
         H            2.059986152242    -0.788536003332    -1.873131151417     1.007825032230
         H            1.916039152242     1.636410996668    -1.273958151417     1.007825032230
         H            3.294907152242    -0.094408003332     0.827270848583     1.007825032230
         H            0.520827152242    -1.887908003332     1.711134848583     1.007825032230
         H            0.664592152242     3.109434996668     0.682808848583     1.007825032230
         H            2.972595152242    -2.547250003332     0.094278848583     1.007825032230
         H            3.720481152242     2.549309996668    -0.059244151417     1.007825032230
         H            4.638779152242    -0.423710003332    -1.097462151417     1.007825032230
         H           -3.809342847758    -1.522214003332     1.734352848583     1.007825032230
         H           -3.931493847758     1.445664996668     0.249010848583     1.007825032230
         H           -2.230709847758     1.893003996668    -0.059471151417     1.007825032230
         H           -3.801468847758     3.131005996668    -1.603046151417     1.007825032230
         H           -2.718143847758     2.053446996668    -2.505250151417     1.007825032230
         H           -4.401891847758     1.574446996668    -2.213099151417     1.007825032230

  Basis Set: AUG-CC-PVTZ
    Blend: AUG-CC-PVTZ
  Basis Set: (AUG-CC-PVTZ AUX)
    Blend: AUG-CC-PVTZ-JKFIT
	 Reference Energy          =   -1327.8620238270466416 [Eh]
	 Singles Energy            =      -0.0000000000000000 [Eh]
	 Same-Spin Energy          =      -1.0143791101483841 [Eh]
	 Opposite-Spin Energy      =      -3.0756374800571424 [Eh]
	 Correlation Energy        =      -4.0900165902055265 [Eh]
	 Total Energy              =   -1331.9520404172521921 [Eh]

	 ================> DF-SCS-MP2 Energies <==================
	-----------------------------------------------------------
	 SCS Same-Spin Scale       =       0.3333333333333333 [-]
	 SCS Opposite-Spin Scale   =       1.2000000000000000 [-]
	 SCS Same-Spin Energy      =      -0.3381263700494613 [Eh]
	 SCS Opposite-Spin Energy  =      -3.6907649760685706 [Eh]
	 SCS Correlation Energy    =      -4.0288913461180318 [Eh]
	 SCS Total Energy          =   -1331.8909151731647853 [Eh]
	-----------------------------------------------------------

  Dipole Moment: [D]
     X:    -1.1156      Y:     1.8816      Z:     0.7123     Total:     2.3005

*** Psi4 exiting successfully. Buy a developer a beer!
