                               Psi4 1.3.2 release

  ==> Input File <==

--------------------------------------------------------------------------
#psi4
#
memory 32 gb

molecule  {
0 1
  P       -2.2900960    -0.9400430     0.3446780
  O       -0.9821530    -0.2015620     0.9382890
  O        1.3422500    -1.6754830     1.2308510
  O        0.0787050     2.3596040     0.4621680
  O        3.0685150    -2.1870720    -0.8085900
  O        2.8473350     2.5031130     0.3715350
  O        4.1956880     0.4353970    -0.9728740
  O       -2.8268630     0.0333510    -0.8075310
  O       -3.2591210    -0.7232820     1.6216710
  O       -2.1189930    -2.3436440    -0.0996680
  C        0.1181620     0.0300090     0.0163190
  C        0.9557312    -1.2434811    -0.0626510
  C        0.8985890     1.2026440     0.5648510
  C        2.2596600    -1.0143070    -0.8180370
  C        2.1770750     1.3964720    -0.2280410
  C        3.0258420     0.1487050    -0.2103220
  C       -3.1242130     1.4315980    -0.4888860
  C       -3.5363170     2.0851650    -1.7841190
  H       -0.2873674     0.3064571    -0.9663666
  H        0.3702690    -2.0293640    -0.5720320
  H        1.1571200     0.9978770     1.6121560
  H        2.0609340    -0.7886600    -1.8727560
  H        1.9169870     1.6362870    -1.2735830
  H        3.2958550    -0.0945320     0.8276460
  H        0.5217750    -1.8880320     1.7115100
  H        0.6655400     3.1093110     0.6831840
  H        2.9735430    -2.5473740     0.0946540
  H        3.7214290     2.5491860    -0.0588690
  H        4.6397270    -0.4238340    -1.0970870
  H       -3.8083950    -1.5223380     1.7347280
  H       -3.9305460     1.4455410     0.2493860
  H       -2.2297620     1.8928800    -0.0590960
  H       -3.8005210     3.1308820    -1.6026710
  H       -2.7171960     2.0533230    -2.5048750
  H       -4.4009440     1.5743230    -2.2127240
units angstrom
no_reorient  #important for SAPT in psi4, default
symmetry c1  #important for SAPT in psi4, default
}

set PROPERTIES_ORIGIN ["COM"]
properties('MP2/aug-cc-pvtz', properties = ['dipole'])
--------------------------------------------------------------------------

    Molecular point group: c1
  Charge       = 0
  Multiplicity = 1
  Basis Set: AUG-CC-PVTZ
    Blend: AUG-CC-PVTZ
  Basis Set: (AUG-CC-PVTZ AUX)
    Blend: AUG-CC-PVTZ-JKFIT

    Orbital Energies [Eh]
    ---------------------

    Doubly Occupied:

       1A    -80.116803     2A    -20.614651     3A    -20.606695
       4A    -20.598882     5A    -20.584707     6A    -20.576748
       7A    -20.574520     8A    -20.573925     9A    -20.573407
      10A    -20.523250    11A    -11.320314    12A    -11.303659
      13A    -11.299364    14A    -11.299164    15A    -11.298379
      16A    -11.296605    17A    -11.291190    18A    -11.229844
      19A     -7.632253    20A     -5.530759    21A     -5.530386
      22A     -5.529183    23A     -1.460248    24A     -1.412397
      25A     -1.395244    26A     -1.393555    27A     -1.386801
      28A     -1.373830    29A     -1.364631    30A     -1.354036
      31A     -1.303657    32A     -1.118658    33A     -1.040436
      34A     -1.011804    35A     -1.002454    36A     -0.880026
      37A     -0.864833    38A     -0.858603    39A     -0.822126
      40A     -0.811383    41A     -0.752632    42A     -0.745390
      43A     -0.731148    44A     -0.728611    45A     -0.708007
      46A     -0.687129    47A     -0.679481    48A     -0.673768
      49A     -0.662283    50A     -0.660964    51A     -0.643156
      52A     -0.634911    53A     -0.627485    54A     -0.615864
      55A     -0.603506    56A     -0.598674    57A     -0.581490
      58A     -0.575499    59A     -0.571621    60A     -0.559476
      61A     -0.556657    62A     -0.549097    63A     -0.541281
      64A     -0.536628    65A     -0.530328    66A     -0.521861
      67A     -0.513008    68A     -0.504073    69A     -0.496796
      70A     -0.484713    71A     -0.479713    72A     -0.476483
      73A     -0.462044    74A     -0.455804    75A     -0.449445
      76A     -0.435022

  @DF-RHF Final Energy: -1327.86143650562735

   => Energetics <=

    Nuclear Repulsion Energy =           1772.5727073728833147
    One-Electron Energy =               -5357.2813707515651913
    Two-Electron Energy =                2256.8472268730547512
    Total Energy =                      -1327.8614365056273527
  Basis Set: (AUG-CC-PVTZ AUX)
    Blend: AUG-CC-PVTZ-RI
    Molecular point group: c1

    Geometry (in Angstrom), charge = 0, multiplicity = 1:

       Center              X                  Y                   Z               Mass
    ------------   -----------------  -----------------  -----------------  -----------------
         P           -2.290182620837    -0.940099924460     0.344119811484    30.973761998420
         O           -0.982239620837    -0.201618924460     0.937730811484    15.994914619570
         O            1.342163379163    -1.675539924460     1.230292811484    15.994914619570
         O            0.078618379163     2.359547075540     0.461609811484    15.994914619570
         O            3.068428379163    -2.187128924460    -0.809148188516    15.994914619570
         O            2.847248379163     2.503056075540     0.370976811484    15.994914619570
         O            4.195601379163     0.435340075540    -0.973432188516    15.994914619570
         O           -2.826949620837     0.033294075540    -0.808089188516    15.994914619570
         O           -3.259207620837    -0.723338924460     1.621112811484    15.994914619570
         O           -2.119079620837    -2.343700924460    -0.100226188516    15.994914619570
         C            0.118075379163     0.029952075540     0.015760811484    12.000000000000
         C            0.955644579163    -1.243538024460    -0.063209188516    12.000000000000
         C            0.898502379163     1.202587075540     0.564292811484    12.000000000000
         C            2.259573379163    -1.014363924460    -0.818595188516    12.000000000000
         C            2.176988379163     1.396415075540    -0.228599188516    12.000000000000
         C            3.025755379163     0.148648075540    -0.210880188516    12.000000000000
         C           -3.124299620837     1.431541075540    -0.489444188516    12.000000000000
         C           -3.536403620837     2.085108075540    -1.784677188516    12.000000000000
         H           -0.287454020837     0.306400175540    -0.966924788516     1.007825032230
         H            0.370182379163    -2.029420924460    -0.572590188516     1.007825032230
         H            1.157033379163     0.997820075540     1.611597811484     1.007825032230
         H            2.060847379163    -0.788716924460    -1.873314188516     1.007825032230
         H            1.916900379163     1.636230075540    -1.274141188516     1.007825032230
         H            3.295768379163    -0.094588924460     0.827087811484     1.007825032230
         H            0.521688379163    -1.888088924460     1.710951811484     1.007825032230
         H            0.665453379163     3.109254075540     0.682625811484     1.007825032230
         H            2.973456379163    -2.547430924460     0.094095811484     1.007825032230
         H            3.721342379163     2.549129075540    -0.059427188516     1.007825032230
         H            4.639640379163    -0.423890924460    -1.097645188516     1.007825032230
         H           -3.808481620837    -1.522394924460     1.734169811484     1.007825032230
         H           -3.930632620837     1.445484075540     0.248827811484     1.007825032230
         H           -2.229848620837     1.892823075540    -0.059654188516     1.007825032230
         H           -3.800607620837     3.130825075540    -1.603229188516     1.007825032230
         H           -2.717282620837     2.053266075540    -2.505433188516     1.007825032230
         H           -4.401030620837     1.574266075540    -2.213282188516     1.007825032230

  Basis Set: AUG-CC-PVTZ
    Blend: AUG-CC-PVTZ
  Basis Set: (AUG-CC-PVTZ AUX)
    Blend: AUG-CC-PVTZ-JKFIT
	 Reference Energy          =   -1327.8614365056273527 [Eh]
	 Singles Energy            =      -0.0000000000000000 [Eh]
	 Same-Spin Energy          =      -1.0146198377169302 [Eh]
	 Opposite-Spin Energy      =      -3.0759508170138123 [Eh]
	 Correlation Energy        =      -4.0905706547307421 [Eh]
	 Total Energy              =   -1331.9520071603581073 [Eh]

	 ================> DF-SCS-MP2 Energies <==================
	-----------------------------------------------------------
	 SCS Same-Spin Scale       =       0.3333333333333333 [-]
	 SCS Opposite-Spin Scale   =       1.2000000000000000 [-]
	 SCS Same-Spin Energy      =      -0.3382066125723101 [Eh]
	 SCS Opposite-Spin Energy  =      -3.6911409804165745 [Eh]
	 SCS Correlation Energy    =      -4.0293475929888842 [Eh]
	 SCS Total Energy          =   -1331.8907840986162228 [Eh]
	-----------------------------------------------------------

  Dipole Moment: [D]
     X:    -1.1053      Y:     1.8527      Z:     0.7544     Total:     2.2855

*** Psi4 exiting successfully. Buy a developer a beer!
