                               Psi4 1.3.2 release

  ==> Input File <==

--------------------------------------------------------------------------
#psi4
#
memory 32 gb

molecule  {
0 1
  P       -2.2900960    -0.9400430     0.3446780
  O       -0.9821530    -0.2015620     0.9382890
  O        1.3422500    -1.6754830     1.2308510
  O        0.0787050     2.3596040     0.4621680
  O        3.0685150    -2.1870720    -0.8085900
  O        2.8473350     2.5031130     0.3715350
  O        4.1956880     0.4353970    -0.9728740
  O       -2.8268630     0.0333510    -0.8075310
  O       -3.2591210    -0.7232820     1.6216710
  O       -2.1189930    -2.3436440    -0.0996680
  C        0.1181620     0.0300090     0.0163190
  C        0.9532920    -1.2442050    -0.0757250
  C        0.8985890     1.2026440     0.5648510
  C        2.2596600    -1.0143070    -0.8180370
  C        2.1770750     1.3964720    -0.2280410
  C        3.0258420     0.1487050    -0.2103220
  C       -3.1242130     1.4315980    -0.4888860
  C       -3.5363170     2.0851650    -1.7841190
  H       -0.2830920     0.2988010    -0.9702380
  H        0.3702690    -2.0293640    -0.5720320
  H        1.1571200     0.9978770     1.6121560
  H        2.0971734    -0.8298086    -1.6804191
  H        1.9169870     1.6362870    -1.2735830
  H        3.2958550    -0.0945320     0.8276460
  H        0.5217750    -1.8880320     1.7115100
  H        0.6655400     3.1093110     0.6831840
  H        2.9735430    -2.5473740     0.0946540
  H        3.7214290     2.5491860    -0.0588690
  H        4.6397270    -0.4238340    -1.0970870
  H       -3.8083950    -1.5223380     1.7347280
  H       -3.9305460     1.4455410     0.2493860
  H       -2.2297620     1.8928800    -0.0590960
  H       -3.8005210     3.1308820    -1.6026710
  H       -2.7171960     2.0533230    -2.5048750
  H       -4.4009440     1.5743230    -2.2127240
units angstrom
no_reorient  #important for SAPT in psi4, default
symmetry c1  #important for SAPT in psi4, default
}

set PROPERTIES_ORIGIN ["COM"]
properties('MP2/aug-cc-pvtz', properties = ['dipole'])
--------------------------------------------------------------------------

    Molecular point group: c1
  Charge       = 0
  Multiplicity = 1
  Basis Set: AUG-CC-PVTZ
    Blend: AUG-CC-PVTZ
  Basis Set: (AUG-CC-PVTZ AUX)
    Blend: AUG-CC-PVTZ-JKFIT

    Orbital Energies [Eh]
    ---------------------

    Doubly Occupied:

       1A    -80.117041     2A    -20.614798     3A    -20.607154
       4A    -20.599088     5A    -20.582370     6A    -20.576990
       7A    -20.574296     8A    -20.573616     9A    -20.572415
      10A    -20.523515    11A    -11.321017    12A    -11.302559
      13A    -11.299523    14A    -11.298794    15A    -11.297031
      16A    -11.290153    17A    -11.274900    18A    -11.230011
      19A     -7.632491    20A     -5.530997    21A     -5.530624
      22A     -5.529422    23A     -1.460384    24A     -1.410757
      25A     -1.394819    26A     -1.392831    27A     -1.386980
      28A     -1.372676    29A     -1.363644    30A     -1.353561
      31A     -1.303913    32A     -1.122531    33A     -1.040678
      34A     -1.017414    35A     -1.008815    36A     -0.880269
      37A     -0.874364    38A     -0.864958    39A     -0.827409
      40A     -0.816357    41A     -0.751660    42A     -0.747232
      43A     -0.732068    44A     -0.728728    45A     -0.708071
      46A     -0.689477    47A     -0.678292    48A     -0.674060
      49A     -0.662328    50A     -0.661537    51A     -0.643969
      52A     -0.636536    53A     -0.627661    54A     -0.616866
      55A     -0.607726    56A     -0.601547    57A     -0.583606
      58A     -0.576542    59A     -0.570866    60A     -0.562345
      61A     -0.559016    62A     -0.548840    63A     -0.542585
      64A     -0.539400    65A     -0.531481    66A     -0.522911
      67A     -0.514033    68A     -0.504555    69A     -0.497337
      70A     -0.485551    71A     -0.479894    72A     -0.476765
      73A     -0.462463    74A     -0.455731    75A     -0.450069
      76A     -0.436050

  @DF-RHF Final Energy: -1327.82875606294988

   => Energetics <=

    Nuclear Repulsion Energy =           1773.8123921540932315
    One-Electron Energy =               -5359.6043714862616980
    Two-Electron Energy =                2257.9632232692188154
    Total Energy =                      -1327.8287560629496511
  Basis Set: (AUG-CC-PVTZ AUX)
    Blend: AUG-CC-PVTZ-RI
    Molecular point group: c1

    Geometry (in Angstrom), charge = 0, multiplicity = 1:

       Center              X                  Y                   Z               Mass
    ------------   -----------------  -----------------  -----------------  -----------------
         P           -2.290222756186    -0.939899017727     0.344005071042    30.973761998420
         O           -0.982279756186    -0.201418017727     0.937616071042    15.994914619570
         O            1.342123243814    -1.675339017727     1.230178071042    15.994914619570
         O            0.078578243814     2.359747982273     0.461495071042    15.994914619570
         O            3.068388243814    -2.186928017727    -0.809262928958    15.994914619570
         O            2.847208243814     2.503256982273     0.370862071042    15.994914619570
         O            4.195561243814     0.435540982273    -0.973546928958    15.994914619570
         O           -2.826989756186     0.033494982273    -0.808203928958    15.994914619570
         O           -3.259247756186    -0.723138017727     1.620998071042    15.994914619570
         O           -2.119119756186    -2.343500017727    -0.100340928958    15.994914619570
         C            0.118035243814     0.030152982273     0.015646071042    12.000000000000
         C            0.953165243814    -1.244061017727    -0.076397928958    12.000000000000
         C            0.898462243814     1.202787982273     0.564178071042    12.000000000000
         C            2.259533243814    -1.014163017727    -0.818709928958    12.000000000000
         C            2.176948243814     1.396615982273    -0.228713928958    12.000000000000
         C            3.025715243814     0.148848982273    -0.210994928958    12.000000000000
         C           -3.124339756186     1.431741982273    -0.489558928958    12.000000000000
         C           -3.536443756186     2.085308982273    -1.784791928958    12.000000000000
         H           -0.283218756186     0.298944982273    -0.970910928958     1.007825032230
         H            0.370142243814    -2.029220017727    -0.572704928958     1.007825032230
         H            1.156993243814     0.998020982273     1.611483071042     1.007825032230
         H            2.097046643814    -0.829664617727    -1.681092028958     1.007825032230
         H            1.916860243814     1.636430982273    -1.274255928958     1.007825032230
         H            3.295728243814    -0.094388017727     0.826973071042     1.007825032230
         H            0.521648243814    -1.887888017727     1.710837071042     1.007825032230
         H            0.665413243814     3.109454982273     0.682511071042     1.007825032230
         H            2.973416243814    -2.547230017727     0.093981071042     1.007825032230
         H            3.721302243814     2.549329982273    -0.059541928958     1.007825032230
         H            4.639600243814    -0.423690017727    -1.097759928958     1.007825032230
         H           -3.808521756186    -1.522194017727     1.734055071042     1.007825032230
         H           -3.930672756186     1.445684982273     0.248713071042     1.007825032230
         H           -2.229888756186     1.893023982273    -0.059768928958     1.007825032230
         H           -3.800647756186     3.131025982273    -1.603343928958     1.007825032230
         H           -2.717322756186     2.053466982273    -2.505547928958     1.007825032230
         H           -4.401070756186     1.574466982273    -2.213396928958     1.007825032230

  Basis Set: AUG-CC-PVTZ
    Blend: AUG-CC-PVTZ
  Basis Set: (AUG-CC-PVTZ AUX)
    Blend: AUG-CC-PVTZ-JKFIT
	 Reference Energy          =   -1327.8287560629498785 [Eh]
	 Singles Energy            =      -0.0000000000000000 [Eh]
	 Same-Spin Energy          =      -1.0143798627746869 [Eh]
	 Opposite-Spin Energy      =      -3.0751677488677123 [Eh]
	 Correlation Energy        =      -4.0895476116423994 [Eh]
	 Total Energy              =   -1331.9183036745923800 [Eh]

	 ================> DF-SCS-MP2 Energies <==================
	-----------------------------------------------------------
	 SCS Same-Spin Scale       =       0.3333333333333333 [-]
	 SCS Opposite-Spin Scale   =       1.2000000000000000 [-]
	 SCS Same-Spin Energy      =      -0.3381266209248956 [Eh]
	 SCS Opposite-Spin Energy  =      -3.6902012986412545 [Eh]
	 SCS Correlation Energy    =      -4.0283279195661503 [Eh]
	 SCS Total Energy          =   -1331.8570839825160874 [Eh]
	-----------------------------------------------------------

  Dipole Moment: [D]
     X:    -1.1438      Y:     1.8999      Z:     0.6946     Total:     2.3239

*** Psi4 exiting successfully. Buy a developer a beer!
