                               Psi4 1.3.2 release

  ==> Input File <==

--------------------------------------------------------------------------
#psi4
#
memory 32 gb

molecule  {
0 1
  P       -2.2900960    -0.9400430     0.3446780
  O       -0.9821530    -0.2015620     0.9382890
  O        1.3422500    -1.6754830     1.2308510
  O        0.0787050     2.3596040     0.4621680
  O        3.0685150    -2.1870720    -0.8085900
  O        2.8473350     2.5031130     0.3715350
  O        4.1518299     0.4470376    -1.0321288
  O       -2.8268630     0.0333510    -0.8075310
  O       -3.2591210    -0.7232820     1.6216710
  O       -2.1189930    -2.3436440    -0.0996680
  C        0.1181620     0.0300090     0.0163190
  C        0.9532920    -1.2442050    -0.0757250
  C        0.8985890     1.2026440     0.5648510
  C        2.2596600    -1.0143070    -0.8180370
  C        2.1770750     1.3964720    -0.2280410
  C        3.0258420     0.1487050    -0.2103220
  C       -3.1242130     1.4315980    -0.4888860
  C       -3.5363170     2.0851650    -1.7841190
  H       -0.2830920     0.2988010    -0.9702380
  H        0.3702690    -2.0293640    -0.5720320
  H        1.1571200     0.9978770     1.6121560
  H        2.0609340    -0.7886600    -1.8727560
  H        1.9169870     1.6362870    -1.2735830
  H        3.2398632    -0.1018215     0.8389064
  H        0.5217750    -1.8880320     1.7115100
  H        0.6655400     3.1093110     0.6831840
  H        2.9735430    -2.5473740     0.0946540
  H        3.7214290     2.5491860    -0.0588690
  H        4.6397270    -0.4238340    -1.0970870
  H       -3.8083950    -1.5223380     1.7347280
  H       -3.9305460     1.4455410     0.2493860
  H       -2.2297620     1.8928800    -0.0590960
  H       -3.8005210     3.1308820    -1.6026710
  H       -2.7171960     2.0533230    -2.5048750
  H       -4.4009440     1.5743230    -2.2127240
units angstrom
no_reorient  #important for SAPT in psi4, default
symmetry c1  #important for SAPT in psi4, default
}

set PROPERTIES_ORIGIN ["COM"]
properties('MP2/aug-cc-pvtz', properties = ['dipole'])
--------------------------------------------------------------------------

    Molecular point group: c1
  Charge       = 0
  Multiplicity = 1
  Basis Set: AUG-CC-PVTZ
    Blend: AUG-CC-PVTZ
  Basis Set: (AUG-CC-PVTZ AUX)
    Blend: AUG-CC-PVTZ-JKFIT

    Orbital Energies [Eh]
    ---------------------

    Doubly Occupied:

       1A    -80.116652     2A    -20.614503     3A    -20.606658
       4A    -20.598648     5A    -20.583159     6A    -20.579252
       7A    -20.576658     8A    -20.574414     9A    -20.572940
      10A    -20.523143    11A    -11.320221    12A    -11.302604
      13A    -11.299113    14A    -11.297895    15A    -11.297541
      16A    -11.295351    17A    -11.291485    18A    -11.229607
      19A     -7.632102    20A     -5.530609    21A     -5.530235
      22A     -5.529033    23A     -1.459985    24A     -1.410568
      25A     -1.394199    26A     -1.392671    27A     -1.386558
      28A     -1.371787    29A     -1.363676    30A     -1.352573
      31A     -1.303542    32A     -1.118341    33A     -1.040186
      34A     -1.011187    35A     -1.002766    36A     -0.879472
      37A     -0.864474    38A     -0.858184    39A     -0.821616
      40A     -0.810495    41A     -0.751789    42A     -0.745147
      43A     -0.729704    44A     -0.728242    45A     -0.706757
      46A     -0.686488    47A     -0.677654    48A     -0.672516
      49A     -0.664096    50A     -0.660761    51A     -0.642555
      52A     -0.631795    53A     -0.626627    54A     -0.614722
      55A     -0.603102    56A     -0.597642    57A     -0.581162
      58A     -0.575283    59A     -0.571075    60A     -0.559410
      61A     -0.557538    62A     -0.548272    63A     -0.540863
      64A     -0.535716    65A     -0.529395    66A     -0.520664
      67A     -0.512787    68A     -0.506408    69A     -0.496748
      70A     -0.484663    71A     -0.479560    72A     -0.476404
      73A     -0.461988    74A     -0.456531    75A     -0.449536
      76A     -0.434499

  @DF-RHF Final Energy: -1327.85700533729255

   => Energetics <=

    Nuclear Repulsion Energy =           1773.0381633316740135
    One-Electron Energy =               -5358.2659283564662474
    Two-Electron Energy =                2257.3707596874996852
    Total Energy =                      -1327.8570053372927759
  Basis Set: (AUG-CC-PVTZ AUX)
    Blend: AUG-CC-PVTZ-RI
    Molecular point group: c1

    Geometry (in Angstrom), charge = 0, multiplicity = 1:

       Center              X                  Y                   Z               Mass
    ------------   -----------------  -----------------  -----------------  -----------------
         P           -2.287464800669    -0.940663836418     0.347928784496    30.973761998420
         O           -0.979521800669    -0.202182836418     0.941539784496    15.994914619570
         O            1.344881199331    -1.676103836418     1.234101784496    15.994914619570
         O            0.081336199331     2.358983163582     0.465418784496    15.994914619570
         O            3.071146199331    -2.187692836418    -0.805339215504    15.994914619570
         O            2.849966199331     2.502492163582     0.374785784496    15.994914619570
         O            4.154461099331     0.446416763582    -1.028878015504    15.994914619570
         O           -2.824231800669     0.032730163582    -0.804280215504    15.994914619570
         O           -3.256489800669    -0.723902836418     1.624921784496    15.994914619570
         O           -2.116361800669    -2.344264836418    -0.096417215504    15.994914619570
         C            0.120793199331     0.029388163582     0.019569784496    12.000000000000
         C            0.955923199331    -1.244825836418    -0.072474215504    12.000000000000
         C            0.901220199331     1.202023163582     0.568101784496    12.000000000000
         C            2.262291199331    -1.014927836418    -0.814786215504    12.000000000000
         C            2.179706199331     1.395851163582    -0.224790215504    12.000000000000
         C            3.028473199331     0.148084163582    -0.207071215504    12.000000000000
         C           -3.121581800669     1.430977163582    -0.485635215504    12.000000000000
         C           -3.533685800669     2.084544163582    -1.780868215504    12.000000000000
         H           -0.280460800669     0.298180163582    -0.966987215504     1.007825032230
         H            0.372900199331    -2.029984836418    -0.568781215504     1.007825032230
         H            1.159751199331     0.997256163582     1.615406784496     1.007825032230
         H            2.063565199331    -0.789280836418    -1.869505215504     1.007825032230
         H            1.919618199331     1.635666163582    -1.270332215504     1.007825032230
         H            3.242494399331    -0.102442336418     0.842157184496     1.007825032230
         H            0.524406199331    -1.888652836418     1.714760784496     1.007825032230
         H            0.668171199331     3.108690163582     0.686434784496     1.007825032230
         H            2.976174199331    -2.547994836418     0.097904784496     1.007825032230
         H            3.724060199331     2.548565163582    -0.055618215504     1.007825032230
         H            4.642358199331    -0.424454836418    -1.093836215504     1.007825032230
         H           -3.805763800669    -1.522958836418     1.737978784496     1.007825032230
         H           -3.927914800669     1.444920163582     0.252636784496     1.007825032230
         H           -2.227130800669     1.892259163582    -0.055845215504     1.007825032230
         H           -3.797889800669     3.130261163582    -1.599420215504     1.007825032230
         H           -2.714564800669     2.052702163582    -2.501624215504     1.007825032230
         H           -4.398312800669     1.573702163582    -2.209473215504     1.007825032230

  Basis Set: AUG-CC-PVTZ
    Blend: AUG-CC-PVTZ
  Basis Set: (AUG-CC-PVTZ AUX)
    Blend: AUG-CC-PVTZ-JKFIT
	 Reference Energy          =   -1327.8570053372925486 [Eh]
	 Singles Energy            =      -0.0000000000000000 [Eh]
	 Same-Spin Energy          =      -1.0152789517713761 [Eh]
	 Opposite-Spin Energy      =      -3.0774850513404681 [Eh]
	 Correlation Energy        =      -4.0927640031118440 [Eh]
	 Total Energy              =   -1331.9497693404043730 [Eh]

	 ================> DF-SCS-MP2 Energies <==================
	-----------------------------------------------------------
	 SCS Same-Spin Scale       =       0.3333333333333333 [-]
	 SCS Opposite-Spin Scale   =       1.2000000000000000 [-]
	 SCS Same-Spin Energy      =      -0.3384263172571254 [Eh]
	 SCS Opposite-Spin Energy  =      -3.6929820616085616 [Eh]
	 SCS Correlation Energy    =      -4.0314083788656871 [Eh]
	 SCS Total Energy          =   -1331.8884137161583112 [Eh]
	-----------------------------------------------------------

  Dipole Moment: [D]
     X:    -0.9866      Y:     1.8575      Z:     0.8154     Total:     2.2557

*** Psi4 exiting successfully. Buy a developer a beer!
