                               Psi4 1.3.2 release

  ==> Input File <==

--------------------------------------------------------------------------
#psi4
#
memory 32 gb

molecule  {
0 1
  P       -2.2900960    -0.9400430     0.3446780
  O       -0.9821530    -0.2015620     0.9382890
  O        1.3422500    -1.6754830     1.2308510
  O        0.0787050     2.3596040     0.4621680
  O        3.0685150    -2.1870720    -0.8085900
  O        2.8473350     2.5031130     0.3715350
  O        4.1956880     0.4353970    -0.9728740
  O       -2.8268630     0.0333510    -0.8075310
  O       -3.2591210    -0.7232820     1.6216710
  O       -2.1189930    -2.3436440    -0.0996680
  C        0.1181620     0.0300090     0.0163190
  C        0.9532920    -1.2442050    -0.0757250
  C        0.8985890     1.2026440     0.5648510
  C        2.2596600    -1.0143070    -0.8180370
  C        2.1911093     1.3923826    -0.2059694
  C        3.0258420     0.1487050    -0.2103220
  C       -3.1242130     1.4315980    -0.4888860
  C       -3.5363170     2.0851650    -1.7841190
  H       -0.2830920     0.2988010    -0.9702380
  H        0.3702690    -2.0293640    -0.5720320
  H        1.1756981     0.9992728     1.6076675
  H        2.0609340    -0.7886600    -1.8727560
  H        1.9169870     1.6362870    -1.2735830
  H        3.2958550    -0.0945320     0.8276460
  H        0.5217750    -1.8880320     1.7115100
  H        0.6655400     3.1093110     0.6831840
  H        2.9735430    -2.5473740     0.0946540
  H        3.7214290     2.5491860    -0.0588690
  H        4.6397270    -0.4238340    -1.0970870
  H       -3.8083950    -1.5223380     1.7347280
  H       -3.9305460     1.4455410     0.2493860
  H       -2.2297620     1.8928800    -0.0590960
  H       -3.8005210     3.1308820    -1.6026710
  H       -2.7171960     2.0533230    -2.5048750
  H       -4.4009440     1.5743230    -2.2127240
units angstrom
no_reorient  #important for SAPT in psi4, default
symmetry c1  #important for SAPT in psi4, default
}

set PROPERTIES_ORIGIN ["COM"]
properties('MP2/aug-cc-pvtz', properties = ['dipole'])
--------------------------------------------------------------------------

    Molecular point group: c1
  Charge       = 0
  Multiplicity = 1
  Basis Set: AUG-CC-PVTZ
    Blend: AUG-CC-PVTZ
  Basis Set: (AUG-CC-PVTZ AUX)
    Blend: AUG-CC-PVTZ-JKFIT

    Orbital Energies [Eh]
    ---------------------

    Doubly Occupied:

       1A    -80.116891     2A    -20.614688     3A    -20.606982
       4A    -20.598879     5A    -20.583104     6A    -20.578403
       7A    -20.574865     8A    -20.574363     9A    -20.574200
      10A    -20.523387    11A    -11.320993    12A    -11.303543
      13A    -11.299708    14A    -11.299343    15A    -11.298662
      16A    -11.297366    17A    -11.291095    18A    -11.229781
      19A     -7.632342    20A     -5.530847    21A     -5.530475
      22A     -5.529273    23A     -1.460232    24A     -1.411513
      25A     -1.396856    26A     -1.393408    27A     -1.386815
      28A     -1.372974    29A     -1.365351    30A     -1.355173
      31A     -1.303784    32A     -1.119396    33A     -1.040408
      34A     -1.012991    35A     -1.003555    36A     -0.880519
      37A     -0.864978    38A     -0.859542    39A     -0.822320
      40A     -0.809335    41A     -0.752042    42A     -0.745661
      43A     -0.731157    44A     -0.728517    45A     -0.709342
      46A     -0.687002    47A     -0.678217    48A     -0.673654
      49A     -0.664084    50A     -0.661490    51A     -0.644253
      52A     -0.635083    53A     -0.627179    54A     -0.615468
      55A     -0.603546    56A     -0.598330    57A     -0.581652
      58A     -0.575544    59A     -0.571212    60A     -0.559799
      61A     -0.556948    62A     -0.548407    63A     -0.541103
      64A     -0.537226    65A     -0.529731    66A     -0.522493
      67A     -0.512892    68A     -0.504460    69A     -0.497374
      70A     -0.485264    71A     -0.479819    72A     -0.476603
      73A     -0.460922    74A     -0.455189    75A     -0.448100
      76A     -0.437124

  @DF-RHF Final Energy: -1327.86052884754690

   => Energetics <=

    Nuclear Repulsion Energy =           1772.5785720130952541
    One-Electron Energy =               -5357.2677489513980618
    Two-Electron Energy =                2256.8286480907559053
    Total Energy =                      -1327.8605288475469024
  Basis Set: (AUG-CC-PVTZ AUX)
    Blend: AUG-CC-PVTZ-RI
    Molecular point group: c1

    Geometry (in Angstrom), charge = 0, multiplicity = 1:

       Center              X                  Y                   Z               Mass
    ------------   -----------------  -----------------  -----------------  -----------------
         P           -2.290745604089    -0.939877510170     0.343774239273    30.973761998420
         O           -0.982802604089    -0.201396510170     0.937385239273    15.994914619570
         O            1.341600395911    -1.675317510170     1.229947239273    15.994914619570
         O            0.078055395911     2.359769489830     0.461264239273    15.994914619570
         O            3.067865395911    -2.186906510170    -0.809493760727    15.994914619570
         O            2.846685395911     2.503278489830     0.370631239273    15.994914619570
         O            4.195038395911     0.435562489830    -0.973777760727    15.994914619570
         O           -2.827512604089     0.033516489830    -0.808434760727    15.994914619570
         O           -3.259770604089    -0.723116510170     1.620767239273    15.994914619570
         O           -2.119642604089    -2.343478510170    -0.100571760727    15.994914619570
         C            0.117512395911     0.030174489830     0.015415239273    12.000000000000
         C            0.952642395911    -1.244039510170    -0.076628760727    12.000000000000
         C            0.897939395911     1.202809489830     0.563947239273    12.000000000000
         C            2.259010395911    -1.014141510170    -0.818940760727    12.000000000000
         C            2.190459695911     1.392548089830    -0.206873160727    12.000000000000
         C            3.025192395911     0.148870489830    -0.211225760727    12.000000000000
         C           -3.124862604089     1.431763489830    -0.489789760727    12.000000000000
         C           -3.536966604089     2.085330489830    -1.785022760727    12.000000000000
         H           -0.283741604089     0.298966489830    -0.971141760727     1.007825032230
         H            0.369619395911    -2.029198510170    -0.572935760727     1.007825032230
         H            1.175048495911     0.999438289830     1.606763739273     1.007825032230
         H            2.060284395911    -0.788494510170    -1.873659760727     1.007825032230
         H            1.916337395911     1.636452489830    -1.274486760727     1.007825032230
         H            3.295205395911    -0.094366510170     0.826742239273     1.007825032230
         H            0.521125395911    -1.887866510170     1.710606239273     1.007825032230
         H            0.664890395911     3.109476489830     0.682280239273     1.007825032230
         H            2.972893395911    -2.547208510170     0.093750239273     1.007825032230
         H            3.720779395911     2.549351489830    -0.059772760727     1.007825032230
         H            4.639077395911    -0.423668510170    -1.097990760727     1.007825032230
         H           -3.809044604089    -1.522172510170     1.733824239273     1.007825032230
         H           -3.931195604089     1.445706489830     0.248482239273     1.007825032230
         H           -2.230411604089     1.893045489830    -0.059999760727     1.007825032230
         H           -3.801170604089     3.131047489830    -1.603574760727     1.007825032230
         H           -2.717845604089     2.053488489830    -2.505778760727     1.007825032230
         H           -4.401593604089     1.574488489830    -2.213627760727     1.007825032230

  Basis Set: AUG-CC-PVTZ
    Blend: AUG-CC-PVTZ
  Basis Set: (AUG-CC-PVTZ AUX)
    Blend: AUG-CC-PVTZ-JKFIT
	 Reference Energy          =   -1327.8605288475469024 [Eh]
	 Singles Energy            =      -0.0000000000000000 [Eh]
	 Same-Spin Energy          =      -1.0147332894475098 [Eh]
	 Opposite-Spin Energy      =      -3.0760791908020386 [Eh]
	 Correlation Energy        =      -4.0908124802495482 [Eh]
	 Total Energy              =   -1331.9513413277963991 [Eh]

	 ================> DF-SCS-MP2 Energies <==================
	-----------------------------------------------------------
	 SCS Same-Spin Scale       =       0.3333333333333333 [-]
	 SCS Opposite-Spin Scale   =       1.2000000000000000 [-]
	 SCS Same-Spin Energy      =      -0.3382444298158366 [Eh]
	 SCS Opposite-Spin Energy  =      -3.6912950289624460 [Eh]
	 SCS Correlation Energy    =      -4.0295394587782827 [Eh]
	 SCS Total Energy          =   -1331.8900683063252472 [Eh]
	-----------------------------------------------------------

  Dipole Moment: [D]
     X:    -1.0808      Y:     1.8808      Z:     0.7576     Total:     2.2978

*** Psi4 exiting successfully. Buy a developer a beer!
