                               Psi4 1.3.2 release

  ==> Input File <==

--------------------------------------------------------------------------
#psi4
#
memory 32 gb

molecule  {
0 1
  P       -2.2900960    -0.9400430     0.3446780
  O       -0.9821530    -0.2015620     0.9382890
  O        1.3422500    -1.6754830     1.2308510
  O        0.0787050     2.3596040     0.4621680
  O        3.0685150    -2.1870720    -0.8085900
  O        2.8473350     2.5031130     0.3715350
  O        4.1956880     0.4353970    -0.9728740
  O       -2.8271204     0.0225800    -0.8164258
  O       -3.2591210    -0.7232820     1.6216710
  O       -2.1230789    -2.3403409    -0.1114871
  C        0.1181620     0.0300090     0.0163190
  C        0.9532920    -1.2442050    -0.0757250
  C        0.8985890     1.2026440     0.5648510
  C        2.2596600    -1.0143070    -0.8180370
  C        2.1770750     1.3964720    -0.2280410
  C        3.0258420     0.1487050    -0.2103220
  C       -3.1242130     1.4315980    -0.4888860
  C       -3.5363170     2.0851650    -1.7841190
  H       -0.2830920     0.2988010    -0.9702380
  H        0.3702690    -2.0293640    -0.5720320
  H        1.1571200     0.9978770     1.6121560
  H        2.0609340    -0.7886600    -1.8727560
  H        1.9169870     1.6362870    -1.2735830
  H        3.2958550    -0.0945320     0.8276460
  H        0.5217750    -1.8880320     1.7115100
  H        0.6655400     3.1093110     0.6831840
  H        2.9735430    -2.5473740     0.0946540
  H        3.7214290     2.5491860    -0.0588690
  H        4.6397270    -0.4238340    -1.0970870
  H       -3.8083950    -1.5223380     1.7347280
  H       -3.9305460     1.4455410     0.2493860
  H       -2.2297620     1.8928800    -0.0590960
  H       -3.8005210     3.1308820    -1.6026710
  H       -2.7171960     2.0533230    -2.5048750
  H       -4.4009440     1.5743230    -2.2127240
units angstrom
no_reorient  #important for SAPT in psi4, default
symmetry c1  #important for SAPT in psi4, default
}

set PROPERTIES_ORIGIN ["COM"]
properties('MP2/aug-cc-pvtz', properties = ['dipole'])
--------------------------------------------------------------------------

    Molecular point group: c1
  Charge       = 0
  Multiplicity = 1
  Basis Set: AUG-CC-PVTZ
    Blend: AUG-CC-PVTZ
  Basis Set: (AUG-CC-PVTZ AUX)
    Blend: AUG-CC-PVTZ-JKFIT

    Orbital Energies [Eh]
    ---------------------

    Doubly Occupied:

       1A    -80.116170     2A    -20.615209     3A    -20.607510
       4A    -20.598595     5A    -20.583219     6A    -20.576885
       7A    -20.574624     8A    -20.574140     9A    -20.573673
      10A    -20.522062    11A    -11.320831    12A    -11.303548
      13A    -11.300528    14A    -11.299372    15A    -11.298758
      16A    -11.296785    17A    -11.291494    18A    -11.230242
      19A     -7.631675    20A     -5.530176    21A     -5.529768
      22A     -5.528627    23A     -1.459635    24A     -1.410793
      25A     -1.394815    26A     -1.393148    27A     -1.384837
      28A     -1.372663    29A     -1.364057    30A     -1.353908
      31A     -1.302547    32A     -1.119144    33A     -1.040537
      34A     -1.012145    35A     -1.003521    36A     -0.879865
      37A     -0.864224    38A     -0.859144    39A     -0.822408
      40A     -0.810709    41A     -0.751803    42A     -0.745155
      43A     -0.731280    44A     -0.727728    45A     -0.707967
      46A     -0.687009    47A     -0.677934    48A     -0.673123
      49A     -0.662331    50A     -0.660721    51A     -0.643212
      52A     -0.635057    53A     -0.626829    54A     -0.614696
      55A     -0.603756    56A     -0.598532    57A     -0.581394
      58A     -0.575247    59A     -0.571084    60A     -0.559313
      61A     -0.556531    62A     -0.548354    63A     -0.540810
      64A     -0.536576    65A     -0.530005    66A     -0.521857
      67A     -0.513920    68A     -0.504520    69A     -0.497458
      70A     -0.485148    71A     -0.479774    72A     -0.475617
      73A     -0.462289    74A     -0.455970    75A     -0.450135
      76A     -0.436281

  @DF-RHF Final Energy: -1327.86089617924040

   => Energetics <=

    Nuclear Repulsion Energy =           1772.1678210885067983
    One-Electron Energy =               -5356.4946163623626489
    Two-Electron Energy =                2256.4658990946154518
    Total Energy =                      -1327.8608961792406262
  Basis Set: (AUG-CC-PVTZ AUX)
    Blend: AUG-CC-PVTZ-RI
    Molecular point group: c1

    Geometry (in Angstrom), charge = 0, multiplicity = 1:

       Center              X                  Y                   Z               Mass
    ------------   -----------------  -----------------  -----------------  -----------------
         P           -2.289854800510    -0.939628318713     0.345828153548    30.973761998420
         O           -0.981911800510    -0.201147318713     0.939439153548    15.994914619570
         O            1.342491199490    -1.675068318713     1.232001153548    15.994914619570
         O            0.078946199490     2.360018681287     0.463318153548    15.994914619570
         O            3.068756199490    -2.186657318713    -0.807439846452    15.994914619570
         O            2.847576199490     2.503527681287     0.372685153548    15.994914619570
         O            4.195929199490     0.435811681287    -0.971723846452    15.994914619570
         O           -2.826879200510     0.022994681287    -0.815275646452    15.994914619570
         O           -3.258879800510    -0.722867318713     1.622821153548    15.994914619570
         O           -2.122837700510    -2.339926218713    -0.110336946452    15.994914619570
         C            0.118403199490     0.030423681287     0.017469153548    12.000000000000
         C            0.953533199490    -1.243790318713    -0.074574846452    12.000000000000
         C            0.898830199490     1.203058681287     0.566001153548    12.000000000000
         C            2.259901199490    -1.013892318713    -0.816886846452    12.000000000000
         C            2.177316199490     1.396886681287    -0.226890846452    12.000000000000
         C            3.026083199490     0.149119681287    -0.209171846452    12.000000000000
         C           -3.123971800510     1.432012681287    -0.487735846452    12.000000000000
         C           -3.536075800510     2.085579681287    -1.782968846452    12.000000000000
         H           -0.282850800510     0.299215681287    -0.969087846452     1.007825032230
         H            0.370510199490    -2.028949318713    -0.570881846452     1.007825032230
         H            1.157361199490     0.998291681287     1.613306153548     1.007825032230
         H            2.061175199490    -0.788245318713    -1.871605846452     1.007825032230
         H            1.917228199490     1.636701681287    -1.272432846452     1.007825032230
         H            3.296096199490    -0.094117318713     0.828796153548     1.007825032230
         H            0.522016199490    -1.887617318713     1.712660153548     1.007825032230
         H            0.665781199490     3.109725681287     0.684334153548     1.007825032230
         H            2.973784199490    -2.546959318713     0.095804153548     1.007825032230
         H            3.721670199490     2.549600681287    -0.057718846452     1.007825032230
         H            4.639968199490    -0.423419318713    -1.095936846452     1.007825032230
         H           -3.808153800510    -1.521923318713     1.735878153548     1.007825032230
         H           -3.930304800510     1.445955681287     0.250536153548     1.007825032230
         H           -2.229520800510     1.893294681287    -0.057945846452     1.007825032230
         H           -3.800279800510     3.131296681287    -1.601520846452     1.007825032230
         H           -2.716954800510     2.053737681287    -2.503724846452     1.007825032230
         H           -4.400702800510     1.574737681287    -2.211573846452     1.007825032230

  Basis Set: AUG-CC-PVTZ
    Blend: AUG-CC-PVTZ
  Basis Set: (AUG-CC-PVTZ AUX)
    Blend: AUG-CC-PVTZ-JKFIT
	 Reference Energy          =   -1327.8608961792403989 [Eh]
	 Singles Energy            =      -0.0000000000000000 [Eh]
	 Same-Spin Energy          =      -1.0146558839951560 [Eh]
	 Opposite-Spin Energy      =      -3.0763662570876997 [Eh]
	 Correlation Energy        =      -4.0910221410828562 [Eh]
	 Total Energy              =   -1331.9519183203233297 [Eh]

	 ================> DF-SCS-MP2 Energies <==================
	-----------------------------------------------------------
	 SCS Same-Spin Scale       =       0.3333333333333333 [-]
	 SCS Opposite-Spin Scale   =       1.2000000000000000 [-]
	 SCS Same-Spin Energy      =      -0.3382186279983853 [Eh]
	 SCS Opposite-Spin Energy  =      -3.6916395085052396 [Eh]
	 SCS Correlation Energy    =      -4.0298581365036252 [Eh]
	 SCS Total Energy          =   -1331.8907543157440614 [Eh]
	-----------------------------------------------------------

  Dipole Moment: [D]
     X:    -1.1081      Y:     1.9087      Z:     0.7626     Total:     2.3351

*** Psi4 exiting successfully. Buy a developer a beer!
