                               Psi4 1.3.2 release

  ==> Input File <==

--------------------------------------------------------------------------
#psi4
#
memory 32 gb

molecule  {
0 1
  P       -2.2900960    -0.9400430     0.3446780
  O       -0.9821530    -0.2015620     0.9382890
  O        1.3422500    -1.6754830     1.2308510
  O        0.0787050     2.3596040     0.4621680
  O        3.0685150    -2.1870720    -0.8085900
  O        2.8473350     2.5031130     0.3715350
  O        4.1956880     0.4353970    -0.9728740
  O       -2.8268630     0.0333510    -0.8075310
  O       -3.2591210    -0.7232820     1.6216710
  O       -2.1189930    -2.3436440    -0.0996680
  C        0.1181620     0.0300090     0.0163190
  C        1.0152183    -1.2032464    -0.0461848
  C        0.9616091     1.1551670     0.5709746
  C        2.2596600    -1.0143070    -0.8180370
  C        2.1770750     1.3964720    -0.2280410
  C        3.0258420     0.1487050    -0.2103220
  C       -3.1242130     1.4315980    -0.4888860
  C       -3.5363170     2.0851650    -1.7841190
  H       -0.2830920     0.2988010    -0.9702380
  H        0.3702690    -2.0293640    -0.5720320
  H        1.1571200     0.9978770     1.6121560
  H        2.0609340    -0.7886600    -1.8727560
  H        1.9169870     1.6362870    -1.2735830
  H        3.2958550    -0.0945320     0.8276460
  H        0.5217750    -1.8880320     1.7115100
  H        0.6655400     3.1093110     0.6831840
  H        2.9735430    -2.5473740     0.0946540
  H        3.7214290     2.5491860    -0.0588690
  H        4.6397270    -0.4238340    -1.0970870
  H       -3.8083950    -1.5223380     1.7347280
  H       -3.9305460     1.4455410     0.2493860
  H       -2.2297620     1.8928800    -0.0590960
  H       -3.8005210     3.1308820    -1.6026710
  H       -2.7171960     2.0533230    -2.5048750
  H       -4.4009440     1.5743230    -2.2127240
units angstrom
no_reorient  #important for SAPT in psi4, default
symmetry c1  #important for SAPT in psi4, default
}

set PROPERTIES_ORIGIN ["COM"]
properties('MP2/aug-cc-pvtz', properties = ['dipole'])
--------------------------------------------------------------------------

    Molecular point group: c1
  Charge       = 0
  Multiplicity = 1
  Basis Set: AUG-CC-PVTZ
    Blend: AUG-CC-PVTZ
  Basis Set: (AUG-CC-PVTZ AUX)
    Blend: AUG-CC-PVTZ-JKFIT

    Orbital Energies [Eh]
    ---------------------

    Doubly Occupied:

       1A    -80.117453     2A    -20.615026     3A    -20.609892
       4A    -20.598786     5A    -20.586336     6A    -20.578555
       7A    -20.576893     8A    -20.574738     9A    -20.564618
      10A    -20.523039    11A    -11.323361    12A    -11.305853
      13A    -11.299625    14A    -11.298651    15A    -11.298330
      16A    -11.297570    17A    -11.292413    18A    -11.229066
      19A     -7.632862    20A     -5.531366    21A     -5.531010
      22A     -5.529781    23A     -1.460872    24A     -1.416402
      25A     -1.396507    26A     -1.392279    27A     -1.386566
      28A     -1.374473    29A     -1.360001    30A     -1.340956
      31A     -1.303338    32A     -1.130930    33A     -1.039731
      34A     -1.014107    35A     -1.012505    36A     -0.882059
      37A     -0.865106    38A     -0.855982    39A     -0.823824
      40A     -0.818049    41A     -0.753203    42A     -0.746218
      43A     -0.730778    44A     -0.727179    45A     -0.709981
      46A     -0.688834    47A     -0.677622    48A     -0.672136
      49A     -0.663330    50A     -0.661503    51A     -0.642111
      52A     -0.632487    53A     -0.628811    54A     -0.617476
      55A     -0.603975    56A     -0.596787    57A     -0.577157
      58A     -0.575217    59A     -0.571880    60A     -0.555936
      61A     -0.554543    62A     -0.547816    63A     -0.541215
      64A     -0.535917    65A     -0.532558    66A     -0.524185
      67A     -0.514396    68A     -0.505808    69A     -0.497159
      70A     -0.488950    71A     -0.478844    72A     -0.476331
      73A     -0.470533    74A     -0.456463    75A     -0.449739
      76A     -0.426185

  @DF-RHF Final Energy: -1327.84569539994959

   => Energetics <=

    Nuclear Repulsion Energy =           1773.4297933862076206
    One-Electron Energy =               -5358.9066236610524356
    Two-Electron Energy =                2257.6311348748949968
    Total Energy =                      -1327.8456953999498182
  Basis Set: (AUG-CC-PVTZ AUX)
    Blend: AUG-CC-PVTZ-RI
    Molecular point group: c1

    Geometry (in Angstrom), charge = 0, multiplicity = 1:

       Center              X                  Y                   Z               Mass
    ------------   -----------------  -----------------  -----------------  -----------------
         P           -2.295300964373    -0.939771439858     0.343192313876    30.973761998420
         O           -0.987357964373    -0.201290439858     0.936803313876    15.994914619570
         O            1.337045035627    -1.675211439858     1.229365313876    15.994914619570
         O            0.073500035627     2.359875560142     0.460682313876    15.994914619570
         O            3.063310035627    -2.186800439858    -0.810075686124    15.994914619570
         O            2.842130035627     2.503384560142     0.370049313876    15.994914619570
         O            4.190483035627     0.435668560142    -0.974359686124    15.994914619570
         O           -2.832067964373     0.033622560142    -0.809016686124    15.994914619570
         O           -3.264325964373    -0.723010439858     1.620185313876    15.994914619570
         O           -2.124197964373    -2.343372439858    -0.101153686124    15.994914619570
         C            0.112957035627     0.030280560142     0.014833313876    12.000000000000
         C            1.010013335627    -1.202974839858    -0.047670486124    12.000000000000
         C            0.956404135627     1.155438560142     0.569488913876    12.000000000000
         C            2.254455035627    -1.014035439858    -0.819522686124    12.000000000000
         C            2.171870035627     1.396743560142    -0.229526686124    12.000000000000
         C            3.020637035627     0.148976560142    -0.211807686124    12.000000000000
         C           -3.129417964373     1.431869560142    -0.490371686124    12.000000000000
         C           -3.541521964373     2.085436560142    -1.785604686124    12.000000000000
         H           -0.288296964373     0.299072560142    -0.971723686124     1.007825032230
         H            0.365064035627    -2.029092439858    -0.573517686124     1.007825032230
         H            1.151915035627     0.998148560142     1.610670313876     1.007825032230
         H            2.055729035627    -0.788388439858    -1.874241686124     1.007825032230
         H            1.911782035627     1.636558560142    -1.275068686124     1.007825032230
         H            3.290650035627    -0.094260439858     0.826160313876     1.007825032230
         H            0.516570035627    -1.887760439858     1.710024313876     1.007825032230
         H            0.660335035627     3.109582560142     0.681698313876     1.007825032230
         H            2.968338035627    -2.547102439858     0.093168313876     1.007825032230
         H            3.716224035627     2.549457560142    -0.060354686124     1.007825032230
         H            4.634522035627    -0.423562439858    -1.098572686124     1.007825032230
         H           -3.813599964373    -1.522066439858     1.733242313876     1.007825032230
         H           -3.935750964373     1.445812560142     0.247900313876     1.007825032230
         H           -2.234966964373     1.893151560142    -0.060581686124     1.007825032230
         H           -3.805725964373     3.131153560142    -1.604156686124     1.007825032230
         H           -2.722400964373     2.053594560142    -2.506360686124     1.007825032230
         H           -4.406148964373     1.574594560142    -2.214209686124     1.007825032230

  Basis Set: AUG-CC-PVTZ
    Blend: AUG-CC-PVTZ
  Basis Set: (AUG-CC-PVTZ AUX)
    Blend: AUG-CC-PVTZ-JKFIT
	 Reference Energy          =   -1327.8456953999495909 [Eh]
	 Singles Energy            =      -0.0000000000000000 [Eh]
	 Same-Spin Energy          =      -1.0159135621787252 [Eh]
	 Opposite-Spin Energy      =      -3.0783950391493149 [Eh]
	 Correlation Energy        =      -4.0943086013280396 [Eh]
	 Total Energy              =   -1331.9400040012776572 [Eh]

	 ================> DF-SCS-MP2 Energies <==================
	-----------------------------------------------------------
	 SCS Same-Spin Scale       =       0.3333333333333333 [-]
	 SCS Opposite-Spin Scale   =       1.2000000000000000 [-]
	 SCS Same-Spin Energy      =      -0.3386378540595750 [Eh]
	 SCS Opposite-Spin Energy  =      -3.6940740469791775 [Eh]
	 SCS Correlation Energy    =      -4.0327119010387529 [Eh]
	 SCS Total Energy          =   -1331.8784073009883286 [Eh]
	-----------------------------------------------------------

  Dipole Moment: [D]
     X:    -0.9270      Y:     1.6857      Z:     0.7925     Total:     2.0807

*** Psi4 exiting successfully. Buy a developer a beer!
