                               Psi4 1.3.2 release

  ==> Input File <==

--------------------------------------------------------------------------
#psi4
#
memory 32 gb

molecule  {
0 1
  P       -2.2900960    -0.9400430     0.3446780
  O       -0.9821530    -0.2015620     0.9382890
  O        1.3542414    -1.6948461     1.2206515
  O        0.0787050     2.3596040     0.4621680
  O        3.0685150    -2.1870720    -0.8085900
  O        2.8473350     2.5031130     0.3715350
  O        4.1956880     0.4353970    -0.9728740
  O       -2.8268630     0.0333510    -0.8075310
  O       -3.2591210    -0.7232820     1.6216710
  O       -2.1189930    -2.3436440    -0.0996680
  C        0.1159344     0.0301880    -0.0102254
  C        0.9532920    -1.2442050    -0.0757250
  C        0.8985890     1.2026440     0.5648510
  C        2.2596600    -1.0143070    -0.8180370
  C        2.1770750     1.3964720    -0.2280410
  C        3.0258420     0.1487050    -0.2103220
  C       -3.1242130     1.4315980    -0.4888860
  C       -3.5363170     2.0851650    -1.7841190
  H       -0.2830920     0.2988010    -0.9702380
  H        0.3702690    -2.0293640    -0.5720320
  H        1.1571200     0.9978770     1.6121560
  H        2.0609340    -0.7886600    -1.8727560
  H        1.9169870     1.6362870    -1.2735830
  H        3.2958550    -0.0945320     0.8276460
  H        0.5217750    -1.8880320     1.7115100
  H        0.6655400     3.1093110     0.6831840
  H        2.9735430    -2.5473740     0.0946540
  H        3.7214290     2.5491860    -0.0588690
  H        4.6397270    -0.4238340    -1.0970870
  H       -3.8083950    -1.5223380     1.7347280
  H       -3.9305460     1.4455410     0.2493860
  H       -2.2297620     1.8928800    -0.0590960
  H       -3.8005210     3.1308820    -1.6026710
  H       -2.7171960     2.0533230    -2.5048750
  H       -4.4009440     1.5743230    -2.2127240
units angstrom
no_reorient  #important for SAPT in psi4, default
symmetry c1  #important for SAPT in psi4, default
}

set PROPERTIES_ORIGIN ["COM"]
properties('MP2/aug-cc-pvtz', properties = ['dipole'])
--------------------------------------------------------------------------

    Molecular point group: c1
  Charge       = 0
  Multiplicity = 1
  Basis Set: AUG-CC-PVTZ
    Blend: AUG-CC-PVTZ
  Basis Set: (AUG-CC-PVTZ AUX)
    Blend: AUG-CC-PVTZ-JKFIT

    Orbital Energies [Eh]
    ---------------------

    Doubly Occupied:

       1A    -80.116036     2A    -20.614203     3A    -20.606423
       4A    -20.598859     5A    -20.585362     6A    -20.576950
       7A    -20.574118     8A    -20.573895     9A    -20.573846
      10A    -20.522988    11A    -11.321301    12A    -11.303753
      13A    -11.299942    14A    -11.299488    15A    -11.298968
      16A    -11.296735    17A    -11.291494    18A    -11.230035
      19A     -7.631549    20A     -5.530063    21A     -5.529665
      22A     -5.528476    23A     -1.458697    24A     -1.409887
      25A     -1.393835    26A     -1.392232    27A     -1.386599
      28A     -1.371807    29A     -1.363420    30A     -1.353469
      31A     -1.303304    32A     -1.119227    33A     -1.040548
      34A     -1.012383    35A     -1.002849    36A     -0.879093
      37A     -0.865066    38A     -0.858507    39A     -0.822234
      40A     -0.812014    41A     -0.751642    42A     -0.745901
      43A     -0.731229    44A     -0.727151    45A     -0.707794
      46A     -0.687336    47A     -0.675961    48A     -0.674246
      49A     -0.662002    50A     -0.660634    51A     -0.642556
      52A     -0.634426    53A     -0.626629    54A     -0.615621
      55A     -0.602971    56A     -0.598037    57A     -0.581875
      58A     -0.575047    59A     -0.571670    60A     -0.559721
      61A     -0.556739    62A     -0.549318    63A     -0.541204
      64A     -0.536681    65A     -0.531493    66A     -0.521139
      67A     -0.513162    68A     -0.504816    69A     -0.496433
      70A     -0.486702    71A     -0.479710    72A     -0.476469
      73A     -0.462090    74A     -0.456092    75A     -0.450551
      76A     -0.435774

  @DF-RHF Final Energy: -1327.85929351621689

   => Energetics <=

    Nuclear Repulsion Energy =           1771.8740166716256681
    One-Electron Energy =               -5355.9063445115716604
    Two-Electron Energy =                2256.1730343237290981
    Total Energy =                      -1327.8592935162168942
  Basis Set: (AUG-CC-PVTZ AUX)
    Blend: AUG-CC-PVTZ-RI
    Molecular point group: c1

    Geometry (in Angstrom), charge = 0, multiplicity = 1:

       Center              X                  Y                   Z               Mass
    ------------   -----------------  -----------------  -----------------  -----------------
         P           -2.290669006238    -0.938975281003     0.346350111951    30.973761998420
         O           -0.982726006238    -0.200494281003     0.939961111951    15.994914619570
         O            1.353668393762    -1.693778381003     1.222323611951    15.994914619570
         O            0.078131993762     2.360671718997     0.463840111951    15.994914619570
         O            3.067941993762    -2.186004281003    -0.806917888049    15.994914619570
         O            2.846761993762     2.504180718997     0.373207111951    15.994914619570
         O            4.195114993762     0.436464718997    -0.971201888049    15.994914619570
         O           -2.827436006238     0.034418718997    -0.805858888049    15.994914619570
         O           -3.259694006238    -0.722214281003     1.623343111951    15.994914619570
         O           -2.119566006238    -2.342576281003    -0.097995888049    15.994914619570
         C            0.115361393762     0.031255718997    -0.008553288049    12.000000000000
         C            0.952718993762    -1.243137281003    -0.074052888049    12.000000000000
         C            0.898015993762     1.203711718997     0.566523111951    12.000000000000
         C            2.259086993762    -1.013239281003    -0.816364888049    12.000000000000
         C            2.176501993762     1.397539718997    -0.226368888049    12.000000000000
         C            3.025268993762     0.149772718997    -0.208649888049    12.000000000000
         C           -3.124786006238     1.432665718997    -0.487213888049    12.000000000000
         C           -3.536890006238     2.086232718997    -1.782446888049    12.000000000000
         H           -0.283665006238     0.299868718997    -0.968565888049     1.007825032230
         H            0.369695993762    -2.028296281003    -0.570359888049     1.007825032230
         H            1.156546993762     0.998944718997     1.613828111951     1.007825032230
         H            2.060360993762    -0.787592281003    -1.871083888049     1.007825032230
         H            1.916413993762     1.637354718997    -1.271910888049     1.007825032230
         H            3.295281993762    -0.093464281003     0.829318111951     1.007825032230
         H            0.521201993762    -1.886964281003     1.713182111951     1.007825032230
         H            0.664966993762     3.110378718997     0.684856111951     1.007825032230
         H            2.972969993762    -2.546306281003     0.096326111951     1.007825032230
         H            3.720855993762     2.550253718997    -0.057196888049     1.007825032230
         H            4.639153993762    -0.422766281003    -1.095414888049     1.007825032230
         H           -3.808968006238    -1.521270281003     1.736400111951     1.007825032230
         H           -3.931119006238     1.446608718997     0.251058111951     1.007825032230
         H           -2.230335006238     1.893947718997    -0.057423888049     1.007825032230
         H           -3.801094006238     3.131949718997    -1.600998888049     1.007825032230
         H           -2.717769006238     2.054390718997    -2.503202888049     1.007825032230
         H           -4.401517006238     1.575390718997    -2.211051888049     1.007825032230

  Basis Set: AUG-CC-PVTZ
    Blend: AUG-CC-PVTZ
  Basis Set: (AUG-CC-PVTZ AUX)
    Blend: AUG-CC-PVTZ-JKFIT
	 Reference Energy          =   -1327.8592935162168942 [Eh]
	 Singles Energy            =      -0.0000000000000000 [Eh]
	 Same-Spin Energy          =      -1.0147918475214328 [Eh]
	 Opposite-Spin Energy      =      -3.0767266343072848 [Eh]
	 Correlation Energy        =      -4.0915184818287180 [Eh]
	 Total Energy              =   -1331.9508119980455376 [Eh]

	 ================> DF-SCS-MP2 Energies <==================
	-----------------------------------------------------------
	 SCS Same-Spin Scale       =       0.3333333333333333 [-]
	 SCS Opposite-Spin Scale   =       1.2000000000000000 [-]
	 SCS Same-Spin Energy      =      -0.3382639491738109 [Eh]
	 SCS Opposite-Spin Energy  =      -3.6920719611687414 [Eh]
	 SCS Correlation Energy    =      -4.0303359103425525 [Eh]
	 SCS Total Energy          =   -1331.8896294265593951 [Eh]
	-----------------------------------------------------------

  Dipole Moment: [D]
     X:    -1.1097      Y:     1.9228      Z:     0.7193     Total:     2.3337

*** Psi4 exiting successfully. Buy a developer a beer!
