                               Psi4 1.3.2 release

  ==> Input File <==

--------------------------------------------------------------------------
#psi4
#
memory 32 gb

molecule  {
0 1
  P       -2.2900960    -0.9400430     0.3446780
  O       -0.9821530    -0.2015620     0.9382890
  O        1.3422500    -1.6754830     1.2308510
  O        0.0787050     2.3596040     0.4621680
  O        3.0685150    -2.1870720    -0.8085900
  O        2.8473350     2.5031130     0.3715350
  O        4.1956880     0.4353970    -0.9728740
  O       -2.8268630     0.0333510    -0.8075310
  O       -3.2591210    -0.7232820     1.6216710
  O       -2.1189930    -2.3436440    -0.0996680
  C        0.0980983     0.0174644     0.0040847
  C        0.9532920    -1.2442050    -0.0757250
  C        0.8985890     1.2026440     0.5648510
  C        2.2596600    -1.0143070    -0.8180370
  C        2.1770750     1.3964720    -0.2280410
  C        3.0258420     0.1487050    -0.2103220
  C       -3.1242130     1.4315980    -0.4888860
  C       -3.5363170     2.0851650    -1.7841190
  H       -0.2830920     0.2988010    -0.9702380
  H        0.3556398    -2.0171488    -0.5738022
  H        1.1571200     0.9978770     1.6121560
  H        2.0609340    -0.7886600    -1.8727560
  H        1.9169870     1.6362870    -1.2735830
  H        3.2958550    -0.0945320     0.8276460
  H        0.5217750    -1.8880320     1.7115100
  H        0.6655400     3.1093110     0.6831840
  H        2.9735430    -2.5473740     0.0946540
  H        3.7214290     2.5491860    -0.0588690
  H        4.6397270    -0.4238340    -1.0970870
  H       -3.8083950    -1.5223380     1.7347280
  H       -3.9305460     1.4455410     0.2493860
  H       -2.2297620     1.8928800    -0.0590960
  H       -3.8005210     3.1308820    -1.6026710
  H       -2.7171960     2.0533230    -2.5048750
  H       -4.4009440     1.5743230    -2.2127240
units angstrom
no_reorient  #important for SAPT in psi4, default
symmetry c1  #important for SAPT in psi4, default
}

set PROPERTIES_ORIGIN ["COM"]
properties('MP2/aug-cc-pvtz', properties = ['dipole'])
--------------------------------------------------------------------------

    Molecular point group: c1
  Charge       = 0
  Multiplicity = 1
  Basis Set: AUG-CC-PVTZ
    Blend: AUG-CC-PVTZ
  Basis Set: (AUG-CC-PVTZ AUX)
    Blend: AUG-CC-PVTZ-JKFIT

    Orbital Energies [Eh]
    ---------------------

    Doubly Occupied:

       1A    -80.117623     2A    -20.615285     3A    -20.609128
       4A    -20.599627     5A    -20.583575     6A    -20.576245
       7A    -20.574357     8A    -20.573735     9A    -20.572635
      10A    -20.524266    11A    -11.319493    12A    -11.302865
      13A    -11.299843    14A    -11.299324    15A    -11.298579
      16A    -11.295819    17A    -11.291006    18A    -11.230194
      19A     -7.633157    20A     -5.531675    21A     -5.531265
      22A     -5.530072    23A     -1.462291    24A     -1.411004
      25A     -1.395562    26A     -1.392741    27A     -1.387506
      28A     -1.373173    29A     -1.363447    30A     -1.353490
      31A     -1.304711    32A     -1.116459    33A     -1.040882
      34A     -1.011548    35A     -1.001283    36A     -0.880563
      37A     -0.865344    38A     -0.858193    39A     -0.822824
      40A     -0.811269    41A     -0.751446    42A     -0.746082
      43A     -0.731359    44A     -0.729912    45A     -0.707463
      46A     -0.687190    47A     -0.677974    48A     -0.674354
      49A     -0.662308    50A     -0.660881    51A     -0.643125
      52A     -0.634891    53A     -0.627916    54A     -0.615454
      55A     -0.604236    56A     -0.597632    57A     -0.580764
      58A     -0.576272    59A     -0.571992    60A     -0.559719
      61A     -0.556359    62A     -0.549156    63A     -0.541697
      64A     -0.535887    65A     -0.531688    66A     -0.520414
      67A     -0.513339    68A     -0.504534    69A     -0.496736
      70A     -0.485468    71A     -0.480200    72A     -0.477290
      73A     -0.461310    74A     -0.455376    75A     -0.448383
      76A     -0.435303

  @DF-RHF Final Energy: -1327.86081597452221

   => Energetics <=

    Nuclear Repulsion Energy =           1772.4317273756741997
    One-Electron Energy =               -5356.9927497373428196
    Two-Electron Energy =                2256.7002063871464088
    Total Energy =                      -1327.8608159745222110
  Basis Set: (AUG-CC-PVTZ AUX)
    Blend: AUG-CC-PVTZ-RI
    Molecular point group: c1

    Geometry (in Angstrom), charge = 0, multiplicity = 1:

       Center              X                  Y                   Z               Mass
    ------------   -----------------  -----------------  -----------------  -----------------
         P           -2.289208974282    -0.939563138104     0.345193838601    30.973761998420
         O           -0.981265974282    -0.201082138104     0.938804838601    15.994914619570
         O            1.343137025718    -1.675003138104     1.231366838601    15.994914619570
         O            0.079592025718     2.360083861896     0.462683838601    15.994914619570
         O            3.069402025718    -2.186592138104    -0.808074161399    15.994914619570
         O            2.848222025718     2.503592861896     0.372050838601    15.994914619570
         O            4.196575025718     0.435876861896    -0.972358161399    15.994914619570
         O           -2.825975974282     0.033830861896    -0.807015161399    15.994914619570
         O           -3.258233974282    -0.722802138104     1.622186838601    15.994914619570
         O           -2.118105974282    -2.343164138104    -0.099152161399    15.994914619570
         C            0.098985325718     0.017944261896     0.004600538601    12.000000000000
         C            0.954179025718    -1.243725138104    -0.075209161399    12.000000000000
         C            0.899476025718     1.203123861896     0.565366838601    12.000000000000
         C            2.260547025718    -1.013827138104    -0.817521161399    12.000000000000
         C            2.177962025718     1.396951861896    -0.227525161399    12.000000000000
         C            3.026729025718     0.149184861896    -0.209806161399    12.000000000000
         C           -3.123325974282     1.432077861896    -0.488370161399    12.000000000000
         C           -3.535429974282     2.085644861896    -1.783603161399    12.000000000000
         H           -0.282204974282     0.299280861896    -0.969722161399     1.007825032230
         H            0.356526825718    -2.016668938104    -0.573286361399     1.007825032230
         H            1.158007025718     0.998356861896     1.612671838601     1.007825032230
         H            2.061821025718    -0.788180138104    -1.872240161399     1.007825032230
         H            1.917874025718     1.636766861896    -1.273067161399     1.007825032230
         H            3.296742025718    -0.094052138104     0.828161838601     1.007825032230
         H            0.522662025718    -1.887552138104     1.712025838601     1.007825032230
         H            0.666427025718     3.109790861896     0.683699838601     1.007825032230
         H            2.974430025718    -2.546894138104     0.095169838601     1.007825032230
         H            3.722316025718     2.549665861896    -0.058353161399     1.007825032230
         H            4.640614025718    -0.423354138104    -1.096571161399     1.007825032230
         H           -3.807507974282    -1.521858138104     1.735243838601     1.007825032230
         H           -3.929658974282     1.446020861896     0.249901838601     1.007825032230
         H           -2.228874974282     1.893359861896    -0.058580161399     1.007825032230
         H           -3.799633974282     3.131361861896    -1.602155161399     1.007825032230
         H           -2.716308974282     2.053802861896    -2.504359161399     1.007825032230
         H           -4.400056974282     1.574802861896    -2.212208161399     1.007825032230

  Basis Set: AUG-CC-PVTZ
    Blend: AUG-CC-PVTZ
  Basis Set: (AUG-CC-PVTZ AUX)
    Blend: AUG-CC-PVTZ-JKFIT
	 Reference Energy          =   -1327.8608159745222110 [Eh]
	 Singles Energy            =      -0.0000000000000000 [Eh]
	 Same-Spin Energy          =      -1.0145442919749768 [Eh]
	 Opposite-Spin Energy      =      -3.0760754786204161 [Eh]
	 Correlation Energy        =      -4.0906197705953931 [Eh]
	 Total Energy              =   -1331.9514357451175783 [Eh]

	 ================> DF-SCS-MP2 Energies <==================
	-----------------------------------------------------------
	 SCS Same-Spin Scale       =       0.3333333333333333 [-]
	 SCS Opposite-Spin Scale   =       1.2000000000000000 [-]
	 SCS Same-Spin Energy      =      -0.3381814306583256 [Eh]
	 SCS Opposite-Spin Energy  =      -3.6912905743444990 [Eh]
	 SCS Correlation Energy    =      -4.0294720050028250 [Eh]
	 SCS Total Energy          =   -1331.8902879795250556 [Eh]
	-----------------------------------------------------------

  Dipole Moment: [D]
     X:    -1.1955      Y:     1.8429      Z:     0.7258     Total:     2.3135

*** Psi4 exiting successfully. Buy a developer a beer!
