                               Psi4 1.3.2 release

  ==> Input File <==

--------------------------------------------------------------------------
#psi4
#
memory 32 gb

molecule  {
0 1
  P       -2.2900960    -0.9400430     0.3446780
  O       -0.9821530    -0.2015620     0.9382890
  O        1.3422500    -1.6754830     1.2308510
  O        0.0787050     2.3596040     0.4621680
  O        3.0685150    -2.1870720    -0.8085900
  O        2.8473350     2.5031130     0.3715350
  O        4.1956880     0.4353970    -0.9728740
  O       -2.8268630     0.0333510    -0.8075310
  O       -3.2591210    -0.7232820     1.6216710
  O       -2.1189930    -2.3436440    -0.0996680
  C        0.1181620     0.0300090     0.0163190
  C        0.9532920    -1.2442050    -0.0757250
  C        0.8985890     1.2026440     0.5648510
  C        2.2596600    -1.0143070    -0.8180370
  C        2.1770750     1.3964720    -0.2280410
  C        2.9133619     0.3140613    -0.2126702
  C       -3.1242130     1.4315980    -0.4888860
  C       -3.5363170     2.0851650    -1.7841190
  H       -0.2830920     0.2988010    -0.9702380
  H        0.3702690    -2.0293640    -0.5720320
  H        1.1571200     0.9978770     1.6121560
  H        2.0609340    -0.7886600    -1.8727560
  H        1.9169870     1.6362870    -1.2735830
  H        3.2958550    -0.0945320     0.8276460
  H        0.5217750    -1.8880320     1.7115100
  H        0.6655400     3.1093110     0.6831840
  H        2.9735430    -2.5473740     0.0946540
  H        3.7214290     2.5491860    -0.0588690
  H        4.6397270    -0.4238340    -1.0970870
  H       -3.8083950    -1.5223380     1.7347280
  H       -3.9305460     1.4455410     0.2493860
  H       -2.2297620     1.8928800    -0.0590960
  H       -3.8005210     3.1308820    -1.6026710
  H       -2.7171960     2.0533230    -2.5048750
  H       -4.4009440     1.5743230    -2.2127240
units angstrom
no_reorient  #important for SAPT in psi4, default
symmetry c1  #important for SAPT in psi4, default
}

set PROPERTIES_ORIGIN ["COM"]
properties('MP2/aug-cc-pvtz', properties = ['dipole'])
--------------------------------------------------------------------------

    Molecular point group: c1
  Charge       = 0
  Multiplicity = 1
  Basis Set: AUG-CC-PVTZ
    Blend: AUG-CC-PVTZ
  Basis Set: (AUG-CC-PVTZ AUX)
    Blend: AUG-CC-PVTZ-JKFIT

    Orbital Energies [Eh]
    ---------------------

    Doubly Occupied:

       1A    -80.117983     2A    -20.615613     3A    -20.608760
       4A    -20.599988     5A    -20.583065     6A    -20.582080
       7A    -20.579306     8A    -20.577669     9A    -20.561249
      10A    -20.524101    11A    -11.323060    12A    -11.307561
      13A    -11.305668    14A    -11.302287    15A    -11.300512
      16A    -11.297510    17A    -11.290614    18A    -11.230773
      19A     -7.633426    20A     -5.531932    21A     -5.531564
      22A     -5.530351    23A     -1.461538    24A     -1.412069
      25A     -1.398693    26A     -1.392250    27A     -1.387556
      28A     -1.369375    29A     -1.366514    30A     -1.336375
      31A     -1.304516    32A     -1.140242    33A     -1.043082
      34A     -1.036766    35A     -1.001066    36A     -0.880187
      37A     -0.870374    38A     -0.861946    39A     -0.821831
      40A     -0.810540    41A     -0.755297    42A     -0.745488
      43A     -0.732828    44A     -0.729682    45A     -0.711582
      46A     -0.688608    47A     -0.679848    48A     -0.671751
      49A     -0.670563    50A     -0.662288    51A     -0.645573
      52A     -0.635370    53A     -0.627198    54A     -0.616742
      55A     -0.605488    56A     -0.595276    57A     -0.579142
      58A     -0.575798    59A     -0.569801    60A     -0.560573
      61A     -0.557974    62A     -0.548022    63A     -0.541469
      64A     -0.535652    65A     -0.527054    66A     -0.519711
      67A     -0.511470    68A     -0.501555    69A     -0.497335
      70A     -0.488619    71A     -0.481016    72A     -0.477701
      73A     -0.472506    74A     -0.459722    75A     -0.451577
      76A     -0.416670

  @DF-RHF Final Energy: -1327.80536535729948

   => Energetics <=

    Nuclear Repulsion Energy =           1774.4481925273535126
    One-Electron Energy =               -5360.7532333588715119
    Two-Electron Energy =                2258.4996754742182929
    Total Energy =                      -1327.8053653572997064
  Basis Set: (AUG-CC-PVTZ AUX)
    Blend: AUG-CC-PVTZ-RI
    Molecular point group: c1

    Geometry (in Angstrom), charge = 0, multiplicity = 1:

       Center              X                  Y                   Z               Mass
    ------------   -----------------  -----------------  -----------------  -----------------
         P           -2.285410289096    -0.946931368703     0.344775811711    30.973761998420
         O           -0.977467289096    -0.208450368703     0.938386811711    15.994914619570
         O            1.346935710904    -1.682371368703     1.230948811711    15.994914619570
         O            0.083390710904     2.352715631297     0.462265811711    15.994914619570
         O            3.073200710904    -2.193960368703    -0.808492188289    15.994914619570
         O            2.852020710904     2.496224631297     0.371632811711    15.994914619570
         O            4.200373710904     0.428508631297    -0.972776188289    15.994914619570
         O           -2.822177289096     0.026462631297    -0.807433188289    15.994914619570
         O           -3.254435289096    -0.730170368703     1.621768811711    15.994914619570
         O           -2.114307289096    -2.350532368703    -0.099570188289    15.994914619570
         C            0.122847710904     0.023120631297     0.016416811711    12.000000000000
         C            0.957977710904    -1.251093368703    -0.075627188289    12.000000000000
         C            0.903274710904     1.195755631297     0.564948811711    12.000000000000
         C            2.264345710904    -1.021195368703    -0.817939188289    12.000000000000
         C            2.181760710904     1.389583631297    -0.227943188289    12.000000000000
         C            2.918047610904     0.307172931297    -0.212572388289    12.000000000000
         C           -3.119527289096     1.424709631297    -0.488788188289    12.000000000000
         C           -3.531631289096     2.078276631297    -1.784021188289    12.000000000000
         H           -0.278406289096     0.291912631297    -0.970140188289     1.007825032230
         H            0.374954710904    -2.036252368703    -0.571934188289     1.007825032230
         H            1.161805710904     0.990988631297     1.612253811711     1.007825032230
         H            2.065619710904    -0.795548368703    -1.872658188289     1.007825032230
         H            1.921672710904     1.629398631297    -1.273485188289     1.007825032230
         H            3.300540710904    -0.101420368703     0.827743811711     1.007825032230
         H            0.526460710904    -1.894920368703     1.711607811711     1.007825032230
         H            0.670225710904     3.102422631297     0.683281811711     1.007825032230
         H            2.978228710904    -2.554262368703     0.094751811711     1.007825032230
         H            3.726114710904     2.542297631297    -0.058771188289     1.007825032230
         H            4.644412710904    -0.430722368703    -1.096989188289     1.007825032230
         H           -3.803709289096    -1.529226368703     1.734825811711     1.007825032230
         H           -3.925860289096     1.438652631297     0.249483811711     1.007825032230
         H           -2.225076289096     1.885991631297    -0.058998188289     1.007825032230
         H           -3.795835289096     3.123993631297    -1.602573188289     1.007825032230
         H           -2.712510289096     2.046434631297    -2.504777188289     1.007825032230
         H           -4.396258289096     1.567434631297    -2.212626188289     1.007825032230

  Basis Set: AUG-CC-PVTZ
    Blend: AUG-CC-PVTZ
  Basis Set: (AUG-CC-PVTZ AUX)
    Blend: AUG-CC-PVTZ-JKFIT
	 Reference Energy          =   -1327.8053653572994790 [Eh]
	 Singles Energy            =      -0.0000000000000000 [Eh]
	 Same-Spin Energy          =      -1.0178788546426314 [Eh]
	 Opposite-Spin Energy      =      -3.0813137538836970 [Eh]
	 Correlation Energy        =      -4.0991926085263284 [Eh]
	 Total Energy              =   -1331.9045579658259157 [Eh]

	 ================> DF-SCS-MP2 Energies <==================
	-----------------------------------------------------------
	 SCS Same-Spin Scale       =       0.3333333333333333 [-]
	 SCS Opposite-Spin Scale   =       1.2000000000000000 [-]
	 SCS Same-Spin Energy      =      -0.3392929515475438 [Eh]
	 SCS Opposite-Spin Energy  =      -3.6975765046604363 [Eh]
	 SCS Correlation Energy    =      -4.0368694562079801 [Eh]
	 SCS Total Energy          =   -1331.8422348135075026 [Eh]
	-----------------------------------------------------------

  Dipole Moment: [D]
     X:    -1.4903      Y:     1.8673      Z:     0.8015     Total:     2.5200

*** Psi4 exiting successfully. Buy a developer a beer!
