                               Psi4 1.3.2 release

  ==> Input File <==

--------------------------------------------------------------------------
#psi4
#
memory 32 gb

molecule  {
0 1
  P       -2.2900960    -0.9400430     0.3446780
  O       -0.9821530    -0.2015620     0.9382890
  O        1.3422500    -1.6754830     1.2308510
  O        0.0787050     2.3596040     0.4621680
  O        3.0685150    -2.1870720    -0.8085900
  O        2.8473350     2.5031130     0.3715350
  O        4.1956880     0.4353970    -0.9728740
  O       -2.8254251     0.0756855    -0.7710812
  O       -3.2591210    -0.7232820     1.6216710
  O       -2.1027828    -2.3557853    -0.0520623
  C        0.1181620     0.0300090     0.0163190
  C        0.9532920    -1.2442050    -0.0757250
  C        0.8985890     1.2026440     0.5648510
  C        2.2596600    -1.0143070    -0.8180370
  C        2.1770750     1.3964720    -0.2280410
  C        3.0258420     0.1487050    -0.2103220
  C       -3.1242130     1.4315980    -0.4888860
  C       -3.5363170     2.0851650    -1.7841190
  H       -0.2830920     0.2988010    -0.9702380
  H        0.3702690    -2.0293640    -0.5720320
  H        1.1571200     0.9978770     1.6121560
  H        2.0609340    -0.7886600    -1.8727560
  H        1.9169870     1.6362870    -1.2735830
  H        3.2958550    -0.0945320     0.8276460
  H        0.5217750    -1.8880320     1.7115100
  H        0.6655400     3.1093110     0.6831840
  H        2.9735430    -2.5473740     0.0946540
  H        3.7214290     2.5491860    -0.0588690
  H        4.6397270    -0.4238340    -1.0970870
  H       -3.8083950    -1.5223380     1.7347280
  H       -3.9305460     1.4455410     0.2493860
  H       -2.2297620     1.8928800    -0.0590960
  H       -3.8005210     3.1308820    -1.6026710
  H       -2.7171960     2.0533230    -2.5048750
  H       -4.4009440     1.5743230    -2.2127240
units angstrom
no_reorient  #important for SAPT in psi4, default
symmetry c1  #important for SAPT in psi4, default
}

set PROPERTIES_ORIGIN ["COM"]
properties('MP2/aug-cc-pvtz', properties = ['dipole'])
--------------------------------------------------------------------------

    Molecular point group: c1
  Charge       = 0
  Multiplicity = 1
  Basis Set: AUG-CC-PVTZ
    Blend: AUG-CC-PVTZ
  Basis Set: (AUG-CC-PVTZ AUX)
    Blend: AUG-CC-PVTZ-JKFIT

    Orbital Energies [Eh]
    ---------------------

    Doubly Occupied:

       1A    -80.120336     2A    -20.612900     3A    -20.605223
       4A    -20.599945     5A    -20.582912     6A    -20.576560
       7A    -20.574671     8A    -20.574045     9A    -20.572762
      10A    -20.528964    11A    -11.320611    12A    -11.303635
      13A    -11.299407    14A    -11.298224    15A    -11.296441
      16A    -11.294794    17A    -11.291352    18A    -11.228328
      19A     -7.635539    20A     -5.534079    21A     -5.533824
      22A     -5.532379    23A     -1.463819    24A     -1.411549
      25A     -1.396139    26A     -1.393324    27A     -1.392432
      28A     -1.372738    29A     -1.363691    30A     -1.353703
      31A     -1.308675    32A     -1.118897    33A     -1.040383
      34A     -1.011677    35A     -1.003317    36A     -0.883313
      37A     -0.867599    38A     -0.858914    39A     -0.821765
      40A     -0.810564    41A     -0.751594    42A     -0.745853
      43A     -0.733382    44A     -0.731020    45A     -0.707804
      46A     -0.688169    47A     -0.679221    48A     -0.676028
      49A     -0.662601    50A     -0.661704    51A     -0.642929
      52A     -0.634807    53A     -0.630034    54A     -0.617715
      55A     -0.603171    56A     -0.598450    57A     -0.583406
      58A     -0.576465    59A     -0.571220    60A     -0.559796
      61A     -0.556915    62A     -0.548806    63A     -0.542486
      64A     -0.536684    65A     -0.529698    66A     -0.521447
      67A     -0.509991    68A     -0.503278    69A     -0.495783
      70A     -0.485363    71A     -0.481835    72A     -0.475391
      73A     -0.462661    74A     -0.455656    75A     -0.450008
      76A     -0.436431

  @DF-RHF Final Energy: -1327.86064315488966

   => Energetics <=

    Nuclear Repulsion Energy =           1773.6009294404843786
    One-Electron Energy =               -5359.2486820371750582
    Two-Electron Energy =                2257.7871094418010216
    Total Energy =                      -1327.8606431548896580
  Basis Set: (AUG-CC-PVTZ AUX)
    Blend: AUG-CC-PVTZ-RI
    Molecular point group: c1

    Geometry (in Angstrom), charge = 0, multiplicity = 1:

       Center              X                  Y                   Z               Mass
    ------------   -----------------  -----------------  -----------------  -----------------
         P           -2.291075897923    -0.941719493981     0.340010713851    30.973761998420
         O           -0.983132897923    -0.203238493981     0.933621713851    15.994914619570
         O            1.341270102077    -1.677159493981     1.226183713851    15.994914619570
         O            0.077725102077     2.357927506019     0.457500713851    15.994914619570
         O            3.067535102077    -2.188748493981    -0.813257286149    15.994914619570
         O            2.846355102077     2.501436506019     0.366867713851    15.994914619570
         O            4.194708102077     0.433720506019    -0.977541286149    15.994914619570
         O           -2.826404997923     0.074009006019    -0.775748486149    15.994914619570
         O           -3.260100897923    -0.724958493981     1.617003713851    15.994914619570
         O           -2.103762697923    -2.357461793981    -0.056729586149    15.994914619570
         C            0.117182102077     0.028332506019     0.011651713851    12.000000000000
         C            0.952312102077    -1.245881493981    -0.080392286149    12.000000000000
         C            0.897609102077     1.200967506019     0.560183713851    12.000000000000
         C            2.258680102077    -1.015983493981    -0.822704286149    12.000000000000
         C            2.176095102077     1.394795506019    -0.232708286149    12.000000000000
         C            3.024862102077     0.147028506019    -0.214989286149    12.000000000000
         C           -3.125192897923     1.429921506019    -0.493553286149    12.000000000000
         C           -3.537296897923     2.083488506019    -1.788786286149    12.000000000000
         H           -0.284071897923     0.297124506019    -0.974905286149     1.007825032230
         H            0.369289102077    -2.031040493981    -0.576699286149     1.007825032230
         H            1.156140102077     0.996200506019     1.607488713851     1.007825032230
         H            2.059954102077    -0.790336493981    -1.877423286149     1.007825032230
         H            1.916007102077     1.634610506019    -1.278250286149     1.007825032230
         H            3.294875102077    -0.096208493981     0.822978713851     1.007825032230
         H            0.520795102077    -1.889708493981     1.706842713851     1.007825032230
         H            0.664560102077     3.107634506019     0.678516713851     1.007825032230
         H            2.972563102077    -2.549050493981     0.089986713851     1.007825032230
         H            3.720449102077     2.547509506019    -0.063536286149     1.007825032230
         H            4.638747102077    -0.425510493981    -1.101754286149     1.007825032230
         H           -3.809374897923    -1.524014493981     1.730060713851     1.007825032230
         H           -3.931525897923     1.443864506019     0.244718713851     1.007825032230
         H           -2.230741897923     1.891203506019    -0.063763286149     1.007825032230
         H           -3.801500897923     3.129205506019    -1.607338286149     1.007825032230
         H           -2.718175897923     2.051646506019    -2.509542286149     1.007825032230
         H           -4.401923897923     1.572646506019    -2.217391286149     1.007825032230

  Basis Set: AUG-CC-PVTZ
    Blend: AUG-CC-PVTZ
  Basis Set: (AUG-CC-PVTZ AUX)
    Blend: AUG-CC-PVTZ-JKFIT
	 Reference Energy          =   -1327.8606431548896580 [Eh]
	 Singles Energy            =      -0.0000000000000000 [Eh]
	 Same-Spin Energy          =      -1.0145254479786772 [Eh]
	 Opposite-Spin Energy      =      -3.0752509731743896 [Eh]
	 Correlation Energy        =      -4.0897764211530667 [Eh]
	 Total Energy              =   -1331.9504195760428047 [Eh]

	 ================> DF-SCS-MP2 Energies <==================
	-----------------------------------------------------------
	 SCS Same-Spin Scale       =       0.3333333333333333 [-]
	 SCS Opposite-Spin Scale   =       1.2000000000000000 [-]
	 SCS Same-Spin Energy      =      -0.3381751493262257 [Eh]
	 SCS Opposite-Spin Energy  =      -3.6903011678092672 [Eh]
	 SCS Correlation Energy    =      -4.0284763171354925 [Eh]
	 SCS Total Energy          =   -1331.8891194720251860 [Eh]
	-----------------------------------------------------------

  Dipole Moment: [D]
     X:    -1.1312      Y:     1.6657      Z:     0.5564     Total:     2.0890

*** Psi4 exiting successfully. Buy a developer a beer!
