                               Psi4 1.3.2 release

  ==> Input File <==

--------------------------------------------------------------------------
#psi4
#
memory 32 gb

molecule  {
0 1
  P       -2.2900960    -0.9400430     0.3446780
  O       -0.9821530    -0.2015620     0.9382890
  O        1.3422500    -1.6754830     1.2308510
  O        0.0787050     2.3596040     0.4621680
  O        3.0685150    -2.1870720    -0.8085900
  O        2.8473350     2.5031130     0.3715350
  O        4.1956880     0.4353970    -0.9728740
  O       -2.8268630     0.0333510    -0.8075310
  O       -3.2591210    -0.7232820     1.6216710
  O       -2.1189930    -2.3436440    -0.0996680
  C        0.1224664     0.0063600     0.0632887
  C        0.9532920    -1.2442050    -0.0757250
  C        0.8985890     1.2026440     0.5648510
  C        2.2596600    -1.0143070    -0.8180370
  C        2.1770750     1.3964720    -0.2280410
  C        3.0258420     0.1487050    -0.2103220
  C       -3.1242130     1.4315980    -0.4888860
  C       -3.5363170     2.0851650    -1.7841190
  H       -0.2830920     0.2988010    -0.9702380
  H        0.3702690    -2.0293640    -0.5720320
  H        1.1391376     0.9641526     1.6093000
  H        2.0609340    -0.7886600    -1.8727560
  H        1.9169870     1.6362870    -1.2735830
  H        3.2958550    -0.0945320     0.8276460
  H        0.5217750    -1.8880320     1.7115100
  H        0.6655400     3.1093110     0.6831840
  H        2.9735430    -2.5473740     0.0946540
  H        3.7214290     2.5491860    -0.0588690
  H        4.6397270    -0.4238340    -1.0970870
  H       -3.8083950    -1.5223380     1.7347280
  H       -3.9305460     1.4455410     0.2493860
  H       -2.2297620     1.8928800    -0.0590960
  H       -3.8005210     3.1308820    -1.6026710
  H       -2.7171960     2.0533230    -2.5048750
  H       -4.4009440     1.5743230    -2.2127240
units angstrom
no_reorient  #important for SAPT in psi4, default
symmetry c1  #important for SAPT in psi4, default
}

set PROPERTIES_ORIGIN ["COM"]
properties('MP2/aug-cc-pvtz', properties = ['dipole'])
--------------------------------------------------------------------------

    Molecular point group: c1
  Charge       = 0
  Multiplicity = 1
  Basis Set: AUG-CC-PVTZ
    Blend: AUG-CC-PVTZ
  Basis Set: (AUG-CC-PVTZ AUX)
    Blend: AUG-CC-PVTZ-JKFIT

    Orbital Energies [Eh]
    ---------------------

    Doubly Occupied:

       1A    -80.119220     2A    -20.616197     3A    -20.609901
       4A    -20.599572     5A    -20.582095     6A    -20.576366
       7A    -20.575090     8A    -20.574058     9A    -20.573907
      10A    -20.524744    11A    -11.321186    12A    -11.302248
      13A    -11.299753    14A    -11.299568    15A    -11.297920
      16A    -11.296743    17A    -11.291224    18A    -11.229807
      19A     -7.634584    20A     -5.533083    21A     -5.532731
      22A     -5.531516    23A     -1.464800    24A     -1.412949
      25A     -1.397540    26A     -1.393329    27A     -1.387759
      28A     -1.374206    29A     -1.364017    30A     -1.353919
      31A     -1.305278    32A     -1.118737    33A     -1.040637
      34A     -1.012440    35A     -1.003615    36A     -0.882911
      37A     -0.865031    38A     -0.860747    39A     -0.823330
      40A     -0.806376    41A     -0.752977    42A     -0.744776
      43A     -0.732955    44A     -0.730619    45A     -0.708431
      46A     -0.687637    47A     -0.679304    48A     -0.673415
      49A     -0.662770    50A     -0.661069    51A     -0.645515
      52A     -0.635783    53A     -0.628763    54A     -0.615662
      55A     -0.606470    56A     -0.598028    57A     -0.581493
      58A     -0.577167    59A     -0.571785    60A     -0.559317
      61A     -0.556347    62A     -0.548187    63A     -0.541463
      64A     -0.536392    65A     -0.527109    66A     -0.520854
      67A     -0.513264    68A     -0.503209    69A     -0.496917
      70A     -0.480865    71A     -0.479160    72A     -0.477151
      73A     -0.463974    74A     -0.455314    75A     -0.450135
      76A     -0.436146

  @DF-RHF Final Energy: -1327.85838921572758

   => Energetics <=

    Nuclear Repulsion Energy =           1772.9969197587577128
    One-Electron Energy =               -5358.0515126769587368
    Two-Electron Energy =                2257.1962037024732126
    Total Energy =                      -1327.8583892157275841
  Basis Set: (AUG-CC-PVTZ AUX)
    Blend: AUG-CC-PVTZ-RI
    Molecular point group: c1

    Geometry (in Angstrom), charge = 0, multiplicity = 1:

       Center              X                  Y                   Z               Mass
    ------------   -----------------  -----------------  -----------------  -----------------
         P           -2.290212365029    -0.938939826142     0.342731326645    30.973761998420
         O           -0.982269365029    -0.200458826142     0.936342326645    15.994914619570
         O            1.342133634971    -1.674379826142     1.228904326645    15.994914619570
         O            0.078588634971     2.360707173858     0.460221326645    15.994914619570
         O            3.068398634971    -2.185968826142    -0.810536673355    15.994914619570
         O            2.847218634971     2.504216173858     0.369588326645    15.994914619570
         O            4.195571634971     0.436500173858    -0.974820673355    15.994914619570
         O           -2.826979365029     0.034454173858    -0.809477673355    15.994914619570
         O           -3.259237365029    -0.722178826142     1.619724326645    15.994914619570
         O           -2.119109365029    -2.342540826142    -0.101614673355    15.994914619570
         C            0.122350034971     0.007463173858     0.061342026645    12.000000000000
         C            0.953175634971    -1.243101826142    -0.077671673355    12.000000000000
         C            0.898472634971     1.203747173858     0.562904326645    12.000000000000
         C            2.259543634971    -1.013203826142    -0.819983673355    12.000000000000
         C            2.176958634971     1.397575173858    -0.229987673355    12.000000000000
         C            3.025725634971     0.149808173858    -0.212268673355    12.000000000000
         C           -3.124329365029     1.432701173858    -0.490832673355    12.000000000000
         C           -3.536433365029     2.086268173858    -1.786065673355    12.000000000000
         H           -0.283208365029     0.299904173858    -0.972184673355     1.007825032230
         H            0.370152634971    -2.028260826142    -0.573978673355     1.007825032230
         H            1.139021234971     0.965255773858     1.607353326645     1.007825032230
         H            2.060817634971    -0.787556826142    -1.874702673355     1.007825032230
         H            1.916870634971     1.637390173858    -1.275529673355     1.007825032230
         H            3.295738634971    -0.093428826142     0.825699326645     1.007825032230
         H            0.521658634971    -1.886928826142     1.709563326645     1.007825032230
         H            0.665423634971     3.110414173858     0.681237326645     1.007825032230
         H            2.973426634971    -2.546270826142     0.092707326645     1.007825032230
         H            3.721312634971     2.550289173858    -0.060815673355     1.007825032230
         H            4.639610634971    -0.422730826142    -1.099033673355     1.007825032230
         H           -3.808511365029    -1.521234826142     1.732781326645     1.007825032230
         H           -3.930662365029     1.446644173858     0.247439326645     1.007825032230
         H           -2.229878365029     1.893983173858    -0.061042673355     1.007825032230
         H           -3.800637365029     3.131985173858    -1.604617673355     1.007825032230
         H           -2.717312365029     2.054426173858    -2.506821673355     1.007825032230
         H           -4.401060365029     1.575426173858    -2.214670673355     1.007825032230

  Basis Set: AUG-CC-PVTZ
    Blend: AUG-CC-PVTZ
  Basis Set: (AUG-CC-PVTZ AUX)
    Blend: AUG-CC-PVTZ-JKFIT
	 Reference Energy          =   -1327.8583892157275841 [Eh]
	 Singles Energy            =      -0.0000000000000000 [Eh]
	 Same-Spin Energy          =      -1.0148055042039859 [Eh]
	 Opposite-Spin Energy      =      -3.0761004430987153 [Eh]
	 Correlation Energy        =      -4.0909059473027014 [Eh]
	 Total Energy              =   -1331.9492951630302287 [Eh]

	 ================> DF-SCS-MP2 Energies <==================
	-----------------------------------------------------------
	 SCS Same-Spin Scale       =       0.3333333333333333 [-]
	 SCS Opposite-Spin Scale   =       1.2000000000000000 [-]
	 SCS Same-Spin Energy      =      -0.3382685014013286 [Eh]
	 SCS Opposite-Spin Energy  =      -3.6913205317184583 [Eh]
	 SCS Correlation Energy    =      -4.0295890331197866 [Eh]
	 SCS Total Energy          =   -1331.8879782488472756 [Eh]
	-----------------------------------------------------------

  Dipole Moment: [D]
     X:    -1.1966      Y:     1.8062      Z:     0.7694     Total:     2.2991

*** Psi4 exiting successfully. Buy a developer a beer!
