                               Psi4 1.3.2 release

  ==> Input File <==

--------------------------------------------------------------------------
#psi4
#
memory 32 gb

molecule  {
0 1
  P       -2.2900960    -0.9400430     0.3446780
  O       -0.9738172    -0.2041337     0.9475040
  O        1.3422500    -1.6754830     1.2308510
  O        0.0787050     2.3596040     0.4621680
  O        3.0685150    -2.1870720    -0.8085900
  O        2.8473350     2.5031130     0.3715350
  O        4.1956880     0.4353970    -0.9728740
  O       -2.8268630     0.0333510    -0.8075310
  O       -3.2591210    -0.7232820     1.6216710
  O       -2.1189930    -2.3436440    -0.0996680
  C        0.1181620     0.0300090     0.0163190
  C        0.9532920    -1.2442050    -0.0757250
  C        0.8985890     1.2026440     0.5648510
  C        2.2596600    -1.0143070    -0.8180370
  C        2.1770750     1.3964720    -0.2280410
  C        3.0258420     0.1487050    -0.2103220
  C       -3.1242130     1.4315980    -0.4888860
  C       -3.5363170     2.0851650    -1.7841190
  H       -0.2741545     0.2995835    -0.9736133
  H        0.3702690    -2.0293640    -0.5720320
  H        1.1571200     0.9978770     1.6121560
  H        2.0609340    -0.7886600    -1.8727560
  H        1.9169870     1.6362870    -1.2735830
  H        3.2958550    -0.0945320     0.8276460
  H        0.5217750    -1.8880320     1.7115100
  H        0.6655400     3.1093110     0.6831840
  H        2.9735430    -2.5473740     0.0946540
  H        3.7214290     2.5491860    -0.0588690
  H        4.6397270    -0.4238340    -1.0970870
  H       -3.8083950    -1.5223380     1.7347280
  H       -3.9305460     1.4455410     0.2493860
  H       -2.2297620     1.8928800    -0.0590960
  H       -3.8005210     3.1308820    -1.6026710
  H       -2.7171960     2.0533230    -2.5048750
  H       -4.4009440     1.5743230    -2.2127240
units angstrom
no_reorient  #important for SAPT in psi4, default
symmetry c1  #important for SAPT in psi4, default
}

set PROPERTIES_ORIGIN ["COM"]
properties('MP2/aug-cc-pvtz', properties = ['dipole'])
--------------------------------------------------------------------------

    Molecular point group: c1
  Charge       = 0
  Multiplicity = 1
  Basis Set: AUG-CC-PVTZ
    Blend: AUG-CC-PVTZ
  Basis Set: (AUG-CC-PVTZ AUX)
    Blend: AUG-CC-PVTZ-JKFIT

    Orbital Energies [Eh]
    ---------------------

    Doubly Occupied:

       1A    -80.118077     2A    -20.615194     3A    -20.607424
       4A    -20.600098     5A    -20.582581     6A    -20.576552
       7A    -20.574321     8A    -20.573881     9A    -20.573269
      10A    -20.524014    11A    -11.320140    12A    -11.303024
      13A    -11.299883    14A    -11.299023    15A    -11.298132
      16A    -11.296353    17A    -11.291173    18A    -11.230214
      19A     -7.633376    20A     -5.531887    21A     -5.531478
      22A     -5.530310    23A     -1.459379    24A     -1.410656
      25A     -1.394358    26A     -1.392622    27A     -1.387540
      28A     -1.372149    29A     -1.363669    30A     -1.353538
      31A     -1.304317    32A     -1.118597    33A     -1.040894
      34A     -1.011321    35A     -1.003099    36A     -0.879645
      37A     -0.865133    38A     -0.858727    39A     -0.822709
      40A     -0.810484    41A     -0.751409    42A     -0.744825
      43A     -0.731294    44A     -0.728550    45A     -0.707386
      46A     -0.686938    47A     -0.677948    48A     -0.673834
      49A     -0.662170    50A     -0.660920    51A     -0.642687
      52A     -0.634671    53A     -0.627100    54A     -0.615473
      55A     -0.603400    56A     -0.598233    57A     -0.581759
      58A     -0.575769    59A     -0.570795    60A     -0.559296
      61A     -0.556426    62A     -0.548604    63A     -0.541492
      64A     -0.536390    65A     -0.530209    66A     -0.521389
      67A     -0.513230    68A     -0.504183    69A     -0.497230
      70A     -0.484503    71A     -0.480292    72A     -0.477008
      73A     -0.462044    74A     -0.455641    75A     -0.449807
      76A     -0.436012

  @DF-RHF Final Energy: -1327.86060218213061

   => Energetics <=

    Nuclear Repulsion Energy =           1772.1551787492205676
    One-Electron Energy =               -5356.4552352407927174
    Two-Electron Energy =                2256.4394543094413166
    Total Energy =                      -1327.8606021821306058
  Basis Set: (AUG-CC-PVTZ AUX)
    Blend: AUG-CC-PVTZ-RI
    Molecular point group: c1

    Geometry (in Angstrom), charge = 0, multiplicity = 1:

       Center              X                  Y                   Z               Mass
    ------------   -----------------  -----------------  -----------------  -----------------
         P           -2.290590091105    -0.939902923463     0.344178126447    30.973761998420
         O           -0.974311291105    -0.203993623463     0.947004126447    15.994914619570
         O            1.341755908895    -1.675342923463     1.230351126447    15.994914619570
         O            0.078210908895     2.359744076537     0.461668126447    15.994914619570
         O            3.068020908895    -2.186931923463    -0.809089873553    15.994914619570
         O            2.846840908895     2.503253076537     0.371035126447    15.994914619570
         O            4.195193908895     0.435537076537    -0.973373873553    15.994914619570
         O           -2.827357091105     0.033491076537    -0.808030873553    15.994914619570
         O           -3.259615091105    -0.723141923463     1.621171126447    15.994914619570
         O           -2.119487091105    -2.343503923463    -0.100167873553    15.994914619570
         C            0.117667908895     0.030149076537     0.015819126447    12.000000000000
         C            0.952797908895    -1.244064923463    -0.076224873553    12.000000000000
         C            0.898094908895     1.202784076537     0.564351126447    12.000000000000
         C            2.259165908895    -1.014166923463    -0.818536873553    12.000000000000
         C            2.176580908895     1.396612076537    -0.228540873553    12.000000000000
         C            3.025347908895     0.148845076537    -0.210821873553    12.000000000000
         C           -3.124707091105     1.431738076537    -0.489385873553    12.000000000000
         C           -3.536811091105     2.085305076537    -1.784618873553    12.000000000000
         H           -0.274648591105     0.299723576537    -0.974113173553     1.007825032230
         H            0.369774908895    -2.029223923463    -0.572531873553     1.007825032230
         H            1.156625908895     0.998017076537     1.611656126447     1.007825032230
         H            2.060439908895    -0.788519923463    -1.873255873553     1.007825032230
         H            1.916492908895     1.636427076537    -1.274082873553     1.007825032230
         H            3.295360908895    -0.094391923463     0.827146126447     1.007825032230
         H            0.521280908895    -1.887891923463     1.711010126447     1.007825032230
         H            0.665045908895     3.109451076537     0.682684126447     1.007825032230
         H            2.973048908895    -2.547233923463     0.094154126447     1.007825032230
         H            3.720934908895     2.549326076537    -0.059368873553     1.007825032230
         H            4.639232908895    -0.423693923463    -1.097586873553     1.007825032230
         H           -3.808889091105    -1.522197923463     1.734228126447     1.007825032230
         H           -3.931040091105     1.445681076537     0.248886126447     1.007825032230
         H           -2.230256091105     1.893020076537    -0.059595873553     1.007825032230
         H           -3.801015091105     3.131022076537    -1.603170873553     1.007825032230
         H           -2.717690091105     2.053463076537    -2.505374873553     1.007825032230
         H           -4.401438091105     1.574463076537    -2.213223873553     1.007825032230

  Basis Set: AUG-CC-PVTZ
    Blend: AUG-CC-PVTZ
  Basis Set: (AUG-CC-PVTZ AUX)
    Blend: AUG-CC-PVTZ-JKFIT
	 Reference Energy          =   -1327.8606021821306058 [Eh]
	 Singles Energy            =      -0.0000000000000000 [Eh]
	 Same-Spin Energy          =      -1.0147685551933014 [Eh]
	 Opposite-Spin Energy      =      -3.0765007680656020 [Eh]
	 Correlation Energy        =      -4.0912693232589037 [Eh]
	 Total Energy              =   -1331.9518715053895903 [Eh]

	 ================> DF-SCS-MP2 Energies <==================
	-----------------------------------------------------------
	 SCS Same-Spin Scale       =       0.3333333333333333 [-]
	 SCS Opposite-Spin Scale   =       1.2000000000000000 [-]
	 SCS Same-Spin Energy      =      -0.3382561850644338 [Eh]
	 SCS Opposite-Spin Energy  =      -3.6918009216787224 [Eh]
	 SCS Correlation Energy    =      -4.0300571067431559 [Eh]
	 SCS Total Energy          =   -1331.8906592888738487 [Eh]
	-----------------------------------------------------------

  Dipole Moment: [D]
     X:    -1.1782      Y:     1.8632      Z:     0.6999     Total:     2.3129

*** Psi4 exiting successfully. Buy a developer a beer!
