                               Psi4 1.3.2 release

  ==> Input File <==

--------------------------------------------------------------------------
#psi4
#
memory 32 gb

molecule  {
0 1
  P       -2.2900960    -0.9400430     0.3446780
  O       -0.9821530    -0.2015620     0.9382890
  O        1.3422500    -1.6754830     1.2308510
  O        0.0787050     2.3596040     0.4621680
  O        3.0692138    -2.1851355    -0.7589044
  O        2.8473350     2.5031130     0.3715350
  O        4.1956880     0.4353970    -0.9728740
  O       -2.8268630     0.0333510    -0.8075310
  O       -3.2591210    -0.7232820     1.6216710
  O       -2.1189930    -2.3436440    -0.0996680
  C        0.1181620     0.0300090     0.0163190
  C        0.9532920    -1.2442050    -0.0757250
  C        0.8985890     1.2026440     0.5648510
  C        2.2596600    -1.0143070    -0.8180370
  C        2.1770750     1.3964720    -0.2280410
  C        3.0258420     0.1487050    -0.2103220
  C       -3.1242130     1.4315980    -0.4888860
  C       -3.5363170     2.0851650    -1.7841190
  H       -0.2830920     0.2988010    -0.9702380
  H        0.3702690    -2.0293640    -0.5720320
  H        1.1571200     0.9978770     1.6121560
  H        2.0404402    -0.7582752    -1.8616994
  H        1.9169870     1.6362870    -1.2735830
  H        3.2958550    -0.0945320     0.8276460
  H        0.5217750    -1.8880320     1.7115100
  H        0.6655400     3.1093110     0.6831840
  H        2.9735430    -2.5473740     0.0946540
  H        3.7214290     2.5491860    -0.0588690
  H        4.6397270    -0.4238340    -1.0970870
  H       -3.8083950    -1.5223380     1.7347280
  H       -3.9305460     1.4455410     0.2493860
  H       -2.2297620     1.8928800    -0.0590960
  H       -3.8005210     3.1308820    -1.6026710
  H       -2.7171960     2.0533230    -2.5048750
  H       -4.4009440     1.5743230    -2.2127240
units angstrom
no_reorient  #important for SAPT in psi4, default
symmetry c1  #important for SAPT in psi4, default
}

set PROPERTIES_ORIGIN ["COM"]
properties('MP2/aug-cc-pvtz', properties = ['dipole'])
--------------------------------------------------------------------------

    Molecular point group: c1
  Charge       = 0
  Multiplicity = 1
  Basis Set: AUG-CC-PVTZ
    Blend: AUG-CC-PVTZ
  Basis Set: (AUG-CC-PVTZ AUX)
    Blend: AUG-CC-PVTZ-JKFIT

    Orbital Energies [Eh]
    ---------------------

    Doubly Occupied:

       1A    -80.116863     2A    -20.614656     3A    -20.606854
       4A    -20.598907     5A    -20.582165     6A    -20.576682
       7A    -20.574230     8A    -20.573380     9A    -20.569948
      10A    -20.523372    11A    -11.320553    12A    -11.303123
      13A    -11.300814    14A    -11.299368    15A    -11.298477
      16A    -11.296463    17A    -11.290891    18A    -11.229885
      19A     -7.632313    20A     -5.530819    21A     -5.530446
      22A     -5.529244    23A     -1.460184    24A     -1.412460
      25A     -1.395695    26A     -1.394288    27A     -1.386887
      28A     -1.372519    29A     -1.366469    30A     -1.355296
      31A     -1.303768    32A     -1.119819    33A     -1.040472
      34A     -1.012478    35A     -1.005002    36A     -0.880298
      37A     -0.864920    38A     -0.861573    39A     -0.822655
      40A     -0.810953    41A     -0.752117    42A     -0.744862
      43A     -0.731671    44A     -0.728645    45A     -0.709092
      46A     -0.687490    47A     -0.683288    48A     -0.673679
      49A     -0.664064    50A     -0.662048    51A     -0.642987
      52A     -0.635359    53A     -0.627242    54A     -0.615403
      55A     -0.603671    56A     -0.599061    57A     -0.582046
      58A     -0.575670    59A     -0.570756    60A     -0.559422
      61A     -0.557461    62A     -0.548431    63A     -0.541252
      64A     -0.537912    65A     -0.529991    66A     -0.521674
      67A     -0.512772    68A     -0.504199    69A     -0.496836
      70A     -0.484015    71A     -0.479778    72A     -0.476451
      73A     -0.462340    74A     -0.455523    75A     -0.450084
      76A     -0.436117

  @DF-RHF Final Energy: -1327.86188817057132

   => Energetics <=

    Nuclear Repulsion Energy =           1773.1966077705269527
    One-Electron Energy =               -5358.4997943726993981
    Two-Electron Energy =                2257.4412984316008988
    Total Energy =                      -1327.8618881705715467
  Basis Set: (AUG-CC-PVTZ AUX)
    Blend: AUG-CC-PVTZ-RI
    Molecular point group: c1

    Geometry (in Angstrom), charge = 0, multiplicity = 1:

       Center              X                  Y                   Z               Mass
    ------------   -----------------  -----------------  -----------------  -----------------
         P           -2.290063068170    -0.940256814501     0.341880458322    30.973761998420
         O           -0.982120068170    -0.201775814501     0.935491458322    15.994914619570
         O            1.342282931830    -1.675696814501     1.228053458322    15.994914619570
         O            0.078737931830     2.359390185499     0.459370458322    15.994914619570
         O            3.069246731830    -2.185349314501    -0.761701941678    15.994914619570
         O            2.847367931830     2.502899185499     0.368737458322    15.994914619570
         O            4.195720931830     0.435183185499    -0.975671541678    15.994914619570
         O           -2.826830068170     0.033137185499    -0.810328541678    15.994914619570
         O           -3.259088068170    -0.723495814501     1.618873458322    15.994914619570
         O           -2.118960068170    -2.343857814501    -0.102465541678    15.994914619570
         C            0.118194931830     0.029795185499     0.013521458322    12.000000000000
         C            0.953324931830    -1.244418814501    -0.078522541678    12.000000000000
         C            0.898621931830     1.202430185499     0.562053458322    12.000000000000
         C            2.259692931830    -1.014520814501    -0.820834541678    12.000000000000
         C            2.177107931830     1.396258185499    -0.230838541678    12.000000000000
         C            3.025874931830     0.148491185499    -0.213119541678    12.000000000000
         C           -3.124180068170     1.431384185499    -0.491683541678    12.000000000000
         C           -3.536284068170     2.084951185499    -1.786916541678    12.000000000000
         H           -0.283059068170     0.298587185499    -0.973035541678     1.007825032230
         H            0.370301931830    -2.029577814501    -0.574829541678     1.007825032230
         H            1.157152931830     0.997663185499     1.609358458322     1.007825032230
         H            2.040473131830    -0.758489014501    -1.864496941678     1.007825032230
         H            1.917019931830     1.636073185499    -1.276380541678     1.007825032230
         H            3.295887931830    -0.094745814501     0.824848458322     1.007825032230
         H            0.521807931830    -1.888245814501     1.708712458322     1.007825032230
         H            0.665572931830     3.109097185499     0.680386458322     1.007825032230
         H            2.973575931830    -2.547587814501     0.091856458322     1.007825032230
         H            3.721461931830     2.548972185499    -0.061666541678     1.007825032230
         H            4.639759931830    -0.424047814501    -1.099884541678     1.007825032230
         H           -3.808362068170    -1.522551814501     1.731930458322     1.007825032230
         H           -3.930513068170     1.445327185499     0.246588458322     1.007825032230
         H           -2.229729068170     1.892666185499    -0.061893541678     1.007825032230
         H           -3.800488068170     3.130668185499    -1.605468541678     1.007825032230
         H           -2.717163068170     2.053109185499    -2.507672541678     1.007825032230
         H           -4.400911068170     1.574109185499    -2.215521541678     1.007825032230

  Basis Set: AUG-CC-PVTZ
    Blend: AUG-CC-PVTZ
  Basis Set: (AUG-CC-PVTZ AUX)
    Blend: AUG-CC-PVTZ-JKFIT
	 Reference Energy          =   -1327.8618881705713193 [Eh]
	 Singles Energy            =      -0.0000000000000000 [Eh]
	 Same-Spin Energy          =      -1.0139745554588440 [Eh]
	 Opposite-Spin Energy      =      -3.0745419591559542 [Eh]
	 Correlation Energy        =      -4.0885165146147981 [Eh]
	 Total Energy              =   -1331.9504046851861858 [Eh]

	 ================> DF-SCS-MP2 Energies <==================
	-----------------------------------------------------------
	 SCS Same-Spin Scale       =       0.3333333333333333 [-]
	 SCS Opposite-Spin Scale   =       1.2000000000000000 [-]
	 SCS Same-Spin Energy      =      -0.3379915184862813 [Eh]
	 SCS Opposite-Spin Energy  =      -3.6894503509871450 [Eh]
	 SCS Correlation Energy    =      -4.0274418694734262 [Eh]
	 SCS Total Energy          =   -1331.8893300400447970 [Eh]
	-----------------------------------------------------------

  Dipole Moment: [D]
     X:    -1.1180      Y:     1.8641      Z:     0.6511     Total:     2.2691

*** Psi4 exiting successfully. Buy a developer a beer!
