                               Psi4 1.3.2 release

  ==> Input File <==

--------------------------------------------------------------------------
#psi4
#
memory 32 gb

molecule  {
0 1
  P       -2.2900960    -0.9400430     0.3446780
  O       -0.9897712    -0.1898917     0.9403889
  O        1.3422500    -1.6754830     1.2308510
  O        0.0787050     2.3596040     0.4621680
  O        3.0685150    -2.1870720    -0.8085900
  O        2.8473350     2.5031130     0.3715350
  O        4.1956880     0.4353970    -0.9728740
  O       -2.8268630     0.0333510    -0.8075310
  O       -3.2591210    -0.7232820     1.6216710
  O       -2.1314786    -2.3440449    -0.1030212
  C        0.1181620     0.0300090     0.0163190
  C        0.9532920    -1.2442050    -0.0757250
  C        0.8985890     1.2026440     0.5648510
  C        2.2596600    -1.0143070    -0.8180370
  C        2.1770750     1.3964720    -0.2280410
  C        3.0258420     0.1487050    -0.2103220
  C       -3.1242130     1.4315980    -0.4888860
  C       -3.5363170     2.0851650    -1.7841190
  H       -0.2830920     0.2988010    -0.9702380
  H        0.3702690    -2.0293640    -0.5720320
  H        1.1571200     0.9978770     1.6121560
  H        2.0609340    -0.7886600    -1.8727560
  H        1.9169870     1.6362870    -1.2735830
  H        3.2958550    -0.0945320     0.8276460
  H        0.5217750    -1.8880320     1.7115100
  H        0.6655400     3.1093110     0.6831840
  H        2.9735430    -2.5473740     0.0946540
  H        3.7214290     2.5491860    -0.0588690
  H        4.6397270    -0.4238340    -1.0970870
  H       -3.8083950    -1.5223380     1.7347280
  H       -3.9305460     1.4455410     0.2493860
  H       -2.2297620     1.8928800    -0.0590960
  H       -3.8005210     3.1308820    -1.6026710
  H       -2.7171960     2.0533230    -2.5048750
  H       -4.4009440     1.5743230    -2.2127240
units angstrom
no_reorient  #important for SAPT in psi4, default
symmetry c1  #important for SAPT in psi4, default
}

set PROPERTIES_ORIGIN ["COM"]
properties('MP2/aug-cc-pvtz', properties = ['dipole'])
--------------------------------------------------------------------------

    Molecular point group: c1
  Charge       = 0
  Multiplicity = 1
  Basis Set: AUG-CC-PVTZ
    Blend: AUG-CC-PVTZ
  Basis Set: (AUG-CC-PVTZ AUX)
    Blend: AUG-CC-PVTZ-JKFIT

    Orbital Energies [Eh]
    ---------------------

    Doubly Occupied:

       1A    -80.116518     2A    -20.613765     3A    -20.607760
       4A    -20.597933     5A    -20.583953     6A    -20.577064
       7A    -20.575237     8A    -20.574487     9A    -20.573597
      10A    -20.523911    11A    -11.321630    12A    -11.304641
      13A    -11.300105    14A    -11.299014    15A    -11.298744
      16A    -11.297024    17A    -11.291897    18A    -11.229449
      19A     -7.631998    20A     -5.530518    21A     -5.530120
      22A     -5.528929    23A     -1.459699    24A     -1.410911
      25A     -1.394577    26A     -1.393151    27A     -1.386065
      28A     -1.372843    29A     -1.364388    30A     -1.354222
      31A     -1.304038    32A     -1.119674    33A     -1.039928
      34A     -1.012465    35A     -1.004021    36A     -0.880233
      37A     -0.864567    38A     -0.859400    39A     -0.821964
      40A     -0.811104    41A     -0.752020    42A     -0.745321
      43A     -0.731514    44A     -0.727726    45A     -0.707834
      46A     -0.687219    47A     -0.678663    48A     -0.673505
      49A     -0.662471    50A     -0.660890    51A     -0.643256
      52A     -0.634966    53A     -0.627300    54A     -0.615400
      55A     -0.603376    56A     -0.598959    57A     -0.581878
      58A     -0.575095    59A     -0.571176    60A     -0.559486
      61A     -0.557106    62A     -0.548309    63A     -0.540946
      64A     -0.537030    65A     -0.529665    66A     -0.522114
      67A     -0.512983    68A     -0.504662    69A     -0.497052
      70A     -0.485320    71A     -0.479575    72A     -0.476620
      73A     -0.463094    74A     -0.456213    75A     -0.450823
      76A     -0.436896

  @DF-RHF Final Energy: -1327.86105542108203

   => Energetics <=

    Nuclear Repulsion Energy =           1772.1471753734640515
    One-Electron Energy =               -5356.4204494539990264
    Two-Electron Energy =                2256.4122186594531740
    Total Energy =                      -1327.8610554210818009
  Basis Set: (AUG-CC-PVTZ AUX)
    Blend: AUG-CC-PVTZ-RI
    Molecular point group: c1

    Geometry (in Angstrom), charge = 0, multiplicity = 1:

       Center              X                  Y                   Z               Mass
    ------------   -----------------  -----------------  -----------------  -----------------
         P           -2.288979680882    -0.940668728535     0.344747581673    30.973761998420
         O           -0.988654880882    -0.190517428535     0.940458481673    15.994914619570
         O            1.343366319118    -1.676108728535     1.230920581673    15.994914619570
         O            0.079821319118     2.358978271465     0.462237581673    15.994914619570
         O            3.069631319118    -2.187697728535    -0.808520418327    15.994914619570
         O            2.848451319118     2.502487271465     0.371604581673    15.994914619570
         O            4.196804319118     0.434771271465    -0.972804418327    15.994914619570
         O           -2.825746680882     0.032725271465    -0.807461418327    15.994914619570
         O           -3.258004680882    -0.723907728535     1.621740581673    15.994914619570
         O           -2.130362280882    -2.344670628535    -0.102951618327    15.994914619570
         C            0.119278319118     0.029383271465     0.016388581673    12.000000000000
         C            0.954408319118    -1.244830728535    -0.075655418327    12.000000000000
         C            0.899705319118     1.202018271465     0.564920581673    12.000000000000
         C            2.260776319118    -1.014932728535    -0.817967418327    12.000000000000
         C            2.178191319118     1.395846271465    -0.227971418327    12.000000000000
         C            3.026958319118     0.148079271465    -0.210252418327    12.000000000000
         C           -3.123096680882     1.430972271465    -0.488816418327    12.000000000000
         C           -3.535200680882     2.084539271465    -1.784049418327    12.000000000000
         H           -0.281975680882     0.298175271465    -0.970168418327     1.007825032230
         H            0.371385319118    -2.029989728535    -0.571962418327     1.007825032230
         H            1.158236319118     0.997251271465     1.612225581673     1.007825032230
         H            2.062050319118    -0.789285728535    -1.872686418327     1.007825032230
         H            1.918103319118     1.635661271465    -1.273513418327     1.007825032230
         H            3.296971319118    -0.095157728535     0.827715581673     1.007825032230
         H            0.522891319118    -1.888657728535     1.711579581673     1.007825032230
         H            0.666656319118     3.108685271465     0.683253581673     1.007825032230
         H            2.974659319118    -2.547999728535     0.094723581673     1.007825032230
         H            3.722545319118     2.548560271465    -0.058799418327     1.007825032230
         H            4.640843319118    -0.424459728535    -1.097017418327     1.007825032230
         H           -3.807278680882    -1.522963728535     1.734797581673     1.007825032230
         H           -3.929429680882     1.444915271465     0.249455581673     1.007825032230
         H           -2.228645680882     1.892254271465    -0.059026418327     1.007825032230
         H           -3.799404680882     3.130256271465    -1.602601418327     1.007825032230
         H           -2.716079680882     2.052697271465    -2.504805418327     1.007825032230
         H           -4.399827680882     1.573697271465    -2.212654418327     1.007825032230

  Basis Set: AUG-CC-PVTZ
    Blend: AUG-CC-PVTZ
  Basis Set: (AUG-CC-PVTZ AUX)
    Blend: AUG-CC-PVTZ-JKFIT
	 Reference Energy          =   -1327.8610554210820283 [Eh]
	 Singles Energy            =      -0.0000000000000000 [Eh]
	 Same-Spin Energy          =      -1.0146565914805696 [Eh]
	 Opposite-Spin Energy      =      -3.0762898387925870 [Eh]
	 Correlation Energy        =      -4.0909464302731564 [Eh]
	 Total Energy              =   -1331.9520018513551349 [Eh]

	 ================> DF-SCS-MP2 Energies <==================
	-----------------------------------------------------------
	 SCS Same-Spin Scale       =       0.3333333333333333 [-]
	 SCS Opposite-Spin Scale   =       1.2000000000000000 [-]
	 SCS Same-Spin Energy      =      -0.3382188638268565 [Eh]
	 SCS Opposite-Spin Energy  =      -3.6915478065511040 [Eh]
	 SCS Correlation Energy    =      -4.0297666703779607 [Eh]
	 SCS Total Energy          =   -1331.8908220914599951 [Eh]
	-----------------------------------------------------------

  Dipole Moment: [D]
     X:    -1.0207      Y:     1.8366      Z:     0.7227     Total:     2.2220

*** Psi4 exiting successfully. Buy a developer a beer!
