                               Psi4 1.3.2 release

  ==> Input File <==

--------------------------------------------------------------------------
#psi4
#
memory 32 gb

molecule  {
0 1
  P       -2.2900960    -0.9400430     0.3446780
  O       -0.9821530    -0.2015620     0.9382890
  O        1.3422500    -1.6754830     1.2308510
  O        0.0787050     2.3596040     0.4621680
  O        3.0685150    -2.1870720    -0.8085900
  O        2.8473350     2.5031130     0.3715350
  O        4.1956880     0.4353970    -0.9728740
  O       -2.8268630     0.0333510    -0.8075310
  O       -3.2591210    -0.7232820     1.6216710
  O       -2.1189930    -2.3436440    -0.0996680
  C        0.1181620     0.0300090     0.0163190
  C        0.9465902    -1.2420261    -0.0869629
  C        0.8985890     1.2026440     0.5648510
  C        2.2596600    -1.0143070    -0.8180370
  C        2.1770750     1.3964720    -0.2280410
  C        3.0258420     0.1487050    -0.2103220
  C       -3.1242130     1.4315980    -0.4888860
  C       -3.5363170     2.0851650    -1.7841190
  H       -0.2830920     0.2988010    -0.9702380
  H        0.3702690    -2.0293640    -0.5720320
  H        1.1571200     0.9978770     1.6121560
  H        2.0515404    -0.7894870    -1.8711196
  H        1.9169870     1.6362870    -1.2735830
  H        3.2958550    -0.0945320     0.8276460
  H        0.5217750    -1.8880320     1.7115100
  H        0.6655400     3.1093110     0.6831840
  H        2.9735430    -2.5473740     0.0946540
  H        3.7214290     2.5491860    -0.0588690
  H        4.6397270    -0.4238340    -1.0970870
  H       -3.8083950    -1.5223380     1.7347280
  H       -3.9305460     1.4455410     0.2493860
  H       -2.2297620     1.8928800    -0.0590960
  H       -3.8005210     3.1308820    -1.6026710
  H       -2.7171960     2.0533230    -2.5048750
  H       -4.4009440     1.5743230    -2.2127240
units angstrom
no_reorient  #important for SAPT in psi4, default
symmetry c1  #important for SAPT in psi4, default
}

set PROPERTIES_ORIGIN ["COM"]
properties('MP2/aug-cc-pvtz', properties = ['dipole'])
--------------------------------------------------------------------------

    Molecular point group: c1
  Charge       = 0
  Multiplicity = 1
  Basis Set: AUG-CC-PVTZ
    Blend: AUG-CC-PVTZ
  Basis Set: (AUG-CC-PVTZ AUX)
    Blend: AUG-CC-PVTZ-JKFIT

    Orbital Energies [Eh]
    ---------------------

    Doubly Occupied:

       1A    -80.117093     2A    -20.614825     3A    -20.607245
       4A    -20.599061     5A    -20.581681     6A    -20.576904
       7A    -20.574885     8A    -20.574219     9A    -20.573679
      10A    -20.523608    11A    -11.321166    12A    -11.303476
      13A    -11.299757    14A    -11.299483    15A    -11.298943
      16A    -11.296842    17A    -11.291741    18A    -11.229949
      19A     -7.632544    20A     -5.531050    21A     -5.530677
      22A     -5.529476    23A     -1.460399    24A     -1.409707
      25A     -1.394614    26A     -1.392127    27A     -1.386965
      28A     -1.371745    29A     -1.363086    30A     -1.353552
      31A     -1.304004    32A     -1.119694    33A     -1.040559
      34A     -1.012715    35A     -1.004111    36A     -0.880505
      37A     -0.865048    38A     -0.859695    39A     -0.822562
      40A     -0.809885    41A     -0.751253    42A     -0.745046
      43A     -0.731828    44A     -0.728610    45A     -0.708065
      46A     -0.687310    47A     -0.676853    48A     -0.673628
      49A     -0.662270    50A     -0.660966    51A     -0.643383
      52A     -0.635078    53A     -0.627047    54A     -0.614935
      55A     -0.603793    56A     -0.598523    57A     -0.581984
      58A     -0.575660    59A     -0.570682    60A     -0.559333
      61A     -0.556626    62A     -0.548071    63A     -0.541127
      64A     -0.536493    65A     -0.529194    66A     -0.521503
      67A     -0.513185    68A     -0.504228    69A     -0.497251
      70A     -0.484967    71A     -0.480060    72A     -0.476792
      73A     -0.462902    74A     -0.456016    75A     -0.451106
      76A     -0.437462

  @DF-RHF Final Energy: -1327.86096685075540

   => Energetics <=

    Nuclear Repulsion Energy =           1772.3970970382038104
    One-Electron Energy =               -5356.9311104411872293
    Two-Electron Energy =                2256.6730465522277882
    Total Energy =                      -1327.8609668507556307
  Basis Set: (AUG-CC-PVTZ AUX)
    Blend: AUG-CC-PVTZ-RI
    Molecular point group: c1

    Geometry (in Angstrom), charge = 0, multiplicity = 1:

       Center              X                  Y                   Z               Mass
    ------------   -----------------  -----------------  -----------------  -----------------
         P           -2.289783919720    -0.940130857210     0.345140412223    30.973761998420
         O           -0.981840919720    -0.201649857210     0.938751412223    15.994914619570
         O            1.342562080280    -1.675570857210     1.231313412223    15.994914619570
         O            0.079017080280     2.359516142790     0.462630412223    15.994914619570
         O            3.068827080280    -2.187159857210    -0.808127587777    15.994914619570
         O            2.847647080280     2.503025142790     0.371997412223    15.994914619570
         O            4.196000080280     0.435309142790    -0.972411587777    15.994914619570
         O           -2.826550919720     0.033263142790    -0.807068587777    15.994914619570
         O           -3.258808919720    -0.723369857210     1.622133412223    15.994914619570
         O           -2.118680919720    -2.343731857210    -0.099205587777    15.994914619570
         C            0.118474080280     0.029921142790     0.016781412223    12.000000000000
         C            0.946902280280    -1.242113957210    -0.086500487777    12.000000000000
         C            0.898901080280     1.202556142790     0.565313412223    12.000000000000
         C            2.259972080280    -1.014394857210    -0.817574587777    12.000000000000
         C            2.177387080280     1.396384142790    -0.227578587777    12.000000000000
         C            3.026154080280     0.148617142790    -0.209859587777    12.000000000000
         C           -3.123900919720     1.431510142790    -0.488423587777    12.000000000000
         C           -3.536004919720     2.085077142790    -1.783656587777    12.000000000000
         H           -0.282779919720     0.298713142790    -0.969775587777     1.007825032230
         H            0.370581080280    -2.029451857210    -0.571569587777     1.007825032230
         H            1.157432080280     0.997789142790     1.612618412223     1.007825032230
         H            2.051852480280    -0.789574857210    -1.870657187777     1.007825032230
         H            1.917299080280     1.636199142790    -1.273120587777     1.007825032230
         H            3.296167080280    -0.094619857210     0.828108412223     1.007825032230
         H            0.522087080280    -1.888119857210     1.711972412223     1.007825032230
         H            0.665852080280     3.109223142790     0.683646412223     1.007825032230
         H            2.973855080280    -2.547461857210     0.095116412223     1.007825032230
         H            3.721741080280     2.549098142790    -0.058406587777     1.007825032230
         H            4.640039080280    -0.423921857210    -1.096624587777     1.007825032230
         H           -3.808082919720    -1.522425857210     1.735190412223     1.007825032230
         H           -3.930233919720     1.445453142790     0.249848412223     1.007825032230
         H           -2.229449919720     1.892792142790    -0.058633587777     1.007825032230
         H           -3.800208919720     3.130794142790    -1.602208587777     1.007825032230
         H           -2.716883919720     2.053235142790    -2.504412587777     1.007825032230
         H           -4.400631919720     1.574235142790    -2.212261587777     1.007825032230

  Basis Set: AUG-CC-PVTZ
    Blend: AUG-CC-PVTZ
  Basis Set: (AUG-CC-PVTZ AUX)
    Blend: AUG-CC-PVTZ-JKFIT
	 Reference Energy          =   -1327.8609668507554034 [Eh]
	 Singles Energy            =      -0.0000000000000000 [Eh]
	 Same-Spin Energy          =      -1.0146312592894620 [Eh]
	 Opposite-Spin Energy      =      -3.0763095118973451 [Eh]
	 Correlation Energy        =      -4.0909407711868067 [Eh]
	 Total Energy              =   -1331.9519076219421549 [Eh]

	 ================> DF-SCS-MP2 Energies <==================
	-----------------------------------------------------------
	 SCS Same-Spin Scale       =       0.3333333333333333 [-]
	 SCS Opposite-Spin Scale   =       1.2000000000000000 [-]
	 SCS Same-Spin Energy      =      -0.3382104197631540 [Eh]
	 SCS Opposite-Spin Energy  =      -3.6915714142768139 [Eh]
	 SCS Correlation Energy    =      -4.0297818340399676 [Eh]
	 SCS Total Energy          =   -1331.8907486847954260 [Eh]
	-----------------------------------------------------------

  Dipole Moment: [D]
     X:    -1.1253      Y:     1.8767      Z:     0.6919     Total:     2.2950

*** Psi4 exiting successfully. Buy a developer a beer!
