                               Psi4 1.3.2 release

  ==> Input File <==

--------------------------------------------------------------------------
#psi4
#
memory 32 gb

molecule  {
0 1
  P       -2.2900960    -0.9400430     0.3446780
  O       -0.9821530    -0.2015620     0.9382890
  O        1.3422500    -1.6754830     1.2308510
  O        0.0787050     2.3596040     0.4621680
  O        3.0685150    -2.1870720    -0.8085900
  O        2.8473350     2.5031130     0.3715350
  O        4.1956880     0.4353970    -0.9728740
  O       -2.8268630     0.0333510    -0.8075310
  O       -3.2591210    -0.7232820     1.6216710
  O       -2.1189930    -2.3436440    -0.0996680
  C        0.1282896     0.0361360     0.0224259
  C        0.9532920    -1.2442050    -0.0757250
  C        0.8985890     1.2026440     0.5648510
  C        2.2596600    -1.0143070    -0.8180370
  C        2.1770750     1.3964720    -0.2280410
  C        3.0258420     0.1487050    -0.2103220
  C       -3.1242130     1.4315980    -0.4888860
  C       -3.5363170     2.0851650    -1.7841190
  H       -0.2830920     0.2988010    -0.9702380
  H        0.3776505    -2.0353821    -0.5710902
  H        1.1571200     0.9978770     1.6121560
  H        2.0609340    -0.7886600    -1.8727560
  H        1.9169870     1.6362870    -1.2735830
  H        3.2958550    -0.0945320     0.8276460
  H        0.5217750    -1.8880320     1.7115100
  H        0.6655400     3.1093110     0.6831840
  H        2.9735430    -2.5473740     0.0946540
  H        3.7214290     2.5491860    -0.0588690
  H        4.6397270    -0.4238340    -1.0970870
  H       -3.8083950    -1.5223380     1.7347280
  H       -3.9305460     1.4455410     0.2493860
  H       -2.2297620     1.8928800    -0.0590960
  H       -3.8005210     3.1308820    -1.6026710
  H       -2.7171960     2.0533230    -2.5048750
  H       -4.4009440     1.5743230    -2.2127240
units angstrom
no_reorient  #important for SAPT in psi4, default
symmetry c1  #important for SAPT in psi4, default
}

set PROPERTIES_ORIGIN ["COM"]
properties('MP2/aug-cc-pvtz', properties = ['dipole'])
--------------------------------------------------------------------------

    Molecular point group: c1
  Charge       = 0
  Multiplicity = 1
  Basis Set: AUG-CC-PVTZ
    Blend: AUG-CC-PVTZ
  Basis Set: (AUG-CC-PVTZ AUX)
    Blend: AUG-CC-PVTZ-JKFIT

    Orbital Energies [Eh]
    ---------------------

    Doubly Occupied:

       1A    -80.116614     2A    -20.614461     3A    -20.605997
       4A    -20.598604     5A    -20.582950     6A    -20.577112
       7A    -20.574776     8A    -20.574320     9A    -20.573933
      10A    -20.523036    11A    -11.321501    12A    -11.303952
      13A    -11.299413    14A    -11.299165    15A    -11.298671
      16A    -11.297171    17A    -11.291702    18A    -11.229707
      19A     -7.632023    20A     -5.530523    21A     -5.530168
      22A     -5.528962    23A     -1.459326    24A     -1.410835
      25A     -1.394519    26A     -1.392967    27A     -1.386548
      28A     -1.372475    29A     -1.364258    30A     -1.354052
      31A     -1.303406    32A     -1.120505    33A     -1.040259
      34A     -1.012546    35A     -1.004415    36A     -0.880183
      37A     -0.864770    38A     -0.859529    39A     -0.822157
      40A     -0.810345    41A     -0.752016    42A     -0.744843
      43A     -0.731627    44A     -0.727915    45A     -0.708197
      46A     -0.687105    47A     -0.678276    48A     -0.673383
      49A     -0.662426    50A     -0.660949    51A     -0.643206
      52A     -0.635081    53A     -0.627006    54A     -0.615407
      55A     -0.603450    56A     -0.598966    57A     -0.582168
      58A     -0.575201    59A     -0.570713    60A     -0.559270
      61A     -0.556671    62A     -0.548200    63A     -0.540944
      64A     -0.537001    65A     -0.529022    66A     -0.522359
      67A     -0.513008    68A     -0.504175    69A     -0.497275
      70A     -0.484427    71A     -0.479687    72A     -0.476276
      73A     -0.462864    74A     -0.456174    75A     -0.450952
      76A     -0.436696

  @DF-RHF Final Energy: -1327.86106660987252

   => Energetics <=

    Nuclear Repulsion Energy =           1772.4549194596202142
    One-Electron Energy =               -5357.0503830747857137
    Two-Electron Energy =                2256.7343970052929762
    Total Energy =                      -1327.8610666098725233
  Basis Set: (AUG-CC-PVTZ AUX)
    Blend: AUG-CC-PVTZ-RI
    Molecular point group: c1

    Geometry (in Angstrom), charge = 0, multiplicity = 1:

       Center              X                  Y                   Z               Mass
    ------------   -----------------  -----------------  -----------------  -----------------
         P           -2.290543686406    -0.940277164682     0.344420295474    30.973761998420
         O           -0.982600686406    -0.201796164682     0.938031295474    15.994914619570
         O            1.341802313594    -1.675717164682     1.230593295474    15.994914619570
         O            0.078257313594     2.359369835318     0.461910295474    15.994914619570
         O            3.068067313594    -2.187306164682    -0.808847704526    15.994914619570
         O            2.846887313594     2.502878835318     0.371277295474    15.994914619570
         O            4.195240313594     0.435162835318    -0.973131704526    15.994914619570
         O           -2.827310686406     0.033116835318    -0.807788704526    15.994914619570
         O           -3.259568686406    -0.723516164682     1.621413295474    15.994914619570
         O           -2.119440686406    -2.343878164682    -0.099925704526    15.994914619570
         C            0.127841913594     0.035901835318     0.022168195474    12.000000000000
         C            0.952844313594    -1.244439164682    -0.075982704526    12.000000000000
         C            0.898141313594     1.202409835318     0.564593295474    12.000000000000
         C            2.259212313594    -1.014541164682    -0.818294704526    12.000000000000
         C            2.176627313594     1.396237835318    -0.228298704526    12.000000000000
         C            3.025394313594     0.148470835318    -0.210579704526    12.000000000000
         C           -3.124660686406     1.431363835318    -0.489143704526    12.000000000000
         C           -3.536764686406     2.084930835318    -1.784376704526    12.000000000000
         H           -0.283539686406     0.298566835318    -0.970495704526     1.007825032230
         H            0.377202813594    -2.035616264682    -0.571347904526     1.007825032230
         H            1.156672313594     0.997642835318     1.611898295474     1.007825032230
         H            2.060486313594    -0.788894164682    -1.873013704526     1.007825032230
         H            1.916539313594     1.636052835318    -1.273840704526     1.007825032230
         H            3.295407313594    -0.094766164682     0.827388295474     1.007825032230
         H            0.521327313594    -1.888266164682     1.711252295474     1.007825032230
         H            0.665092313594     3.109076835318     0.682926295474     1.007825032230
         H            2.973095313594    -2.547608164682     0.094396295474     1.007825032230
         H            3.720981313594     2.548951835318    -0.059126704526     1.007825032230
         H            4.639279313594    -0.424068164682    -1.097344704526     1.007825032230
         H           -3.808842686406    -1.522572164682     1.734470295474     1.007825032230
         H           -3.930993686406     1.445306835318     0.249128295474     1.007825032230
         H           -2.230209686406     1.892645835318    -0.059353704526     1.007825032230
         H           -3.800968686406     3.130647835318    -1.602928704526     1.007825032230
         H           -2.717643686406     2.053088835318    -2.505132704526     1.007825032230
         H           -4.401391686406     1.574088835318    -2.212981704526     1.007825032230

  Basis Set: AUG-CC-PVTZ
    Blend: AUG-CC-PVTZ
  Basis Set: (AUG-CC-PVTZ AUX)
    Blend: AUG-CC-PVTZ-JKFIT
	 Reference Energy          =   -1327.8610666098725233 [Eh]
	 Singles Energy            =      -0.0000000000000000 [Eh]
	 Same-Spin Energy          =      -1.0146685951314640 [Eh]
	 Opposite-Spin Energy      =      -3.0761616106498599 [Eh]
	 Correlation Energy        =      -4.0908302057813239 [Eh]
	 Total Energy              =   -1331.9518968156537539 [Eh]

	 ================> DF-SCS-MP2 Energies <==================
	-----------------------------------------------------------
	 SCS Same-Spin Scale       =       0.3333333333333333 [-]
	 SCS Opposite-Spin Scale   =       1.2000000000000000 [-]
	 SCS Same-Spin Energy      =      -0.3382228650438213 [Eh]
	 SCS Opposite-Spin Energy  =      -3.6913939327798317 [Eh]
	 SCS Correlation Energy    =      -4.0296167978236532 [Eh]
	 SCS Total Energy          =   -1331.8906834076960877 [Eh]
	-----------------------------------------------------------

  Dipole Moment: [D]
     X:    -1.0713      Y:     1.8727      Z:     0.7194     Total:     2.2743

*** Psi4 exiting successfully. Buy a developer a beer!
