                               Psi4 1.3.2 release

  ==> Input File <==

--------------------------------------------------------------------------
#psi4
#
memory 32 gb

molecule  {
0 1
  P       -2.2900960    -0.9400430     0.3446780
  O       -0.9821530    -0.2015620     0.9382890
  O        1.3422500    -1.6754830     1.2308510
  O        0.0787050     2.3596040     0.4621680
  O        3.0685150    -2.1870720    -0.8085900
  O        2.8473350     2.5031130     0.3715350
  O        4.1956880     0.4353970    -0.9728740
  O       -2.8268630     0.0333510    -0.8075310
  O       -3.2613353    -0.7372105     1.6222769
  O       -2.1268772    -2.3475472    -0.0901864
  C        0.1181620     0.0300090     0.0163190
  C        0.9532920    -1.2442050    -0.0757250
  C        0.8985890     1.2026440     0.5648510
  C        2.2596600    -1.0143070    -0.8180370
  C        2.1770750     1.3964720    -0.2280410
  C        3.0258420     0.1487050    -0.2103220
  C       -3.1242130     1.4315980    -0.4888860
  C       -3.5363170     2.0851650    -1.7841190
  H       -0.2830920     0.2988010    -0.9702380
  H        0.3702690    -2.0293640    -0.5720320
  H        1.1571200     0.9978770     1.6121560
  H        2.0609340    -0.7886600    -1.8727560
  H        1.9169870     1.6362870    -1.2735830
  H        3.2958550    -0.0945320     0.8276460
  H        0.5217750    -1.8880320     1.7115100
  H        0.6655400     3.1093110     0.6831840
  H        2.9735430    -2.5473740     0.0946540
  H        3.7214290     2.5491860    -0.0588690
  H        4.6397270    -0.4238340    -1.0970870
  H       -3.8083950    -1.5223380     1.7347280
  H       -3.9305460     1.4455410     0.2493860
  H       -2.2297620     1.8928800    -0.0590960
  H       -3.8005210     3.1308820    -1.6026710
  H       -2.7171960     2.0533230    -2.5048750
  H       -4.4009440     1.5743230    -2.2127240
units angstrom
no_reorient  #important for SAPT in psi4, default
symmetry c1  #important for SAPT in psi4, default
}

set PROPERTIES_ORIGIN ["COM"]
properties('MP2/aug-cc-pvtz', properties = ['dipole'])
--------------------------------------------------------------------------

    Molecular point group: c1
  Charge       = 0
  Multiplicity = 1
  Basis Set: AUG-CC-PVTZ
    Blend: AUG-CC-PVTZ
  Basis Set: (AUG-CC-PVTZ AUX)
    Blend: AUG-CC-PVTZ-JKFIT

    Orbital Energies [Eh]
    ---------------------

    Doubly Occupied:

       1A    -80.117116     2A    -20.612417     3A    -20.607779
       4A    -20.599719     5A    -20.583372     6A    -20.577029
       7A    -20.574833     8A    -20.574308     9A    -20.573776
      10A    -20.522575    11A    -11.321281    12A    -11.303938
      13A    -11.299885    14A    -11.299638    15A    -11.298963
      16A    -11.296967    17A    -11.291685    18A    -11.230197
      19A     -7.632518    20A     -5.531013    21A     -5.530663
      22A     -5.529455    23A     -1.460775    24A     -1.411308
      25A     -1.395321    26A     -1.393461    27A     -1.387955
      28A     -1.373116    29A     -1.364215    30A     -1.354093
      31A     -1.303200    32A     -1.119414    33A     -1.040893
      34A     -1.012415    35A     -1.003769    36A     -0.881003
      37A     -0.865326    38A     -0.859430    39A     -0.823853
      40A     -0.811018    41A     -0.752181    42A     -0.746169
      43A     -0.732501    44A     -0.728897    45A     -0.708724
      46A     -0.687406    47A     -0.678320    48A     -0.673663
      49A     -0.662321    50A     -0.661147    51A     -0.643454
      52A     -0.635290    53A     -0.627734    54A     -0.615701
      55A     -0.603863    56A     -0.598739    57A     -0.581642
      58A     -0.575843    59A     -0.571414    60A     -0.559403
      61A     -0.556783    62A     -0.548730    63A     -0.541411
      64A     -0.536811    65A     -0.530289    66A     -0.521988
      67A     -0.513477    68A     -0.504602    69A     -0.497085
      70A     -0.485097    71A     -0.479833    72A     -0.476043
      73A     -0.462533    74A     -0.456130    75A     -0.450383
      76A     -0.436545

  @DF-RHF Final Energy: -1327.86222206486855

   => Energetics <=

    Nuclear Repulsion Energy =           1772.2327006620243992
    One-Electron Energy =               -5356.5661516885202218
    Two-Electron Energy =                2256.4712289616272756
    Total Energy =                      -1327.8622220648685470
  Basis Set: (AUG-CC-PVTZ AUX)
    Blend: AUG-CC-PVTZ-RI
    Molecular point group: c1

    Geometry (in Angstrom), charge = 0, multiplicity = 1:

       Center              X                  Y                   Z               Mass
    ------------   -----------------  -----------------  -----------------  -----------------
         P           -2.289535236506    -0.939052856970     0.344117870898    30.973761998420
         O           -0.981592236506    -0.200571856970     0.937728870898    15.994914619570
         O            1.342810763494    -1.674492856970     1.230290870898    15.994914619570
         O            0.079265763494     2.360594143030     0.461607870898    15.994914619570
         O            3.069075763494    -2.186081856970    -0.809150129102    15.994914619570
         O            2.847895763494     2.504103143030     0.370974870898    15.994914619570
         O            4.196248763494     0.436387143030    -0.973434129102    15.994914619570
         O           -2.826302236506     0.034341143030    -0.808091129102    15.994914619570
         O           -3.260774536506    -0.736220356970     1.621716770898    15.994914619570
         O           -2.126316436506    -2.346557056970    -0.090746529102    15.994914619570
         C            0.118722763494     0.030999143030     0.015758870898    12.000000000000
         C            0.953852763494    -1.243214856970    -0.076285129102    12.000000000000
         C            0.899149763494     1.203634143030     0.564290870898    12.000000000000
         C            2.260220763494    -1.013316856970    -0.818597129102    12.000000000000
         C            2.177635763494     1.397462143030    -0.228601129102    12.000000000000
         C            3.026402763494     0.149695143030    -0.210882129102    12.000000000000
         C           -3.123652236506     1.432588143030    -0.489446129102    12.000000000000
         C           -3.535756236506     2.086155143030    -1.784679129102    12.000000000000
         H           -0.282531236506     0.299791143030    -0.970798129102     1.007825032230
         H            0.370829763494    -2.028373856970    -0.572592129102     1.007825032230
         H            1.157680763494     0.998867143030     1.611595870898     1.007825032230
         H            2.061494763494    -0.787669856970    -1.873316129102     1.007825032230
         H            1.917547763494     1.637277143030    -1.274143129102     1.007825032230
         H            3.296415763494    -0.093541856970     0.827085870898     1.007825032230
         H            0.522335763494    -1.887041856970     1.710949870898     1.007825032230
         H            0.666100763494     3.110301143030     0.682623870898     1.007825032230
         H            2.974103763494    -2.546383856970     0.094093870898     1.007825032230
         H            3.721989763494     2.550176143030    -0.059429129102     1.007825032230
         H            4.640287763494    -0.422843856970    -1.097647129102     1.007825032230
         H           -3.807834236506    -1.521347856970     1.734167870898     1.007825032230
         H           -3.929985236506     1.446531143030     0.248825870898     1.007825032230
         H           -2.229201236506     1.893870143030    -0.059656129102     1.007825032230
         H           -3.799960236506     3.131872143030    -1.603231129102     1.007825032230
         H           -2.716635236506     2.054313143030    -2.505435129102     1.007825032230
         H           -4.400383236506     1.575313143030    -2.213284129102     1.007825032230

  Basis Set: AUG-CC-PVTZ
    Blend: AUG-CC-PVTZ
  Basis Set: (AUG-CC-PVTZ AUX)
    Blend: AUG-CC-PVTZ-JKFIT
	 Reference Energy          =   -1327.8622220648685470 [Eh]
	 Singles Energy            =      -0.0000000000000000 [Eh]
	 Same-Spin Energy          =      -1.0143737483976720 [Eh]
	 Opposite-Spin Energy      =      -3.0755911100184283 [Eh]
	 Correlation Energy        =      -4.0899648584161001 [Eh]
	 Total Energy              =   -1331.9521869232846711 [Eh]

	 ================> DF-SCS-MP2 Energies <==================
	-----------------------------------------------------------
	 SCS Same-Spin Scale       =       0.3333333333333333 [-]
	 SCS Opposite-Spin Scale   =       1.2000000000000000 [-]
	 SCS Same-Spin Energy      =      -0.3381245827992240 [Eh]
	 SCS Opposite-Spin Energy  =      -3.6907093320221138 [Eh]
	 SCS Correlation Energy    =      -4.0288339148213375 [Eh]
	 SCS Total Energy          =   -1331.8910559796897815 [Eh]
	-----------------------------------------------------------

  Dipole Moment: [D]
     X:    -1.0689      Y:     1.9178      Z:     0.6818     Total:     2.2990

*** Psi4 exiting successfully. Buy a developer a beer!
