                               Psi4 1.3.2 release

  ==> Input File <==

--------------------------------------------------------------------------
#psi4
#
memory 32 gb

molecule  {
0 1
  P       -2.2900960    -0.9400430     0.3446780
  O       -0.9821530    -0.2015620     0.9382890
  O        1.3422500    -1.6754830     1.2308510
  O        0.0787050     2.3596040     0.4621680
  O        3.0685150    -2.1870720    -0.8085900
  O        2.8473350     2.5031130     0.3715350
  O        4.1956880     0.4353970    -0.9728740
  O       -2.8268630     0.0333510    -0.8075310
  O       -3.2591210    -0.7232820     1.6216710
  O       -2.1189930    -2.3436440    -0.0996680
  C        0.1181620     0.0300090     0.0163190
  C        0.9427356    -1.2844397    -0.1086597
  C        0.8985890     1.2026440     0.5648510
  C        2.2596600    -1.0143070    -0.8180370
  C        2.1770750     1.3964720    -0.2280410
  C        3.0639889     0.1412186    -0.2464034
  C       -3.1242130     1.4315980    -0.4888860
  C       -3.5363170     2.0851650    -1.7841190
  H       -0.2830920     0.2988010    -0.9702380
  H        0.3702690    -2.0293640    -0.5720320
  H        1.1571200     0.9978770     1.6121560
  H        2.0609340    -0.7886600    -1.8727560
  H        1.9169870     1.6362870    -1.2735830
  H        3.2958550    -0.0945320     0.8276460
  H        0.5217750    -1.8880320     1.7115100
  H        0.6655400     3.1093110     0.6831840
  H        2.9735430    -2.5473740     0.0946540
  H        3.7214290     2.5491860    -0.0588690
  H        4.6397270    -0.4238340    -1.0970870
  H       -3.8083950    -1.5223380     1.7347280
  H       -3.9305460     1.4455410     0.2493860
  H       -2.2297620     1.8928800    -0.0590960
  H       -3.8005210     3.1308820    -1.6026710
  H       -2.7171960     2.0533230    -2.5048750
  H       -4.4009440     1.5743230    -2.2127240
units angstrom
no_reorient  #important for SAPT in psi4, default
symmetry c1  #important for SAPT in psi4, default
}

set PROPERTIES_ORIGIN ["COM"]
properties('MP2/aug-cc-pvtz', properties = ['dipole'])
--------------------------------------------------------------------------

    Molecular point group: c1
  Charge       = 0
  Multiplicity = 1
  Basis Set: AUG-CC-PVTZ
    Blend: AUG-CC-PVTZ
  Basis Set: (AUG-CC-PVTZ AUX)
    Blend: AUG-CC-PVTZ-JKFIT

    Orbital Energies [Eh]
    ---------------------

    Doubly Occupied:

       1A    -80.116617     2A    -20.614396     3A    -20.605944
       4A    -20.598489     5A    -20.580994     6A    -20.580430
       7A    -20.575924     8A    -20.573150     9A    -20.572524
      10A    -20.523674    11A    -11.320947    12A    -11.303611
      13A    -11.298963    14A    -11.298308    15A    -11.298202
      16A    -11.295929    17A    -11.293368    18A    -11.229526
      19A     -7.632069    20A     -5.530576    21A     -5.530199
      22A     -5.529010    23A     -1.459427    24A     -1.414085
      25A     -1.399550    26A     -1.390674    27A     -1.386704
      28A     -1.377060    29A     -1.361555    30A     -1.355801
      31A     -1.304020    32A     -1.112044    33A     -1.040010
      34A     -1.006800    35A     -1.003045    36A     -0.882006
      37A     -0.865190    38A     -0.858989    39A     -0.821609
      40A     -0.806575    41A     -0.751573    42A     -0.745986
      43A     -0.733865    44A     -0.727520    45A     -0.706263
      46A     -0.690583    47A     -0.677849    48A     -0.672646
      49A     -0.665990    50A     -0.660108    51A     -0.642901
      52A     -0.636841    53A     -0.626752    54A     -0.614706
      55A     -0.603117    56A     -0.599326    57A     -0.583931
      58A     -0.575032    59A     -0.570574    60A     -0.560057
      61A     -0.558681    62A     -0.548134    63A     -0.541043
      64A     -0.537851    65A     -0.529438    66A     -0.521502
      67A     -0.512543    68A     -0.503189    69A     -0.497510
      70A     -0.482044    71A     -0.479440    72A     -0.475712
      73A     -0.461105    74A     -0.449605    75A     -0.446425
      76A     -0.437306

  @DF-RHF Final Energy: -1327.85603458583364

   => Energetics <=

    Nuclear Repulsion Energy =           1771.1210819799537148
    One-Electron Energy =               -5354.4039495246497609
    Two-Electron Energy =                2255.4268329588626329
    Total Energy =                      -1327.8560345858336404
  Basis Set: (AUG-CC-PVTZ AUX)
    Blend: AUG-CC-PVTZ-RI
    Molecular point group: c1

    Geometry (in Angstrom), charge = 0, multiplicity = 1:

       Center              X                  Y                   Z               Mass
    ------------   -----------------  -----------------  -----------------  -----------------
         P           -2.291245327815    -0.938055024352     0.347553052458    30.973761998420
         O           -0.983302327815    -0.199574024352     0.941164052458    15.994914619570
         O            1.341100672185    -1.673495024352     1.233726052458    15.994914619570
         O            0.077555672185     2.361591975648     0.465043052458    15.994914619570
         O            3.067365672185    -2.185084024352    -0.805714947542    15.994914619570
         O            2.846185672185     2.505100975648     0.374410052458    15.994914619570
         O            4.194538672185     0.437384975648    -0.969998947542    15.994914619570
         O           -2.828012327815     0.035338975648    -0.804655947542    15.994914619570
         O           -3.260270327815    -0.721294024352     1.624546052458    15.994914619570
         O           -2.120142327815    -2.341656024352    -0.096792947542    15.994914619570
         C            0.117012672185     0.031996975648     0.019194052458    12.000000000000
         C            0.941586272185    -1.282451724352    -0.105784647542    12.000000000000
         C            0.897439672185     1.204631975648     0.567726052458    12.000000000000
         C            2.258510672185    -1.012319024352    -0.815161947542    12.000000000000
         C            2.175925672185     1.398459975648    -0.225165947542    12.000000000000
         C            3.062839572185     0.143206575648    -0.243528347542    12.000000000000
         C           -3.125362327815     1.433585975648    -0.486010947542    12.000000000000
         C           -3.537466327815     2.087152975648    -1.781243947542    12.000000000000
         H           -0.284241327815     0.300788975648    -0.967362947542     1.007825032230
         H            0.369119672185    -2.027376024352    -0.569156947542     1.007825032230
         H            1.155970672185     0.999864975648     1.615031052458     1.007825032230
         H            2.059784672185    -0.786672024352    -1.869880947542     1.007825032230
         H            1.915837672185     1.638274975648    -1.270707947542     1.007825032230
         H            3.294705672185    -0.092544024352     0.830521052458     1.007825032230
         H            0.520625672185    -1.886044024352     1.714385052458     1.007825032230
         H            0.664390672185     3.111298975648     0.686059052458     1.007825032230
         H            2.972393672185    -2.545386024352     0.097529052458     1.007825032230
         H            3.720279672185     2.551173975648    -0.055993947542     1.007825032230
         H            4.638577672185    -0.421846024352    -1.094211947542     1.007825032230
         H           -3.809544327815    -1.520350024352     1.737603052458     1.007825032230
         H           -3.931695327815     1.447528975648     0.252261052458     1.007825032230
         H           -2.230911327815     1.894867975648    -0.056220947542     1.007825032230
         H           -3.801670327815     3.132869975648    -1.599795947542     1.007825032230
         H           -2.718345327815     2.055310975648    -2.501999947542     1.007825032230
         H           -4.402093327815     1.576310975648    -2.209848947542     1.007825032230

  Basis Set: AUG-CC-PVTZ
    Blend: AUG-CC-PVTZ
  Basis Set: (AUG-CC-PVTZ AUX)
    Blend: AUG-CC-PVTZ-JKFIT
	 Reference Energy          =   -1327.8560345858336404 [Eh]
	 Singles Energy            =      -0.0000000000000000 [Eh]
	 Same-Spin Energy          =      -1.0142503669276337 [Eh]
	 Opposite-Spin Energy      =      -3.0756819373484201 [Eh]
	 Correlation Energy        =      -4.0899323042760543 [Eh]
	 Total Energy              =   -1331.9459668901097302 [Eh]

	 ================> DF-SCS-MP2 Energies <==================
	-----------------------------------------------------------
	 SCS Same-Spin Scale       =       0.3333333333333333 [-]
	 SCS Opposite-Spin Scale   =       1.2000000000000000 [-]
	 SCS Same-Spin Energy      =      -0.3380834556425446 [Eh]
	 SCS Opposite-Spin Energy  =      -3.6908183248181041 [Eh]
	 SCS Correlation Energy    =      -4.0289017804606484 [Eh]
	 SCS Total Energy          =   -1331.8849363662943688 [Eh]
	-----------------------------------------------------------

  Dipole Moment: [D]
     X:    -0.9696      Y:     1.8735      Z:     0.5692     Total:     2.1850

*** Psi4 exiting successfully. Buy a developer a beer!
