                               Psi4 1.3.2 release

  ==> Input File <==

--------------------------------------------------------------------------
#psi4
#
memory 32 gb

molecule  {
0 1
  P       -2.2900960    -0.9400430     0.3446780
  O       -0.9781239    -0.1918855     0.9454407
  O        1.3422500    -1.6754830     1.2308510
  O        0.0787050     2.3596040     0.4621680
  O        3.0685150    -2.1870720    -0.8085900
  O        2.8473350     2.5031130     0.3715350
  O        4.1956880     0.4353970    -0.9728740
  O       -2.8268630     0.0333510    -0.8075310
  O       -3.2591210    -0.7232820     1.6216710
  O       -2.1189930    -2.3436440    -0.0996680
  C        0.1181620     0.0300090     0.0163190
  C        0.9532920    -1.2442050    -0.0757250
  C        0.8901665     1.2034408     0.5749722
  C        2.2596600    -1.0143070    -0.8180370
  C        2.1770750     1.3964720    -0.2280410
  C        3.0258420     0.1487050    -0.2103220
  C       -3.1242130     1.4315980    -0.4888860
  C       -3.5363170     2.0851650    -1.7841190
  H       -0.2830920     0.2988010    -0.9702380
  H        0.3702690    -2.0293640    -0.5720320
  H        1.1571200     0.9978770     1.6121560
  H        2.0609340    -0.7886600    -1.8727560
  H        1.9169870     1.6362870    -1.2735830
  H        3.2958550    -0.0945320     0.8276460
  H        0.5217750    -1.8880320     1.7115100
  H        0.6655400     3.1093110     0.6831840
  H        2.9735430    -2.5473740     0.0946540
  H        3.7214290     2.5491860    -0.0588690
  H        4.6397270    -0.4238340    -1.0970870
  H       -3.8083950    -1.5223380     1.7347280
  H       -3.9305460     1.4455410     0.2493860
  H       -2.2297620     1.8928800    -0.0590960
  H       -3.8005210     3.1308820    -1.6026710
  H       -2.7171960     2.0533230    -2.5048750
  H       -4.4009440     1.5743230    -2.2127240
units angstrom
no_reorient  #important for SAPT in psi4, default
symmetry c1  #important for SAPT in psi4, default
}

set PROPERTIES_ORIGIN ["COM"]
properties('MP2/aug-cc-pvtz', properties = ['dipole'])
--------------------------------------------------------------------------

    Molecular point group: c1
  Charge       = 0
  Multiplicity = 1
  Basis Set: AUG-CC-PVTZ
    Blend: AUG-CC-PVTZ
  Basis Set: (AUG-CC-PVTZ AUX)
    Blend: AUG-CC-PVTZ-JKFIT

    Orbital Energies [Eh]
    ---------------------

    Doubly Occupied:

       1A    -80.118044     2A    -20.615139     3A    -20.606773
       4A    -20.599636     5A    -20.582977     6A    -20.576145
       7A    -20.574378     8A    -20.573692     9A    -20.573497
      10A    -20.524698    11A    -11.319738    12A    -11.303418
      13A    -11.299633    14A    -11.299081    15A    -11.297824
      16A    -11.296197    17A    -11.290862    18A    -11.230052
      19A     -7.633339    20A     -5.531853    21A     -5.531436
      22A     -5.530272    23A     -1.459130    24A     -1.410638
      25A     -1.393978    26A     -1.393027    27A     -1.387295
      28A     -1.372290    29A     -1.364124    30A     -1.353572
      31A     -1.304833    32A     -1.117353    33A     -1.040697
      34A     -1.010983    35A     -1.002043    36A     -0.879080
      37A     -0.864750    38A     -0.859196    39A     -0.822059
      40A     -0.810733    41A     -0.751661    42A     -0.744840
      43A     -0.731448    44A     -0.727961    45A     -0.707265
      46A     -0.687269    47A     -0.678072    48A     -0.673723
      49A     -0.662156    50A     -0.660613    51A     -0.642891
      52A     -0.634423    53A     -0.627117    54A     -0.615326
      55A     -0.603186    56A     -0.598335    57A     -0.582236
      58A     -0.575771    59A     -0.570673    60A     -0.559415
      61A     -0.556600    62A     -0.548345    63A     -0.541481
      64A     -0.536597    65A     -0.529632    66A     -0.521041
      67A     -0.513124    68A     -0.504209    69A     -0.497147
      70A     -0.484715    71A     -0.480398    72A     -0.477305
      73A     -0.461042    74A     -0.455009    75A     -0.449927
      76A     -0.435972

  @DF-RHF Final Energy: -1327.86044935814289

   => Energetics <=

    Nuclear Repulsion Energy =           1772.0623830476588410
    One-Electron Energy =               -5356.2828758203422694
    Two-Electron Energy =                2256.3600434145405416
    Total Energy =                      -1327.8604493581428869
  Basis Set: (AUG-CC-PVTZ AUX)
    Blend: AUG-CC-PVTZ-RI
    Molecular point group: c1

    Geometry (in Angstrom), charge = 0, multiplicity = 1:

       Center              X                  Y                   Z               Mass
    ------------   -----------------  -----------------  -----------------  -----------------
         P           -2.289968824349    -0.940613473925     0.343859257185    30.973761998420
         O           -0.977996724349    -0.192455973925     0.944621957185    15.994914619570
         O            1.342377175651    -1.676053473925     1.230032257185    15.994914619570
         O            0.078832175651     2.359033526075     0.461349257185    15.994914619570
         O            3.068642175651    -2.187642473925    -0.809408742815    15.994914619570
         O            2.847462175651     2.502542526075     0.370716257185    15.994914619570
         O            4.195815175651     0.434826526075    -0.973692742815    15.994914619570
         O           -2.826735824349     0.032780526075    -0.808349742815    15.994914619570
         O           -3.258993824349    -0.723852473925     1.620852257185    15.994914619570
         O           -2.118865824349    -2.344214473925    -0.100486742815    15.994914619570
         C            0.118289175651     0.029438526075     0.015500257185    12.000000000000
         C            0.953419175651    -1.244775473925    -0.076543742815    12.000000000000
         C            0.890293675651     1.202870326075     0.574153457185    12.000000000000
         C            2.259787175651    -1.014877473925    -0.818855742815    12.000000000000
         C            2.177202175651     1.395901526075    -0.228859742815    12.000000000000
         C            3.025969175651     0.148134526075    -0.211140742815    12.000000000000
         C           -3.124085824349     1.431027526075    -0.489704742815    12.000000000000
         C           -3.536189824349     2.084594526075    -1.784937742815    12.000000000000
         H           -0.282964824349     0.298230526075    -0.971056742815     1.007825032230
         H            0.370396175651    -2.029934473925    -0.572850742815     1.007825032230
         H            1.157247175651     0.997306526075     1.611337257185     1.007825032230
         H            2.061061175651    -0.789230473925    -1.873574742815     1.007825032230
         H            1.917114175651     1.635716526075    -1.274401742815     1.007825032230
         H            3.295982175651    -0.095102473925     0.826827257185     1.007825032230
         H            0.521902175651    -1.888602473925     1.710691257185     1.007825032230
         H            0.665667175651     3.108740526075     0.682365257185     1.007825032230
         H            2.973670175651    -2.547944473925     0.093835257185     1.007825032230
         H            3.721556175651     2.548615526075    -0.059687742815     1.007825032230
         H            4.639854175651    -0.424404473925    -1.097905742815     1.007825032230
         H           -3.808267824349    -1.522908473925     1.733909257185     1.007825032230
         H           -3.930418824349     1.444970526075     0.248567257185     1.007825032230
         H           -2.229634824349     1.892309526075    -0.059914742815     1.007825032230
         H           -3.800393824349     3.130311526075    -1.603489742815     1.007825032230
         H           -2.717068824349     2.052752526075    -2.505693742815     1.007825032230
         H           -4.400816824349     1.573752526075    -2.213542742815     1.007825032230

  Basis Set: AUG-CC-PVTZ
    Blend: AUG-CC-PVTZ
  Basis Set: (AUG-CC-PVTZ AUX)
    Blend: AUG-CC-PVTZ-JKFIT
	 Reference Energy          =   -1327.8604493581428869 [Eh]
	 Singles Energy            =      -0.0000000000000000 [Eh]
	 Same-Spin Energy          =      -1.0147278906430413 [Eh]
	 Opposite-Spin Energy      =      -3.0764637584691794 [Eh]
	 Correlation Energy        =      -4.0911916491122202 [Eh]
	 Total Energy              =   -1331.9516410072551480 [Eh]

	 ================> DF-SCS-MP2 Energies <==================
	-----------------------------------------------------------
	 SCS Same-Spin Scale       =       0.3333333333333333 [-]
	 SCS Opposite-Spin Scale   =       1.2000000000000000 [-]
	 SCS Same-Spin Energy      =      -0.3382426302143471 [Eh]
	 SCS Opposite-Spin Energy  =      -3.6917565101630152 [Eh]
	 SCS Correlation Energy    =      -4.0299991403773623 [Eh]
	 SCS Total Energy          =   -1331.8904484985202998 [Eh]
	-----------------------------------------------------------

  Dipole Moment: [D]
     X:    -1.1831      Y:     1.8407      Z:     0.7169     Total:     2.3026

*** Psi4 exiting successfully. Buy a developer a beer!
