                               Psi4 1.3.2 release

  ==> Input File <==

--------------------------------------------------------------------------
#psi4
#
memory 32 gb

molecule  {
0 1
  P       -2.2900960    -0.9400430     0.3446780
  O       -0.9821530    -0.2015620     0.9382890
  O        1.3422500    -1.6754830     1.2308510
  O        0.0774468     2.3497708     0.3883981
  O        3.0685150    -2.1870720    -0.8085900
  O        2.8473350     2.5031130     0.3715350
  O        4.1956880     0.4353970    -0.9728740
  O       -2.8268630     0.0333510    -0.8075310
  O       -3.2591210    -0.7232820     1.6216710
  O       -2.1189930    -2.3436440    -0.0996680
  C        0.1181620     0.0300090     0.0163190
  C        0.9532920    -1.2442050    -0.0757250
  C        0.8985890     1.2026440     0.5648510
  C        2.2596600    -1.0143070    -0.8180370
  C        2.1770750     1.3964720    -0.2280410
  C        3.0258420     0.1487050    -0.2103220
  C       -3.1242130     1.4315980    -0.4888860
  C       -3.5363170     2.0851650    -1.7841190
  H       -0.2830920     0.2988010    -0.9702380
  H        0.3702690    -2.0293640    -0.5720320
  H        1.1870726     0.9521952     1.5942529
  H        2.0609340    -0.7886600    -1.8727560
  H        1.9169870     1.6362870    -1.2735830
  H        3.2958550    -0.0945320     0.8276460
  H        0.5217750    -1.8880320     1.7115100
  H        0.6655400     3.1093110     0.6831840
  H        2.9735430    -2.5473740     0.0946540
  H        3.7214290     2.5491860    -0.0588690
  H        4.6397270    -0.4238340    -1.0970870
  H       -3.8083950    -1.5223380     1.7347280
  H       -3.9305460     1.4455410     0.2493860
  H       -2.2297620     1.8928800    -0.0590960
  H       -3.8005210     3.1308820    -1.6026710
  H       -2.7171960     2.0533230    -2.5048750
  H       -4.4009440     1.5743230    -2.2127240
units angstrom
no_reorient  #important for SAPT in psi4, default
symmetry c1  #important for SAPT in psi4, default
}

set PROPERTIES_ORIGIN ["COM"]
properties('MP2/aug-cc-pvtz', properties = ['dipole'])
--------------------------------------------------------------------------

    Molecular point group: c1
  Charge       = 0
  Multiplicity = 1
  Basis Set: AUG-CC-PVTZ
    Blend: AUG-CC-PVTZ
  Basis Set: (AUG-CC-PVTZ AUX)
    Blend: AUG-CC-PVTZ-JKFIT

    Orbital Energies [Eh]
    ---------------------

    Doubly Occupied:

       1A    -80.116818     2A    -20.614706     3A    -20.606848
       4A    -20.598716     5A    -20.583155     6A    -20.578983
       7A    -20.576428     8A    -20.574190     9A    -20.573525
      10A    -20.523280    11A    -11.319388    12A    -11.302768
      13A    -11.299144    14A    -11.298828    15A    -11.298775
      16A    -11.294928    17A    -11.290563    18A    -11.229602
      19A     -7.632264    20A     -5.530771    21A     -5.530396
      22A     -5.529194    23A     -1.460151    24A     -1.410572
      25A     -1.394314    26A     -1.392410    27A     -1.386661
      28A     -1.372014    29A     -1.362903    30A     -1.353074
      31A     -1.303662    32A     -1.118225    33A     -1.040213
      34A     -1.011280    35A     -1.002658    36A     -0.880093
      37A     -0.864675    38A     -0.857494    39A     -0.822136
      40A     -0.810406    41A     -0.751697    42A     -0.744353
      43A     -0.729459    44A     -0.728358    45A     -0.707660
      46A     -0.687167    47A     -0.677895    48A     -0.673354
      49A     -0.662188    50A     -0.660163    51A     -0.642616
      52A     -0.631412    53A     -0.627075    54A     -0.614734
      55A     -0.604155    56A     -0.597956    57A     -0.581388
      58A     -0.575424    59A     -0.571232    60A     -0.559458
      61A     -0.555557    62A     -0.548442    63A     -0.540877
      64A     -0.536306    65A     -0.529541    66A     -0.522311
      67A     -0.512934    68A     -0.504911    69A     -0.496812
      70A     -0.485604    71A     -0.479491    72A     -0.476430
      73A     -0.461743    74A     -0.454400    75A     -0.450141
      76A     -0.435719

  @DF-RHF Final Energy: -1327.85658507703897

   => Energetics <=

    Nuclear Repulsion Energy =           1773.0825345575383380
    One-Electron Energy =               -5358.3478901310008951
    Two-Electron Energy =                2257.4087704964235854
    Total Energy =                      -1327.8565850770387442
  Basis Set: (AUG-CC-PVTZ AUX)
    Blend: AUG-CC-PVTZ-RI
    Molecular point group: c1

    Geometry (in Angstrom), charge = 0, multiplicity = 1:

       Center              X                  Y                   Z               Mass
    ------------   -----------------  -----------------  -----------------  -----------------
         P           -2.290130897885    -0.939337158065     0.348836784792    30.973761998420
         O           -0.982187897885    -0.200856158065     0.942447784792    15.994914619570
         O            1.342215102115    -1.674777158065     1.235009784792    15.994914619570
         O            0.077411902115     2.350476641935     0.392556884792    15.994914619570
         O            3.068480102115    -2.186366158065    -0.804431215208    15.994914619570
         O            2.847300102115     2.503818841935     0.375693784792    15.994914619570
         O            4.195653102115     0.436102841935    -0.968715215208    15.994914619570
         O           -2.826897897885     0.034056841935    -0.803372215208    15.994914619570
         O           -3.259155897885    -0.722576158065     1.625829784792    15.994914619570
         O           -2.119027897885    -2.342938158065    -0.095509215208    15.994914619570
         C            0.118127102115     0.030714841935     0.020477784792    12.000000000000
         C            0.953257102115    -1.243499158065    -0.071566215208    12.000000000000
         C            0.898554102115     1.203349841935     0.569009784792    12.000000000000
         C            2.259625102115    -1.013601158065    -0.813878215208    12.000000000000
         C            2.177040102115     1.397177841935    -0.223882215208    12.000000000000
         C            3.025807102115     0.149410841935    -0.206163215208    12.000000000000
         C           -3.124247897885     1.432303841935    -0.484727215208    12.000000000000
         C           -3.536351897885     2.085870841935    -1.779960215208    12.000000000000
         H           -0.283126897885     0.299506841935    -0.966079215208     1.007825032230
         H            0.370234102115    -2.028658158065    -0.567873215208     1.007825032230
         H            1.187037702115     0.952901041935     1.598411684792     1.007825032230
         H            2.060899102115    -0.787954158065    -1.868597215208     1.007825032230
         H            1.916952102115     1.636992841935    -1.269424215208     1.007825032230
         H            3.295820102115    -0.093826158065     0.831804784792     1.007825032230
         H            0.521740102115    -1.887326158065     1.715668784792     1.007825032230
         H            0.665505102115     3.110016841935     0.687342784792     1.007825032230
         H            2.973508102115    -2.546668158065     0.098812784792     1.007825032230
         H            3.721394102115     2.549891841935    -0.054710215208     1.007825032230
         H            4.639692102115    -0.423128158065    -1.092928215208     1.007825032230
         H           -3.808429897885    -1.521632158065     1.738886784792     1.007825032230
         H           -3.930580897885     1.446246841935     0.253544784792     1.007825032230
         H           -2.229796897885     1.893585841935    -0.054937215208     1.007825032230
         H           -3.800555897885     3.131587841935    -1.598512215208     1.007825032230
         H           -2.717230897885     2.054028841935    -2.500716215208     1.007825032230
         H           -4.400978897885     1.575028841935    -2.208565215208     1.007825032230

  Basis Set: AUG-CC-PVTZ
    Blend: AUG-CC-PVTZ
  Basis Set: (AUG-CC-PVTZ AUX)
    Blend: AUG-CC-PVTZ-JKFIT
	 Reference Energy          =   -1327.8565850770389716 [Eh]
	 Singles Energy            =      -0.0000000000000000 [Eh]
	 Same-Spin Energy          =      -1.0153046281133329 [Eh]
	 Opposite-Spin Energy      =      -3.0775350608988803 [Eh]
	 Correlation Energy        =      -4.0928396890122132 [Eh]
	 Total Energy              =   -1331.9494247660511519 [Eh]

	 ================> DF-SCS-MP2 Energies <==================
	-----------------------------------------------------------
	 SCS Same-Spin Scale       =       0.3333333333333333 [-]
	 SCS Opposite-Spin Scale   =       1.2000000000000000 [-]
	 SCS Same-Spin Energy      =      -0.3384348760377776 [Eh]
	 SCS Opposite-Spin Energy  =      -3.6930420730786562 [Eh]
	 SCS Correlation Energy    =      -4.0314769491164339 [Eh]
	 SCS Total Energy          =   -1331.8880620261554668 [Eh]
	-----------------------------------------------------------

  Dipole Moment: [D]
     X:    -1.1437      Y:     1.9096      Z:     0.8570     Total:     2.3851

*** Psi4 exiting successfully. Buy a developer a beer!
