                               Psi4 1.3.2 release

  ==> Input File <==

--------------------------------------------------------------------------
#psi4
#
memory 32 gb

molecule  {
0 1
  P       -2.2900960    -0.9400430     0.3446780
  O       -0.9821530    -0.2015620     0.9382890
  O        1.3422500    -1.6754830     1.2308510
  O        0.0787050     2.3596040     0.4621680
  O        3.0685150    -2.1870720    -0.8085900
  O        2.8473350     2.5031130     0.3715350
  O        4.1956880     0.4353970    -0.9728740
  O       -2.8268630     0.0333510    -0.8075310
  O       -3.2591210    -0.7232820     1.6216710
  O       -2.1189930    -2.3436440    -0.0996680
  C        0.1181620     0.0300090     0.0163190
  C        0.9669935    -1.2485101    -0.0534196
  C        0.8985890     1.2026440     0.5648510
  C        2.2596600    -1.0143070    -0.8180370
  C        2.1770750     1.3964720    -0.2280410
  C        3.0258420     0.1487050    -0.2103220
  C       -3.1242130     1.4315980    -0.4888860
  C       -3.5363170     2.0851650    -1.7841190
  H       -0.2830920     0.2988010    -0.9702380
  H        0.3702690    -2.0293640    -0.5720320
  H        1.1571200     0.9978770     1.6121560
  H        2.0797658    -0.7870577    -1.8757877
  H        1.9169870     1.6362870    -1.2735830
  H        3.2958550    -0.0945320     0.8276460
  H        0.5217750    -1.8880320     1.7115100
  H        0.6655400     3.1093110     0.6831840
  H        2.9735430    -2.5473740     0.0946540
  H        3.7214290     2.5491860    -0.0588690
  H        4.6397270    -0.4238340    -1.0970870
  H       -3.8083950    -1.5223380     1.7347280
  H       -3.9305460     1.4455410     0.2493860
  H       -2.2297620     1.8928800    -0.0590960
  H       -3.8005210     3.1308820    -1.6026710
  H       -2.7171960     2.0533230    -2.5048750
  H       -4.4009440     1.5743230    -2.2127240
units angstrom
no_reorient  #important for SAPT in psi4, default
symmetry c1  #important for SAPT in psi4, default
}

set PROPERTIES_ORIGIN ["COM"]
properties('MP2/aug-cc-pvtz', properties = ['dipole'])
--------------------------------------------------------------------------

    Molecular point group: c1
  Charge       = 0
  Multiplicity = 1
  Basis Set: AUG-CC-PVTZ
    Blend: AUG-CC-PVTZ
  Basis Set: (AUG-CC-PVTZ AUX)
    Blend: AUG-CC-PVTZ-JKFIT

    Orbital Energies [Eh]
    ---------------------

    Doubly Occupied:

       1A    -80.116681     2A    -20.614579     3A    -20.606673
       4A    -20.598724     5A    -20.586033     6A    -20.576661
       7A    -20.574140     8A    -20.573936     9A    -20.573118
      10A    -20.523119    11A    -11.320028    12A    -11.303930
      13A    -11.299217    14A    -11.298675    15A    -11.298076
      16A    -11.296469    17A    -11.290929    18A    -11.229716
      19A     -7.632128    20A     -5.530634    21A     -5.530262
      22A     -5.529059    23A     -1.460133    24A     -1.414486
      25A     -1.396127    26A     -1.393731    27A     -1.386675
      28A     -1.374889    29A     -1.365004    30A     -1.354159
      31A     -1.303514    32A     -1.117928    33A     -1.040290
      34A     -1.010869    35A     -1.002120    36A     -0.879975
      37A     -0.864739    38A     -0.857955    39A     -0.821907
      40A     -0.812437    41A     -0.753172    42A     -0.745454
      43A     -0.730883    44A     -0.728668    45A     -0.707756
      46A     -0.686992    47A     -0.681182    48A     -0.673850
      49A     -0.662444    50A     -0.660947    51A     -0.642870
      52A     -0.634865    53A     -0.627888    54A     -0.616333
      55A     -0.603305    56A     -0.598570    57A     -0.581357
      58A     -0.575416    59A     -0.571983    60A     -0.559590
      61A     -0.556590    62A     -0.549304    63A     -0.541302
      64A     -0.537035    65A     -0.530978    66A     -0.522035
      67A     -0.512958    68A     -0.504270    69A     -0.496680
      70A     -0.484473    71A     -0.479416    72A     -0.476287
      73A     -0.461509    74A     -0.455696    75A     -0.447862
      76A     -0.433786

  @DF-RHF Final Energy: -1327.86118595121252

   => Energetics <=

    Nuclear Repulsion Energy =           1772.5442659407920019
    One-Electron Energy =               -5357.2240439755423722
    Two-Electron Energy =                2256.8185920835380784
    Total Energy =                      -1327.8611859512125193
  Basis Set: (AUG-CC-PVTZ AUX)
    Blend: AUG-CC-PVTZ-RI
    Molecular point group: c1

    Geometry (in Angstrom), charge = 0, multiplicity = 1:

       Center              X                  Y                   Z               Mass
    ------------   -----------------  -----------------  -----------------  -----------------
         P           -2.290732627968    -0.939869247045     0.343759402834    30.973761998420
         O           -0.982789627968    -0.201388247045     0.937370402834    15.994914619570
         O            1.341613372032    -1.675309247045     1.229932402834    15.994914619570
         O            0.078068372032     2.359777752955     0.461249402834    15.994914619570
         O            3.067878372032    -2.186898247045    -0.809508597166    15.994914619570
         O            2.846698372032     2.503286752955     0.370616402834    15.994914619570
         O            4.195051372032     0.435570752955    -0.973792597166    15.994914619570
         O           -2.827499627968     0.033524752955    -0.808449597166    15.994914619570
         O           -3.259757627968    -0.723108247045     1.620752402834    15.994914619570
         O           -2.119629627968    -2.343470247045    -0.100586597166    15.994914619570
         C            0.117525372032     0.030182752955     0.015400402834    12.000000000000
         C            0.966356872032    -1.248336347045    -0.054338197166    12.000000000000
         C            0.897952372032     1.202817752955     0.563932402834    12.000000000000
         C            2.259023372032    -1.014133247045    -0.818955597166    12.000000000000
         C            2.176438372032     1.396645752955    -0.228959597166    12.000000000000
         C            3.025205372032     0.148878752955    -0.211240597166    12.000000000000
         C           -3.124849627968     1.431771752955    -0.489804597166    12.000000000000
         C           -3.536953627968     2.085338752955    -1.785037597166    12.000000000000
         H           -0.283728627968     0.298974752955    -0.971156597166     1.007825032230
         H            0.369632372032    -2.029190247045    -0.572950597166     1.007825032230
         H            1.156483372032     0.998050752955     1.611237402834     1.007825032230
         H            2.079129172032    -0.786883947045    -1.876706297166     1.007825032230
         H            1.916350372032     1.636460752955    -1.274501597166     1.007825032230
         H            3.295218372032    -0.094358247045     0.826727402834     1.007825032230
         H            0.521138372032    -1.887858247045     1.710591402834     1.007825032230
         H            0.664903372032     3.109484752955     0.682265402834     1.007825032230
         H            2.972906372032    -2.547200247045     0.093735402834     1.007825032230
         H            3.720792372032     2.549359752955    -0.059787597166     1.007825032230
         H            4.639090372032    -0.423660247045    -1.098005597166     1.007825032230
         H           -3.809031627968    -1.522164247045     1.733809402834     1.007825032230
         H           -3.931182627968     1.445714752955     0.248467402834     1.007825032230
         H           -2.230398627968     1.893053752955    -0.060014597166     1.007825032230
         H           -3.801157627968     3.131055752955    -1.603589597166     1.007825032230
         H           -2.717832627968     2.053496752955    -2.505793597166     1.007825032230
         H           -4.401580627968     1.574496752955    -2.213642597166     1.007825032230

  Basis Set: AUG-CC-PVTZ
    Blend: AUG-CC-PVTZ
  Basis Set: (AUG-CC-PVTZ AUX)
    Blend: AUG-CC-PVTZ-JKFIT
	 Reference Energy          =   -1327.8611859512125193 [Eh]
	 Singles Energy            =      -0.0000000000000000 [Eh]
	 Same-Spin Energy          =      -1.0145994255070434 [Eh]
	 Opposite-Spin Energy      =      -3.0757476185604173 [Eh]
	 Correlation Energy        =      -4.0903470440674603 [Eh]
	 Total Energy              =   -1331.9515329952798766 [Eh]

	 ================> DF-SCS-MP2 Energies <==================
	-----------------------------------------------------------
	 SCS Same-Spin Scale       =       0.3333333333333333 [-]
	 SCS Opposite-Spin Scale   =       1.2000000000000000 [-]
	 SCS Same-Spin Energy      =      -0.3381998085023478 [Eh]
	 SCS Opposite-Spin Energy  =      -3.6908971422725005 [Eh]
	 SCS Correlation Energy    =      -4.0290969507748482 [Eh]
	 SCS Total Energy          =   -1331.8902829019873479 [Eh]
	-----------------------------------------------------------

  Dipole Moment: [D]
     X:    -1.0885      Y:     1.8349      Z:     0.7823     Total:     2.2724

*** Psi4 exiting successfully. Buy a developer a beer!
