                               Psi4 1.3.2 release

  ==> Input File <==

--------------------------------------------------------------------------
#psi4
#
memory 32 gb

molecule  {
0 1
  P       -2.2900960    -0.9400430     0.3446780
  O       -0.9821530    -0.2015620     0.9382890
  O        1.3422500    -1.6754830     1.2308510
  O        0.0787050     2.3596040     0.4621680
  O        3.0685150    -2.1870720    -0.8085900
  O        2.8473350     2.5031130     0.3715350
  O        4.1956880     0.4353970    -0.9728740
  O       -2.8268630     0.0333510    -0.8075310
  O       -3.2591210    -0.7232820     1.6216710
  O       -2.1189930    -2.3436440    -0.0996680
  C        0.1181620     0.0300090     0.0163190
  C        0.9532920    -1.2442050    -0.0757250
  C        0.8576270     1.2176651     0.4984978
  C        2.2596600    -1.0143070    -0.8180370
  C        2.1770750     1.3964720    -0.2280410
  C        3.0258420     0.1487050    -0.2103220
  C       -3.1242130     1.4315980    -0.4888860
  C       -3.5363170     2.0851650    -1.7841190
  H       -0.2830920     0.2988010    -0.9702380
  H        0.3702690    -2.0293640    -0.5720320
  H        1.1571200     0.9978770     1.6121560
  H        2.0609340    -0.7886600    -1.8727560
  H        1.8612049     1.6324577    -1.2589881
  H        3.2958550    -0.0945320     0.8276460
  H        0.5217750    -1.8880320     1.7115100
  H        0.6655400     3.1093110     0.6831840
  H        2.9735430    -2.5473740     0.0946540
  H        3.7214290     2.5491860    -0.0588690
  H        4.6397270    -0.4238340    -1.0970870
  H       -3.8083950    -1.5223380     1.7347280
  H       -3.9305460     1.4455410     0.2493860
  H       -2.2297620     1.8928800    -0.0590960
  H       -3.8005210     3.1308820    -1.6026710
  H       -2.7171960     2.0533230    -2.5048750
  H       -4.4009440     1.5743230    -2.2127240
units angstrom
no_reorient  #important for SAPT in psi4, default
symmetry c1  #important for SAPT in psi4, default
}

set PROPERTIES_ORIGIN ["COM"]
properties('MP2/aug-cc-pvtz', properties = ['dipole'])
--------------------------------------------------------------------------

    Molecular point group: c1
  Charge       = 0
  Multiplicity = 1
  Basis Set: AUG-CC-PVTZ
    Blend: AUG-CC-PVTZ
  Basis Set: (AUG-CC-PVTZ AUX)
    Blend: AUG-CC-PVTZ-JKFIT

    Orbital Energies [Eh]
    ---------------------

    Doubly Occupied:

       1A    -80.117289     2A    -20.614986     3A    -20.607589
       4A    -20.599276     5A    -20.582439     6A    -20.578472
       7A    -20.577357     8A    -20.574559     9A    -20.573965
      10A    -20.523644    11A    -11.320112    12A    -11.304794
      13A    -11.300863    14A    -11.300162    15A    -11.299371
      16A    -11.296984    17A    -11.292260    18A    -11.230467
      19A     -7.632732    20A     -5.531234    21A     -5.530872
      22A     -5.529663    23A     -1.460855    24A     -1.413355
      25A     -1.398891    26A     -1.394728    27A     -1.387337
      28A     -1.376517    29A     -1.366994    30A     -1.354904
      31A     -1.304074    32A     -1.121370    33A     -1.041115
      34A     -1.014780    35A     -1.003635    36A     -0.882009
      37A     -0.866089    38A     -0.858370    39A     -0.824267
      40A     -0.806846    41A     -0.754975    42A     -0.744817
      43A     -0.732237    44A     -0.729655    45A     -0.708618
      46A     -0.690188    47A     -0.677975    48A     -0.674159
      49A     -0.663809    50A     -0.661481    51A     -0.645984
      52A     -0.636948    53A     -0.628100    54A     -0.616927
      55A     -0.605122    56A     -0.598216    57A     -0.584397
      58A     -0.575878    59A     -0.571282    60A     -0.560719
      61A     -0.557354    62A     -0.549417    63A     -0.541603
      64A     -0.537469    65A     -0.530371    66A     -0.522707
      67A     -0.512932    68A     -0.503346    69A     -0.496799
      70A     -0.482754    71A     -0.480485    72A     -0.476975
      73A     -0.460319    74A     -0.458011    75A     -0.437336
      76A     -0.436681

  @DF-RHF Final Energy: -1327.85384572592420

   => Energetics <=

    Nuclear Repulsion Energy =           1773.3143118426553428
    One-Electron Energy =               -5358.6537817103107955
    Two-Electron Energy =                2257.4856241417314777
    Total Energy =                      -1327.8538457259242023
  Basis Set: (AUG-CC-PVTZ AUX)
    Blend: AUG-CC-PVTZ-RI
    Molecular point group: c1

    Geometry (in Angstrom), charge = 0, multiplicity = 1:

       Center              X                  Y                   Z               Mass
    ------------   -----------------  -----------------  -----------------  -----------------
         P           -2.288194416590    -0.940655331529     0.347391059330    30.973761998420
         O           -0.980251416590    -0.202174331529     0.941002059330    15.994914619570
         O            1.344151583410    -1.676095331529     1.233564059330    15.994914619570
         O            0.080606583410     2.358991668471     0.464881059330    15.994914619570
         O            3.070416583410    -2.187684331529    -0.805876940670    15.994914619570
         O            2.849236583410     2.502500668471     0.374248059330    15.994914619570
         O            4.197589583410     0.434784668471    -0.970160940670    15.994914619570
         O           -2.824961416590     0.032738668471    -0.804817940670    15.994914619570
         O           -3.257219416590    -0.723894331529     1.624384059330    15.994914619570
         O           -2.117091416590    -2.344256331529    -0.096954940670    15.994914619570
         C            0.120063583410     0.029396668471     0.019032059330    12.000000000000
         C            0.955193583410    -1.244817331529    -0.073011940670    12.000000000000
         C            0.859528583410     1.217052768471     0.501210859330    12.000000000000
         C            2.261561583410    -1.014919331529    -0.815323940670    12.000000000000
         C            2.178976583410     1.395859668471    -0.225327940670    12.000000000000
         C            3.027743583410     0.148092668471    -0.207608940670    12.000000000000
         C           -3.122311416590     1.430985668471    -0.486172940670    12.000000000000
         C           -3.534415416590     2.084552668471    -1.781405940670    12.000000000000
         H           -0.281190416590     0.298188668471    -0.967524940670     1.007825032230
         H            0.372170583410    -2.029976331529    -0.569318940670     1.007825032230
         H            1.159021583410     0.997264668471     1.614869059330     1.007825032230
         H            2.062835583410    -0.789272331529    -1.870042940670     1.007825032230
         H            1.863106483410     1.631845368471    -1.256275040670     1.007825032230
         H            3.297756583410    -0.095144331529     0.830359059330     1.007825032230
         H            0.523676583410    -1.888644331529     1.714223059330     1.007825032230
         H            0.667441583410     3.108698668471     0.685897059330     1.007825032230
         H            2.975444583410    -2.547986331529     0.097367059330     1.007825032230
         H            3.723330583410     2.548573668471    -0.056155940670     1.007825032230
         H            4.641628583410    -0.424446331529    -1.094373940670     1.007825032230
         H           -3.806493416590    -1.522950331529     1.737441059330     1.007825032230
         H           -3.928644416590     1.444928668471     0.252099059330     1.007825032230
         H           -2.227860416590     1.892267668471    -0.056382940670     1.007825032230
         H           -3.798619416590     3.130269668471    -1.599957940670     1.007825032230
         H           -2.715294416590     2.052710668471    -2.502161940670     1.007825032230
         H           -4.399042416590     1.573710668471    -2.210010940670     1.007825032230

  Basis Set: AUG-CC-PVTZ
    Blend: AUG-CC-PVTZ
  Basis Set: (AUG-CC-PVTZ AUX)
    Blend: AUG-CC-PVTZ-JKFIT
	 Reference Energy          =   -1327.8538457259242023 [Eh]
	 Singles Energy            =      -0.0000000000000000 [Eh]
	 Same-Spin Energy          =      -1.0150917894666673 [Eh]
	 Opposite-Spin Energy      =      -3.0762232669961671 [Eh]
	 Correlation Energy        =      -4.0913150564628342 [Eh]
	 Total Energy              =   -1331.9451607823871200 [Eh]

	 ================> DF-SCS-MP2 Energies <==================
	-----------------------------------------------------------
	 SCS Same-Spin Scale       =       0.3333333333333333 [-]
	 SCS Opposite-Spin Scale   =       1.2000000000000000 [-]
	 SCS Same-Spin Energy      =      -0.3383639298222224 [Eh]
	 SCS Opposite-Spin Energy  =      -3.6914679203954002 [Eh]
	 SCS Correlation Energy    =      -4.0298318502176222 [Eh]
	 SCS Total Energy          =   -1331.8836775761417357 [Eh]
	-----------------------------------------------------------

  Dipole Moment: [D]
     X:    -1.1968      Y:     1.9533      Z:     0.6542     Total:     2.3823

*** Psi4 exiting successfully. Buy a developer a beer!
