                               Psi4 1.3.2 release

  ==> Input File <==

--------------------------------------------------------------------------
#psi4
#
memory 32 gb

molecule  {
0 1
  P       -2.2900960    -0.9400430     0.3446780
  O       -0.9821530    -0.2015620     0.9382890
  O        1.3422500    -1.6754830     1.2308510
  O        0.0787050     2.3596040     0.4621680
  O        3.0685150    -2.1870720    -0.8085900
  O        2.8473350     2.5031130     0.3715350
  O        4.1956880     0.4353970    -0.9728740
  O       -2.8268630     0.0333510    -0.8075310
  O       -3.2591210    -0.7232820     1.6216710
  O       -2.1189930    -2.3436440    -0.0996680
  C        0.1181620     0.0300090     0.0163190
  C        0.9270869    -1.2353860    -0.1210072
  C        0.8985890     1.2026440     0.5648510
  C        2.2596600    -1.0143070    -0.8180370
  C        2.1770750     1.3964720    -0.2280410
  C        3.0258420     0.1487050    -0.2103220
  C       -3.1242130     1.4315980    -0.4888860
  C       -3.5363170     2.0851650    -1.7841190
  H       -0.2830920     0.2988010    -0.9702380
  H        0.3702690    -2.0293640    -0.5720320
  H        1.1571200     0.9978770     1.6121560
  H        2.0234576    -0.7920704    -1.8657297
  H        1.9169870     1.6362870    -1.2735830
  H        3.2958550    -0.0945320     0.8276460
  H        0.5217750    -1.8880320     1.7115100
  H        0.6655400     3.1093110     0.6831840
  H        2.9735430    -2.5473740     0.0946540
  H        3.7214290     2.5491860    -0.0588690
  H        4.6397270    -0.4238340    -1.0970870
  H       -3.8083950    -1.5223380     1.7347280
  H       -3.9305460     1.4455410     0.2493860
  H       -2.2297620     1.8928800    -0.0590960
  H       -3.8005210     3.1308820    -1.6026710
  H       -2.7171960     2.0533230    -2.5048750
  H       -4.4009440     1.5743230    -2.2127240
units angstrom
no_reorient  #important for SAPT in psi4, default
symmetry c1  #important for SAPT in psi4, default
}

set PROPERTIES_ORIGIN ["COM"]
properties('MP2/aug-cc-pvtz', properties = ['dipole'])
--------------------------------------------------------------------------

    Molecular point group: c1
  Charge       = 0
  Multiplicity = 1
  Basis Set: AUG-CC-PVTZ
    Blend: AUG-CC-PVTZ
  Basis Set: (AUG-CC-PVTZ AUX)
    Blend: AUG-CC-PVTZ-JKFIT

    Orbital Energies [Eh]
    ---------------------

    Doubly Occupied:

       1A    -80.117493     2A    -20.615061     3A    -20.607847
       4A    -20.599393     5A    -20.577170     6A    -20.577088
       7A    -20.575679     8A    -20.574542     9A    -20.574230
      10A    -20.524070    11A    -11.322352    12A    -11.303637
      13A    -11.301025    14A    -11.299836    15A    -11.299743
      16A    -11.297236    17A    -11.292609    18A    -11.230179
      19A     -7.632948    20A     -5.531454    21A     -5.531080
      22A     -5.529880    23A     -1.460724    24A     -1.407856
      25A     -1.394831    26A     -1.389715    27A     -1.387237
      28A     -1.369905    29A     -1.359494    30A     -1.350625
      31A     -1.304465    32A     -1.121580    33A     -1.040824
      34A     -1.014955    35A     -1.005843    36A     -0.881230
      37A     -0.865438    38A     -0.861555    39A     -0.823286
      40A     -0.807792    41A     -0.750740    42A     -0.743706
      43A     -0.732875    44A     -0.728552    45A     -0.708451
      46A     -0.687912    47A     -0.674325    48A     -0.672830
      49A     -0.662228    50A     -0.660675    51A     -0.644298
      52A     -0.635349    53A     -0.626376    54A     -0.613669
      55A     -0.604209    56A     -0.598751    57A     -0.582937
      58A     -0.575952    59A     -0.569298    60A     -0.559456
      61A     -0.556543    62A     -0.546823    63A     -0.540900
      64A     -0.536499    65A     -0.526128    66A     -0.520596
      67A     -0.513301    68A     -0.503236    69A     -0.497498
      70A     -0.485247    71A     -0.480607    72A     -0.477245
      73A     -0.464550    74A     -0.456358    75A     -0.453414
      76A     -0.440553

  @DF-RHF Final Energy: -1327.85730505476045

   => Energetics <=

    Nuclear Repulsion Energy =           1772.2482576072818574
    One-Electron Energy =               -5356.6231382444566407
    Two-Electron Energy =                2256.5175755824143380
    Total Energy =                      -1327.8573050547606726
  Basis Set: (AUG-CC-PVTZ AUX)
    Blend: AUG-CC-PVTZ-RI
    Molecular point group: c1

    Geometry (in Angstrom), charge = 0, multiplicity = 1:

       Center              X                  Y                   Z               Mass
    ------------   -----------------  -----------------  -----------------  -----------------
         P           -2.288873202437    -0.940398431021     0.346539766864    30.973761998420
         O           -0.980930202437    -0.201917431021     0.940150766864    15.994914619570
         O            1.343472797563    -1.675838431021     1.232712766864    15.994914619570
         O            0.079927797563     2.359248568979     0.464029766864    15.994914619570
         O            3.069737797563    -2.187427431021    -0.806728233136    15.994914619570
         O            2.848557797563     2.502757568979     0.373396766864    15.994914619570
         O            4.196910797563     0.435041568979    -0.971012233136    15.994914619570
         O           -2.825640202437     0.032995568979    -0.805669233136    15.994914619570
         O           -3.257898202437    -0.723637431021     1.623532766864    15.994914619570
         O           -2.117770202437    -2.343999431021    -0.097806233136    15.994914619570
         C            0.119384797563     0.029653568979     0.018180766864    12.000000000000
         C            0.928309697563    -1.235741431021    -0.119145433136    12.000000000000
         C            0.899811797563     1.202288568979     0.566712766864    12.000000000000
         C            2.260882797563    -1.014662431021    -0.816175233136    12.000000000000
         C            2.178297797563     1.396116568979    -0.226179233136    12.000000000000
         C            3.027064797563     0.148349568979    -0.208460233136    12.000000000000
         C           -3.122990202437     1.431242568979    -0.487024233136    12.000000000000
         C           -3.535094202437     2.084809568979    -1.782257233136    12.000000000000
         H           -0.281869202437     0.298445568979    -0.968376233136     1.007825032230
         H            0.371491797563    -2.029719431021    -0.570170233136     1.007825032230
         H            1.158342797563     0.997521568979     1.614017766864     1.007825032230
         H            2.024680397563    -0.792425831021    -1.863867933136     1.007825032230
         H            1.918209797563     1.635931568979    -1.271721233136     1.007825032230
         H            3.297077797563    -0.094887431021     0.829507766864     1.007825032230
         H            0.522997797563    -1.888387431021     1.713371766864     1.007825032230
         H            0.666762797563     3.108955568979     0.685045766864     1.007825032230
         H            2.974765797563    -2.547729431021     0.096515766864     1.007825032230
         H            3.722651797563     2.548830568979    -0.057007233136     1.007825032230
         H            4.640949797563    -0.424189431021    -1.095225233136     1.007825032230
         H           -3.807172202437    -1.522693431021     1.736589766864     1.007825032230
         H           -3.929323202437     1.445185568979     0.251247766864     1.007825032230
         H           -2.228539202437     1.892524568979    -0.057234233136     1.007825032230
         H           -3.799298202437     3.130526568979    -1.600809233136     1.007825032230
         H           -2.715973202437     2.052967568979    -2.503013233136     1.007825032230
         H           -4.399721202437     1.573967568979    -2.210862233136     1.007825032230

  Basis Set: AUG-CC-PVTZ
    Blend: AUG-CC-PVTZ
  Basis Set: (AUG-CC-PVTZ AUX)
    Blend: AUG-CC-PVTZ-JKFIT
	 Reference Energy          =   -1327.8573050547604453 [Eh]
	 Singles Energy            =      -0.0000000000000000 [Eh]
	 Same-Spin Energy          =      -1.0147985010538354 [Eh]
	 Opposite-Spin Energy      =      -3.0771177814161939 [Eh]
	 Correlation Energy        =      -4.0919162824700290 [Eh]
	 Total Energy              =   -1331.9492213372304832 [Eh]

	 ================> DF-SCS-MP2 Energies <==================
	-----------------------------------------------------------
	 SCS Same-Spin Scale       =       0.3333333333333333 [-]
	 SCS Opposite-Spin Scale   =       1.2000000000000000 [-]
	 SCS Same-Spin Energy      =      -0.3382661670179451 [Eh]
	 SCS Opposite-Spin Energy  =      -3.6925413376994323 [Eh]
	 SCS Correlation Energy    =      -4.0308075047173775 [Eh]
	 SCS Total Energy          =   -1331.8881125594778041 [Eh]
	-----------------------------------------------------------

  Dipole Moment: [D]
     X:    -1.1579      Y:     1.9189      Z:     0.6058     Total:     2.3216

*** Psi4 exiting successfully. Buy a developer a beer!
