                               Psi4 1.3.2 release

  ==> Input File <==

--------------------------------------------------------------------------
#psi4
#
memory 32 gb

molecule  {
0 1
  P       -2.2900960    -0.9400430     0.3446780
  O       -0.9821530    -0.2015620     0.9382890
  O        1.3422500    -1.6754830     1.2308510
  O        0.0787050     2.3596040     0.4621680
  O        3.0685150    -2.1870720    -0.8085900
  O        2.8473350     2.5031130     0.3715350
  O        4.1956880     0.4353970    -0.9728740
  O       -2.8268630     0.0333510    -0.8075310
  O       -3.2591210    -0.7232820     1.6216710
  O       -2.1189930    -2.3436440    -0.0996680
  C        0.1798547     0.0652993     0.0528389
  C        0.9532920    -1.2442050    -0.0757250
  C        0.8985890     1.2026440     0.5648510
  C        2.2596600    -1.0143070    -0.8180370
  C        2.1770750     1.3964720    -0.2280410
  C        3.0258420     0.1487050    -0.2103220
  C       -3.1242130     1.4315980    -0.4888860
  C       -3.5363170     2.0851650    -1.7841190
  H       -0.2830920     0.2988010    -0.9702380
  H        0.4152040    -2.0645601    -0.5658168
  H        1.1571200     0.9978770     1.6121560
  H        2.0609340    -0.7886600    -1.8727560
  H        1.9169870     1.6362870    -1.2735830
  H        3.2958550    -0.0945320     0.8276460
  H        0.5217750    -1.8880320     1.7115100
  H        0.6655400     3.1093110     0.6831840
  H        2.9735430    -2.5473740     0.0946540
  H        3.7214290     2.5491860    -0.0588690
  H        4.6397270    -0.4238340    -1.0970870
  H       -3.8083950    -1.5223380     1.7347280
  H       -3.9305460     1.4455410     0.2493860
  H       -2.2297620     1.8928800    -0.0590960
  H       -3.8005210     3.1308820    -1.6026710
  H       -2.7171960     2.0533230    -2.5048750
  H       -4.4009440     1.5743230    -2.2127240
units angstrom
no_reorient  #important for SAPT in psi4, default
symmetry c1  #important for SAPT in psi4, default
}

set PROPERTIES_ORIGIN ["COM"]
properties('MP2/aug-cc-pvtz', properties = ['dipole'])
--------------------------------------------------------------------------

    Molecular point group: c1
  Charge       = 0
  Multiplicity = 1
  Basis Set: AUG-CC-PVTZ
    Blend: AUG-CC-PVTZ
  Basis Set: (AUG-CC-PVTZ AUX)
    Blend: AUG-CC-PVTZ-JKFIT

    Orbital Energies [Eh]
    ---------------------

    Doubly Occupied:

       1A    -80.114766     2A    -20.612903     3A    -20.600520
       4A    -20.596799     5A    -20.582016     6A    -20.578630
       7A    -20.576229     8A    -20.575604     9A    -20.575409
      10A    -20.520928    11A    -11.325716    12A    -11.306357
      13A    -11.299891    14A    -11.299713    15A    -11.298301
      16A    -11.297949    17A    -11.292993    18A    -11.228835
      19A     -7.629974    20A     -5.528453    21A     -5.528168
      22A     -5.526952    23A     -1.454634    24A     -1.411261
      25A     -1.395550    26A     -1.391037    27A     -1.384923
      28A     -1.370058    29A     -1.365708    30A     -1.354847
      31A     -1.301132    32A     -1.128634    33A     -1.039168
      34A     -1.017983    35A     -1.006871    36A     -0.879796
      37A     -0.864827    38A     -0.860779    39A     -0.821725
      40A     -0.808381    41A     -0.754129    42A     -0.742862
      43A     -0.732317    44A     -0.724126    45A     -0.709429
      46A     -0.686416    47A     -0.678939    48A     -0.671828
      49A     -0.663523    50A     -0.660390    51A     -0.643868
      52A     -0.635381    53A     -0.625714    54A     -0.615875
      55A     -0.605718    56A     -0.599786    57A     -0.583212
      58A     -0.573182    59A     -0.568647    60A     -0.559783
      61A     -0.555572    62A     -0.547175    63A     -0.539965
      64A     -0.538502    65A     -0.525691    66A     -0.523805
      67A     -0.512396    68A     -0.502889    69A     -0.498204
      70A     -0.481910    71A     -0.478594    72A     -0.474284
      73A     -0.464153    74A     -0.457533    75A     -0.454427
      76A     -0.437961

  @DF-RHF Final Energy: -1327.85212040116608

   => Energetics <=

    Nuclear Repulsion Energy =           1772.5159796280431692
    One-Electron Energy =               -5357.1709869769392753
    Two-Electron Energy =                2256.8028869477298031
    Total Energy =                      -1327.8521204011663031
  Basis Set: (AUG-CC-PVTZ AUX)
    Blend: AUG-CC-PVTZ-RI
    Molecular point group: c1

    Geometry (in Angstrom), charge = 0, multiplicity = 1:

       Center              X                  Y                   Z               Mass
    ------------   -----------------  -----------------  -----------------  -----------------
         P           -2.292823163717    -0.941389961138     0.343134905782    30.973761998420
         O           -0.984880163717    -0.202908961138     0.936745905782    15.994914619570
         O            1.339522836283    -1.676829961138     1.229307905782    15.994914619570
         O            0.075977836283     2.358257038862     0.460624905782    15.994914619570
         O            3.065787836283    -2.188418961138    -0.810133094218    15.994914619570
         O            2.844607836283     2.501766038862     0.369991905782    15.994914619570
         O            4.192960836283     0.434050038862    -0.974417094218    15.994914619570
         O           -2.829590163717     0.032004038862    -0.809074094218    15.994914619570
         O           -3.261848163717    -0.724628961138     1.620127905782    15.994914619570
         O           -2.121720163717    -2.344990961138    -0.101211094218    15.994914619570
         C            0.177127536283     0.063952338862     0.051295805782    12.000000000000
         C            0.950564836283    -1.245551961138    -0.077268094218    12.000000000000
         C            0.895861836283     1.201297038862     0.563307905782    12.000000000000
         C            2.256932836283    -1.015653961138    -0.819580094218    12.000000000000
         C            2.174347836283     1.395125038862    -0.229584094218    12.000000000000
         C            3.023114836283     0.147358038862    -0.211865094218    12.000000000000
         C           -3.126940163717     1.430251038862    -0.490429094218    12.000000000000
         C           -3.539044163717     2.083818038862    -1.785662094218    12.000000000000
         H           -0.285819163717     0.297454038862    -0.971781094218     1.007825032230
         H            0.412476836283    -2.065907061138    -0.567359894218     1.007825032230
         H            1.154392836283     0.996530038862     1.610612905782     1.007825032230
         H            2.058206836283    -0.790006961138    -1.874299094218     1.007825032230
         H            1.914259836283     1.634940038862    -1.275126094218     1.007825032230
         H            3.293127836283    -0.095878961138     0.826102905782     1.007825032230
         H            0.519047836283    -1.889378961138     1.709966905782     1.007825032230
         H            0.662812836283     3.107964038862     0.681640905782     1.007825032230
         H            2.970815836283    -2.548720961138     0.093110905782     1.007825032230
         H            3.718701836283     2.547839038862    -0.060412094218     1.007825032230
         H            4.636999836283    -0.425180961138    -1.098630094218     1.007825032230
         H           -3.811122163717    -1.523684961138     1.733184905782     1.007825032230
         H           -3.933273163717     1.444194038862     0.247842905782     1.007825032230
         H           -2.232489163717     1.891533038862    -0.060639094218     1.007825032230
         H           -3.803248163717     3.129535038862    -1.604214094218     1.007825032230
         H           -2.719923163717     2.051976038862    -2.506418094218     1.007825032230
         H           -4.403671163717     1.572976038862    -2.214267094218     1.007825032230

  Basis Set: AUG-CC-PVTZ
    Blend: AUG-CC-PVTZ
  Basis Set: (AUG-CC-PVTZ AUX)
    Blend: AUG-CC-PVTZ-JKFIT
	 Reference Energy          =   -1327.8521204011660757 [Eh]
	 Singles Energy            =      -0.0000000000000000 [Eh]
	 Same-Spin Energy          =      -1.0153128577096231 [Eh]
	 Opposite-Spin Energy      =      -3.0770777274401246 [Eh]
	 Correlation Energy        =      -4.0923905851497473 [Eh]
	 Total Energy              =   -1331.9445109863158905 [Eh]

	 ================> DF-SCS-MP2 Energies <==================
	-----------------------------------------------------------
	 SCS Same-Spin Scale       =       0.3333333333333333 [-]
	 SCS Opposite-Spin Scale   =       1.2000000000000000 [-]
	 SCS Same-Spin Energy      =      -0.3384376192365410 [Eh]
	 SCS Opposite-Spin Energy  =      -3.6924932729281492 [Eh]
	 SCS Correlation Energy    =      -4.0309308921646902 [Eh]
	 SCS Total Energy          =   -1331.8830512933307091 [Eh]
	-----------------------------------------------------------

  Dipole Moment: [D]
     X:    -0.8460      Y:     1.9243      Z:     0.7105     Total:     2.2189

*** Psi4 exiting successfully. Buy a developer a beer!
