                               Psi4 1.3.2 release

  ==> Input File <==

--------------------------------------------------------------------------
#psi4
#
memory 32 gb

molecule  {
0 1
  P       -2.2900960    -0.9400430     0.3446780
  O       -0.9821530    -0.2015620     0.9382890
  O        1.3422500    -1.6754830     1.2308510
  O        0.0787050     2.3596040     0.4621680
  O        3.0685150    -2.1870720    -0.8085900
  O        2.8473350     2.5031130     0.3715350
  O        4.1956880     0.4353970    -0.9728740
  O       -2.8268630     0.0333510    -0.8075310
  O       -3.2591210    -0.7232820     1.6216710
  O       -2.1189930    -2.3436440    -0.0996680
  C        0.1181620     0.0300090     0.0163190
  C        0.9055825    -1.2513147    -0.0629158
  C        0.8985890     1.2026440     0.5648510
  C        2.2596600    -1.0143070    -0.8180370
  C        2.1770750     1.3964720    -0.2280410
  C        3.0258420     0.1487050    -0.2103220
  C       -3.1242130     1.4315980    -0.4888860
  C       -3.5363170     2.0851650    -1.7841190
  H       -0.2830920     0.2988010    -0.9702380
  H        0.3702690    -2.0293640    -0.5720320
  H        1.1571200     0.9978770     1.6121560
  H        2.0609340    -0.7886600    -1.8727560
  H        1.9169870     1.6362870    -1.2735830
  H        3.2958550    -0.0945320     0.8276460
  H        0.5040211    -1.8794203     1.6838094
  H        0.6655400     3.1093110     0.6831840
  H        2.9735430    -2.5473740     0.0946540
  H        3.7214290     2.5491860    -0.0588690
  H        4.6397270    -0.4238340    -1.0970870
  H       -3.8083950    -1.5223380     1.7347280
  H       -3.9305460     1.4455410     0.2493860
  H       -2.2297620     1.8928800    -0.0590960
  H       -3.8005210     3.1308820    -1.6026710
  H       -2.7171960     2.0533230    -2.5048750
  H       -4.4009440     1.5743230    -2.2127240
units angstrom
no_reorient  #important for SAPT in psi4, default
symmetry c1  #important for SAPT in psi4, default
}

set PROPERTIES_ORIGIN ["COM"]
properties('MP2/aug-cc-pvtz', properties = ['dipole'])
--------------------------------------------------------------------------

    Molecular point group: c1
  Charge       = 0
  Multiplicity = 1
  Basis Set: AUG-CC-PVTZ
    Blend: AUG-CC-PVTZ
  Basis Set: (AUG-CC-PVTZ AUX)
    Blend: AUG-CC-PVTZ-JKFIT

    Orbital Energies [Eh]
    ---------------------

    Doubly Occupied:

       1A    -80.117298     2A    -20.614949     3A    -20.606507
       4A    -20.599297     5A    -20.585181     6A    -20.576708
       7A    -20.574303     8A    -20.574234     9A    -20.573749
      10A    -20.523982    11A    -11.320604    12A    -11.302483
      13A    -11.300006    14A    -11.299693    15A    -11.299667
      16A    -11.296663    17A    -11.291030    18A    -11.230108
      19A     -7.632755    20A     -5.531263    21A     -5.530890
      22A     -5.529686    23A     -1.460897    24A     -1.411395
      25A     -1.395234    26A     -1.392910    27A     -1.387153
      28A     -1.373421    29A     -1.364393    30A     -1.353757
      31A     -1.304444    32A     -1.117278    33A     -1.040749
      34A     -1.014269    35A     -0.998416    36A     -0.879951
      37A     -0.865006    38A     -0.860538    39A     -0.822242
      40A     -0.808911    41A     -0.752164    42A     -0.745520
      43A     -0.733062    44A     -0.728800    45A     -0.708149
      46A     -0.688223    47A     -0.676353    48A     -0.673659
      49A     -0.661500    50A     -0.660339    51A     -0.644462
      52A     -0.635323    53A     -0.626702    54A     -0.615405
      55A     -0.604086    56A     -0.599005    57A     -0.582105
      58A     -0.575776    59A     -0.573151    60A     -0.560067
      61A     -0.557820    62A     -0.550313    63A     -0.541706
      64A     -0.536555    65A     -0.529598    66A     -0.521501
      67A     -0.512380    68A     -0.502228    69A     -0.497964
      70A     -0.481869    71A     -0.480646    72A     -0.476671
      73A     -0.462653    74A     -0.455700    75A     -0.452751
      76A     -0.435692

  @DF-RHF Final Energy: -1327.85792328271464

   => Energetics <=

    Nuclear Repulsion Energy =           1772.5713866493138084
    One-Electron Energy =               -5357.2547810878686505
    Two-Electron Energy =                2256.8254711558402050
    Total Energy =                      -1327.8579232827146370
  Basis Set: (AUG-CC-PVTZ AUX)
    Blend: AUG-CC-PVTZ-RI
    Molecular point group: c1

    Geometry (in Angstrom), charge = 0, multiplicity = 1:

       Center              X                  Y                   Z               Mass
    ------------   -----------------  -----------------  -----------------  -----------------
         P           -2.288046377719    -0.939776936912     0.344241301896    30.973761998420
         O           -0.980103377719    -0.201295936912     0.937852301896    15.994914619570
         O            1.344299622281    -1.675216936912     1.230414301896    15.994914619570
         O            0.080754622281     2.359870063088     0.461731301896    15.994914619570
         O            3.070564622281    -2.186805936912    -0.809026698104    15.994914619570
         O            2.849384622281     2.503379063088     0.371098301896    15.994914619570
         O            4.197737622281     0.435663063088    -0.973310698104    15.994914619570
         O           -2.824813377719     0.033617063088    -0.807967698104    15.994914619570
         O           -3.257071377719    -0.723015936912     1.621234301896    15.994914619570
         O           -2.116943377719    -2.343377936912    -0.100104698104    15.994914619570
         C            0.120211622281     0.030275063088     0.015882301896    12.000000000000
         C            0.907632122281    -1.251048636912    -0.063352498104    12.000000000000
         C            0.900638622281     1.202910063088     0.564414301896    12.000000000000
         C            2.261709622281    -1.014040936912    -0.818473698104    12.000000000000
         C            2.179124622281     1.396738063088    -0.228477698104    12.000000000000
         C            3.027891622281     0.148971063088    -0.210758698104    12.000000000000
         C           -3.122163377719     1.431864063088    -0.489322698104    12.000000000000
         C           -3.534267377719     2.085431063088    -1.784555698104    12.000000000000
         H           -0.281042377719     0.299067063088    -0.970674698104     1.007825032230
         H            0.372318622281    -2.029097936912    -0.572468698104     1.007825032230
         H            1.159169622281     0.998143063088     1.611719301896     1.007825032230
         H            2.062983622281    -0.788393936912    -1.873192698104     1.007825032230
         H            1.919036622281     1.636553063088    -1.274019698104     1.007825032230
         H            3.297904622281    -0.094265936912     0.827209301896     1.007825032230
         H            0.506070722281    -1.879154236912     1.683372701896     1.007825032230
         H            0.667589622281     3.109577063088     0.682747301896     1.007825032230
         H            2.975592622281    -2.547107936912     0.094217301896     1.007825032230
         H            3.723478622281     2.549452063088    -0.059305698104     1.007825032230
         H            4.641776622281    -0.423567936912    -1.097523698104     1.007825032230
         H           -3.806345377719    -1.522071936912     1.734291301896     1.007825032230
         H           -3.928496377719     1.445807063088     0.248949301896     1.007825032230
         H           -2.227712377719     1.893146063088    -0.059532698104     1.007825032230
         H           -3.798471377719     3.131148063088    -1.603107698104     1.007825032230
         H           -2.715146377719     2.053589063088    -2.505311698104     1.007825032230
         H           -4.398894377719     1.574589063088    -2.213160698104     1.007825032230

  Basis Set: AUG-CC-PVTZ
    Blend: AUG-CC-PVTZ
  Basis Set: (AUG-CC-PVTZ AUX)
    Blend: AUG-CC-PVTZ-JKFIT
	 Reference Energy          =   -1327.8579232827146370 [Eh]
	 Singles Energy            =      -0.0000000000000000 [Eh]
	 Same-Spin Energy          =      -1.0147726634205734 [Eh]
	 Opposite-Spin Energy      =      -3.0766204542684918 [Eh]
	 Correlation Energy        =      -4.0913931176890657 [Eh]
	 Total Energy              =   -1331.9493164004036316 [Eh]

	 ================> DF-SCS-MP2 Energies <==================
	-----------------------------------------------------------
	 SCS Same-Spin Scale       =       0.3333333333333333 [-]
	 SCS Opposite-Spin Scale   =       1.2000000000000000 [-]
	 SCS Same-Spin Energy      =      -0.3382575544735245 [Eh]
	 SCS Opposite-Spin Energy  =      -3.6919445451221899 [Eh]
	 SCS Correlation Energy    =      -4.0302020995957140 [Eh]
	 SCS Total Energy          =   -1331.8881253823103634 [Eh]
	-----------------------------------------------------------

  Dipole Moment: [D]
     X:    -1.1576      Y:     1.8769      Z:     0.6970     Total:     2.3127

*** Psi4 exiting successfully. Buy a developer a beer!
