                               Psi4 1.3.2 release

  ==> Input File <==

--------------------------------------------------------------------------
#psi4
#
memory 32 gb

molecule  {
0 1
  P       -2.2900960    -0.9400430     0.3446780
  O       -0.9821530    -0.2015620     0.9382890
  O        1.3422500    -1.6754830     1.2308510
  O        0.0787050     2.3596040     0.4621680
  O        3.0685150    -2.1870720    -0.8085900
  O        2.8473350     2.5031130     0.3715350
  O        4.1956880     0.4353970    -0.9728740
  O       -2.8268630     0.0333510    -0.8075310
  O       -3.2591210    -0.7232820     1.6216710
  O       -2.1189930    -2.3436440    -0.0996680
  C        0.1181620     0.0300090     0.0163190
  C        0.9532920    -1.2442050    -0.0757250
  C        0.8985890     1.2026440     0.5648510
  C        2.2596600    -1.0143070    -0.8180370
  C        2.1770750     1.3964720    -0.2280410
  C        3.0258420     0.1487050    -0.2103220
  C       -3.1242130     1.4315980    -0.4888860
  C       -3.5363170     2.0851650    -1.7841190
  H       -0.2830920     0.2988010    -0.9702380
  H        0.3702690    -2.0293640    -0.5720320
  H        1.1571200     0.9978770     1.6121560
  H        2.0609340    -0.7886600    -1.8727560
  H        1.9169870     1.6362870    -1.2735830
  H        3.2958550    -0.0945320     0.8276460
  H        0.5217750    -1.8880320     1.7115100
  H        0.6054987     3.0326057     0.6605710
  H        2.9735430    -2.5473740     0.0946540
  H        3.7214290     2.5491860    -0.0588690
  H        4.6397270    -0.4238340    -1.0970870
  H       -3.8083950    -1.5223380     1.7347280
  H       -3.9305460     1.4455410     0.2493860
  H       -2.2297620     1.8928800    -0.0590960
  H       -3.8005210     3.1308820    -1.6026710
  H       -2.7171960     2.0533230    -2.5048750
  H       -4.4009440     1.5743230    -2.2127240
units angstrom
no_reorient  #important for SAPT in psi4, default
symmetry c1  #important for SAPT in psi4, default
}

set PROPERTIES_ORIGIN ["COM"]
properties('MP2/aug-cc-pvtz', properties = ['dipole'])
--------------------------------------------------------------------------

    Molecular point group: c1
  Charge       = 0
  Multiplicity = 1
  Basis Set: AUG-CC-PVTZ
    Blend: AUG-CC-PVTZ
  Basis Set: (AUG-CC-PVTZ AUX)
    Blend: AUG-CC-PVTZ-JKFIT

    Orbital Energies [Eh]
    ---------------------

    Doubly Occupied:

       1A    -80.117363     2A    -20.615089     3A    -20.607606
       4A    -20.599337     5A    -20.583579     6A    -20.576240
       7A    -20.574913     8A    -20.574375     9A    -20.565487
      10A    -20.523812    11A    -11.321490    12A    -11.303971
      13A    -11.300083    14A    -11.299779    15A    -11.299708
      16A    -11.297323    17A    -11.291857    18A    -11.230174
      19A     -7.632813    20A     -5.531319    21A     -5.530947
      22A     -5.529744    23A     -1.460877    24A     -1.416125
      25A     -1.402815    26A     -1.394761    27A     -1.387452
      28A     -1.379045    29A     -1.367697    30A     -1.355352
      31A     -1.304246    32A     -1.121620    33A     -1.040836
      34A     -1.013566    35A     -1.006588    36A     -0.880798
      37A     -0.865327    38A     -0.863598    39A     -0.823059
      40A     -0.811395    41A     -0.759270    42A     -0.745899
      43A     -0.734193    44A     -0.729332    45A     -0.709973
      46A     -0.693217    47A     -0.678535    48A     -0.674335
      49A     -0.663574    50A     -0.661595    51A     -0.647112
      52A     -0.636668    53A     -0.627734    54A     -0.615872
      55A     -0.605151    56A     -0.599479    57A     -0.582688
      58A     -0.575998    59A     -0.571639    60A     -0.561816
      61A     -0.557236    62A     -0.549072    63A     -0.541599
      64A     -0.537206    65A     -0.530577    66A     -0.523236
      67A     -0.513580    68A     -0.505002    69A     -0.498010
      70A     -0.485740    71A     -0.480517    72A     -0.477044
      73A     -0.463979    74A     -0.456574    75A     -0.451546
      76A     -0.436715

  @DF-RHF Final Energy: -1327.85708899193969

   => Energetics <=

    Nuclear Repulsion Energy =           1773.2114818612385534
    One-Electron Energy =               -5358.3693869451735736
    Two-Electron Energy =                2257.3008160919953298
    Total Energy =                      -1327.8570889919396905
  Basis Set: (AUG-CC-PVTZ AUX)
    Blend: AUG-CC-PVTZ-RI
    Molecular point group: c1

    Geometry (in Angstrom), charge = 0, multiplicity = 1:

       Center              X                  Y                   Z               Mass
    ------------   -----------------  -----------------  -----------------  -----------------
         P           -2.289885903599    -0.939774617235     0.344757105770    30.973761998420
         O           -0.981942903599    -0.201293617235     0.938368105770    15.994914619570
         O            1.342460096401    -1.675214617235     1.230930105770    15.994914619570
         O            0.078915096401     2.359872382765     0.462247105770    15.994914619570
         O            3.068725096401    -2.186803617235    -0.808510894230    15.994914619570
         O            2.847545096401     2.503381382765     0.371614105770    15.994914619570
         O            4.195898096401     0.435665382765    -0.972794894230    15.994914619570
         O           -2.826652903599     0.033619382765    -0.807451894230    15.994914619570
         O           -3.258910903599    -0.723013617235     1.621750105770    15.994914619570
         O           -2.118782903599    -2.343375617235    -0.099588894230    15.994914619570
         C            0.118372096401     0.030277382765     0.016398105770    12.000000000000
         C            0.953502096401    -1.243936617235    -0.075645894230    12.000000000000
         C            0.898799096401     1.202912382765     0.564930105770    12.000000000000
         C            2.259870096401    -1.014038617235    -0.817957894230    12.000000000000
         C            2.177285096401     1.396740382765    -0.227961894230    12.000000000000
         C            3.026052096401     0.148973382765    -0.210242894230    12.000000000000
         C           -3.124002903599     1.431866382765    -0.488806894230    12.000000000000
         C           -3.536106903599     2.085433382765    -1.784039894230    12.000000000000
         H           -0.282881903599     0.299069382765    -0.970158894230     1.007825032230
         H            0.370479096401    -2.029095617235    -0.571952894230     1.007825032230
         H            1.157330096401     0.998145382765     1.612235105770     1.007825032230
         H            2.061144096401    -0.788391617235    -1.872676894230     1.007825032230
         H            1.917197096401     1.636555382765    -1.273503894230     1.007825032230
         H            3.296065096401    -0.094263617235     0.827725105770     1.007825032230
         H            0.521985096401    -1.887763617235     1.711589105770     1.007825032230
         H            0.605708796401     3.032874082765     0.660650105770     1.007825032230
         H            2.973753096401    -2.547105617235     0.094733105770     1.007825032230
         H            3.721639096401     2.549454382765    -0.058789894230     1.007825032230
         H            4.639937096401    -0.423565617235    -1.097007894230     1.007825032230
         H           -3.808184903599    -1.522069617235     1.734807105770     1.007825032230
         H           -3.930335903599     1.445809382765     0.249465105770     1.007825032230
         H           -2.229551903599     1.893148382765    -0.059016894230     1.007825032230
         H           -3.800310903599     3.131150382765    -1.602591894230     1.007825032230
         H           -2.716985903599     2.053591382765    -2.504795894230     1.007825032230
         H           -4.400733903599     1.574591382765    -2.212644894230     1.007825032230

  Basis Set: AUG-CC-PVTZ
    Blend: AUG-CC-PVTZ
  Basis Set: (AUG-CC-PVTZ AUX)
    Blend: AUG-CC-PVTZ-JKFIT
	 Reference Energy          =   -1327.8570889919396905 [Eh]
	 Singles Energy            =      -0.0000000000000000 [Eh]
	 Same-Spin Energy          =      -1.0132754309259937 [Eh]
	 Opposite-Spin Energy      =      -3.0730746556003377 [Eh]
	 Correlation Energy        =      -4.0863500865263314 [Eh]
	 Total Energy              =   -1331.9434390784660991 [Eh]

	 ================> DF-SCS-MP2 Energies <==================
	-----------------------------------------------------------
	 SCS Same-Spin Scale       =       0.3333333333333333 [-]
	 SCS Opposite-Spin Scale   =       1.2000000000000000 [-]
	 SCS Same-Spin Energy      =      -0.3377584769753312 [Eh]
	 SCS Opposite-Spin Energy  =      -3.6876895867204049 [Eh]
	 SCS Correlation Energy    =      -4.0254480636957357 [Eh]
	 SCS Total Energy          =   -1331.8825370556353391 [Eh]
	-----------------------------------------------------------

  Dipole Moment: [D]
     X:    -1.1694      Y:     1.7610      Z:     0.6987     Total:     2.2264

*** Psi4 exiting successfully. Buy a developer a beer!
