                               Psi4 1.3.2 release

  ==> Input File <==

--------------------------------------------------------------------------
#psi4
#
memory 32 gb

molecule  {
0 1
  P       -2.2900960    -0.9400430     0.3446780
  O       -0.9821530    -0.2015620     0.9382890
  O        1.3422500    -1.6754830     1.2308510
  O        0.0787050     2.3596040     0.4621680
  O        3.0777144    -2.1806184    -0.8032709
  O        2.8473350     2.5031130     0.3715350
  O        4.1956880     0.4353970    -0.9728740
  O       -2.8268630     0.0333510    -0.8075310
  O       -3.2591210    -0.7232820     1.6216710
  O       -2.1189930    -2.3436440    -0.0996680
  C        0.1181620     0.0300090     0.0163190
  C        0.9532920    -1.2442050    -0.0757250
  C        0.8985890     1.2026440     0.5648510
  C        2.2596600    -1.0143070    -0.8180370
  C        2.1770750     1.3964720    -0.2280410
  C        3.0362479     0.1407317    -0.2083271
  C       -3.1242130     1.4315980    -0.4888860
  C       -3.5363170     2.0851650    -1.7841190
  H       -0.2830920     0.2988010    -0.9702380
  H        0.3702690    -2.0293640    -0.5720320
  H        1.1571200     0.9978770     1.6121560
  H        2.0609340    -0.7886600    -1.8727560
  H        1.9169870     1.6362870    -1.2735830
  H        3.2958550    -0.0945320     0.8276460
  H        0.5217750    -1.8880320     1.7115100
  H        0.6655400     3.1093110     0.6831840
  H        2.9735430    -2.5473740     0.0946540
  H        3.7214290     2.5491860    -0.0588690
  H        4.6397270    -0.4238340    -1.0970870
  H       -3.8083950    -1.5223380     1.7347280
  H       -3.9305460     1.4455410     0.2493860
  H       -2.2297620     1.8928800    -0.0590960
  H       -3.8005210     3.1308820    -1.6026710
  H       -2.7171960     2.0533230    -2.5048750
  H       -4.4009440     1.5743230    -2.2127240
units angstrom
no_reorient  #important for SAPT in psi4, default
symmetry c1  #important for SAPT in psi4, default
}

set PROPERTIES_ORIGIN ["COM"]
properties('MP2/aug-cc-pvtz', properties = ['dipole'])
--------------------------------------------------------------------------

    Molecular point group: c1
  Charge       = 0
  Multiplicity = 1
  Basis Set: AUG-CC-PVTZ
    Blend: AUG-CC-PVTZ
  Basis Set: (AUG-CC-PVTZ AUX)
    Blend: AUG-CC-PVTZ-JKFIT

    Orbital Energies [Eh]
    ---------------------

    Doubly Occupied:

       1A    -80.116955     2A    -20.614739     3A    -20.607029
       4A    -20.598932     5A    -20.583238     6A    -20.576301
       7A    -20.574741     8A    -20.573956     9A    -20.573231
      10A    -20.523476    11A    -11.320754    12A    -11.303837
      13A    -11.299356    14A    -11.299103    15A    -11.298257
      16A    -11.296469    17A    -11.290827    18A    -11.229840
      19A     -7.632406    20A     -5.530912    21A     -5.530538
      22A     -5.529337    23A     -1.460286    24A     -1.411025
      25A     -1.395133    26A     -1.392925    27A     -1.386896
      28A     -1.373473    29A     -1.363846    30A     -1.354375
      31A     -1.303871    32A     -1.117884    33A     -1.040419
      34A     -1.010863    35A     -1.002944    36A     -0.880506
      37A     -0.864983    38A     -0.858325    39A     -0.822427
      40A     -0.810665    41A     -0.751714    42A     -0.745266
      43A     -0.731436    44A     -0.728590    45A     -0.707714
      46A     -0.687436    47A     -0.678410    48A     -0.673818
      49A     -0.662239    50A     -0.660792    51A     -0.643002
      52A     -0.634892    53A     -0.627273    54A     -0.615234
      55A     -0.603441    56A     -0.599022    57A     -0.582101
      58A     -0.575589    59A     -0.571320    60A     -0.559164
      61A     -0.557182    62A     -0.548626    63A     -0.541242
      64A     -0.536269    65A     -0.530110    66A     -0.521561
      67A     -0.512850    68A     -0.504942    69A     -0.496937
      70A     -0.484928    71A     -0.479847    72A     -0.476655
      73A     -0.462294    74A     -0.453967    75A     -0.449991
      76A     -0.435854

  @DF-RHF Final Energy: -1327.86149733165576

   => Energetics <=

    Nuclear Repulsion Energy =           1772.3104493811304110
    One-Electron Energy =               -5356.7703152609128665
    Two-Electron Energy =                2256.5983685481264729
    Total Energy =                      -1327.8614973316557553
  Basis Set: (AUG-CC-PVTZ AUX)
    Blend: AUG-CC-PVTZ-RI
    Molecular point group: c1

    Geometry (in Angstrom), charge = 0, multiplicity = 1:

       Center              X                  Y                   Z               Mass
    ------------   -----------------  -----------------  -----------------  -----------------
         P           -2.291040261602    -0.940069175321     0.344299538487    30.973761998420
         O           -0.983097261602    -0.201588175321     0.937910538487    15.994914619570
         O            1.341305738398    -1.675509175321     1.230472538487    15.994914619570
         O            0.077760738398     2.359577824679     0.461789538487    15.994914619570
         O            3.076770138398    -2.180644575321    -0.803649361513    15.994914619570
         O            2.846390738398     2.503086824679     0.371156538487    15.994914619570
         O            4.194743738398     0.435370824679    -0.973252461513    15.994914619570
         O           -2.827807261602     0.033324824679    -0.807909461513    15.994914619570
         O           -3.260065261602    -0.723308175321     1.621292538487    15.994914619570
         O           -2.119937261602    -2.343670175321    -0.100046461513    15.994914619570
         C            0.117217738398     0.029982824679     0.015940538487    12.000000000000
         C            0.952347738398    -1.244231175321    -0.076103461513    12.000000000000
         C            0.897644738398     1.202617824679     0.564472538487    12.000000000000
         C            2.258715738398    -1.014333175321    -0.818415461513    12.000000000000
         C            2.176130738398     1.396445824679    -0.228419461513    12.000000000000
         C            3.035303638398     0.140705524679    -0.208705561513    12.000000000000
         C           -3.125157261602     1.431571824679    -0.489264461513    12.000000000000
         C           -3.537261261602     2.085138824679    -1.784497461513    12.000000000000
         H           -0.284036261602     0.298774824679    -0.970616461513     1.007825032230
         H            0.369324738398    -2.029390175321    -0.572410461513     1.007825032230
         H            1.156175738398     0.997850824679     1.611777538487     1.007825032230
         H            2.059989738398    -0.788686175321    -1.873134461513     1.007825032230
         H            1.916042738398     1.636260824679    -1.273961461513     1.007825032230
         H            3.294910738398    -0.094558175321     0.827267538487     1.007825032230
         H            0.520830738398    -1.888058175321     1.711131538487     1.007825032230
         H            0.664595738398     3.109284824679     0.682805538487     1.007825032230
         H            2.972598738398    -2.547400175321     0.094275538487     1.007825032230
         H            3.720484738398     2.549159824679    -0.059247461513     1.007825032230
         H            4.638782738398    -0.423860175321    -1.097465461513     1.007825032230
         H           -3.809339261602    -1.522364175321     1.734349538487     1.007825032230
         H           -3.931490261602     1.445514824679     0.249007538487     1.007825032230
         H           -2.230706261602     1.892853824679    -0.059474461513     1.007825032230
         H           -3.801465261602     3.130855824679    -1.603049461513     1.007825032230
         H           -2.718140261602     2.053296824679    -2.505253461513     1.007825032230
         H           -4.401888261602     1.574296824679    -2.213102461513     1.007825032230

  Basis Set: AUG-CC-PVTZ
    Blend: AUG-CC-PVTZ
  Basis Set: (AUG-CC-PVTZ AUX)
    Blend: AUG-CC-PVTZ-JKFIT
	 Reference Energy          =   -1327.8614973316557553 [Eh]
	 Singles Energy            =      -0.0000000000000000 [Eh]
	 Same-Spin Energy          =      -1.0145151924285687 [Eh]
	 Opposite-Spin Energy      =      -3.0759330315604774 [Eh]
	 Correlation Energy        =      -4.0904482239890463 [Eh]
	 Total Energy              =   -1331.9519455556448975 [Eh]

	 ================> DF-SCS-MP2 Energies <==================
	-----------------------------------------------------------
	 SCS Same-Spin Scale       =       0.3333333333333333 [-]
	 SCS Opposite-Spin Scale   =       1.2000000000000000 [-]
	 SCS Same-Spin Energy      =      -0.3381717308095229 [Eh]
	 SCS Opposite-Spin Energy  =      -3.6911196378725726 [Eh]
	 SCS Correlation Energy    =      -4.0292913686820953 [Eh]
	 SCS Total Energy          =   -1331.8907887003379074 [Eh]
	-----------------------------------------------------------

  Dipole Moment: [D]
     X:    -1.1107      Y:     1.8442      Z:     0.7072     Total:     2.2660

*** Psi4 exiting successfully. Buy a developer a beer!
