                               Psi4 1.3.2 release

  ==> Input File <==

--------------------------------------------------------------------------
#psi4
#
memory 32 gb

molecule  {
0 1
  P       -2.2900960    -0.9400430     0.3446780
  O       -0.9974286    -0.2400845     0.9089858
  O        1.3422500    -1.6754830     1.2308510
  O        0.0787050     2.3596040     0.4621680
  O        3.0685150    -2.1870720    -0.8085900
  O        2.8473350     2.5031130     0.3715350
  O        4.1956880     0.4353970    -0.9728740
  O       -2.8268630     0.0333510    -0.8075310
  O       -3.2591210    -0.7232820     1.6216710
  O       -2.1189930    -2.3436440    -0.0996680
  C        0.1181620     0.0300090     0.0163190
  C        0.9532920    -1.2442050    -0.0757250
  C        0.9316785     1.1985646     0.5239560
  C        2.2596600    -1.0143070    -0.8180370
  C        2.1770750     1.3964720    -0.2280410
  C        3.0258420     0.1487050    -0.2103220
  C       -3.1242130     1.4315980    -0.4888860
  C       -3.5363170     2.0851650    -1.7841190
  H       -0.2830920     0.2988010    -0.9702380
  H        0.3702690    -2.0293640    -0.5720320
  H        1.1571200     0.9978770     1.6121560
  H        2.0609340    -0.7886600    -1.8727560
  H        1.9169870     1.6362870    -1.2735830
  H        3.2958550    -0.0945320     0.8276460
  H        0.5217750    -1.8880320     1.7115100
  H        0.6655400     3.1093110     0.6831840
  H        2.9735430    -2.5473740     0.0946540
  H        3.7214290     2.5491860    -0.0588690
  H        4.6397270    -0.4238340    -1.0970870
  H       -3.8083950    -1.5223380     1.7347280
  H       -3.9305460     1.4455410     0.2493860
  H       -2.2297620     1.8928800    -0.0590960
  H       -3.8005210     3.1308820    -1.6026710
  H       -2.7171960     2.0533230    -2.5048750
  H       -4.4009440     1.5743230    -2.2127240
units angstrom
no_reorient  #important for SAPT in psi4, default
symmetry c1  #important for SAPT in psi4, default
}

set PROPERTIES_ORIGIN ["COM"]
properties('MP2/aug-cc-pvtz', properties = ['dipole'])
--------------------------------------------------------------------------

    Molecular point group: c1
  Charge       = 0
  Multiplicity = 1
  Basis Set: AUG-CC-PVTZ
    Blend: AUG-CC-PVTZ
  Basis Set: (AUG-CC-PVTZ AUX)
    Blend: AUG-CC-PVTZ-JKFIT

    Orbital Energies [Eh]
    ---------------------

    Doubly Occupied:

       1A    -80.112439     2A    -20.613170     3A    -20.608212
       4A    -20.596223     5A    -20.583936     6A    -20.579486
       7A    -20.575776     8A    -20.575665     9A    -20.573501
      10A    -20.518357    11A    -11.325392    12A    -11.304206
      13A    -11.302462    14A    -11.300579    15A    -11.298471
      16A    -11.298383    17A    -11.293870    18A    -11.229169
      19A     -7.628608    20A     -5.527116    21A     -5.526860
      22A     -5.525496    23A     -1.466069    24A     -1.411789
      25A     -1.397773    26A     -1.393475    27A     -1.385139
      28A     -1.374441    29A     -1.362888    30A     -1.354600
      31A     -1.299824    32A     -1.126557    33A     -1.039634
      34A     -1.017186    35A     -1.008924    36A     -0.886121
      37A     -0.865050    38A     -0.858783    39A     -0.823889
      40A     -0.810338    41A     -0.752503    42A     -0.747249
      43A     -0.732596    44A     -0.731157    45A     -0.710202
      46A     -0.687038    47A     -0.678648    48A     -0.673764
      49A     -0.663457    50A     -0.661742    51A     -0.644713
      52A     -0.637103    53A     -0.628411    54A     -0.615612
      55A     -0.605398    56A     -0.599328    57A     -0.579693
      58A     -0.575072    59A     -0.572844    60A     -0.559304
      61A     -0.556409    62A     -0.549591    63A     -0.540029
      64A     -0.536537    65A     -0.531401    66A     -0.524083
      67A     -0.513242    68A     -0.504877    69A     -0.497671
      70A     -0.485393    71A     -0.478454    72A     -0.473508
      73A     -0.465033    74A     -0.458844    75A     -0.449715
      76A     -0.437552

  @DF-RHF Final Energy: -1327.85920953220602

   => Energetics <=

    Nuclear Repulsion Energy =           1774.0213724506104427
    One-Electron Energy =               -5360.0851009936741320
    Two-Electron Energy =                2258.2045190108578936
    Total Energy =                      -1327.8592095322060231
  Basis Set: (AUG-CC-PVTZ AUX)
    Blend: AUG-CC-PVTZ-RI
    Molecular point group: c1

    Geometry (in Angstrom), charge = 0, multiplicity = 1:

       Center              X                  Y                   Z               Mass
    ------------   -----------------  -----------------  -----------------  -----------------
         P           -2.290626209275    -0.937734037851     0.348008681555    30.973761998420
         O           -0.997958809275    -0.237775537851     0.912316481555    15.994914619570
         O            1.341719790725    -1.673174037851     1.234181681555    15.994914619570
         O            0.078174790725     2.361912962149     0.465498681555    15.994914619570
         O            3.067984790725    -2.184763037851    -0.805259318445    15.994914619570
         O            2.846804790725     2.505421962149     0.374865681555    15.994914619570
         O            4.195157790725     0.437705962149    -0.969543318445    15.994914619570
         O           -2.827393209275     0.035659962149    -0.804200318445    15.994914619570
         O           -3.259651209275    -0.720973037851     1.625001681555    15.994914619570
         O           -2.119523209275    -2.341335037851    -0.096337318445    15.994914619570
         C            0.117631790725     0.032317962149     0.019649681555    12.000000000000
         C            0.952761790725    -1.241896037851    -0.072394318445    12.000000000000
         C            0.931148290725     1.200873562149     0.527286681555    12.000000000000
         C            2.259129790725    -1.011998037851    -0.814706318445    12.000000000000
         C            2.176544790725     1.398780962149    -0.224710318445    12.000000000000
         C            3.025311790725     0.151013962149    -0.206991318445    12.000000000000
         C           -3.124743209275     1.433906962149    -0.485555318445    12.000000000000
         C           -3.536847209275     2.087473962149    -1.780788318445    12.000000000000
         H           -0.283622209275     0.301109962149    -0.966907318445     1.007825032230
         H            0.369738790725    -2.027055037851    -0.568701318445     1.007825032230
         H            1.156589790725     1.000185962149     1.615486681555     1.007825032230
         H            2.060403790725    -0.786351037851    -1.869425318445     1.007825032230
         H            1.916456790725     1.638595962149    -1.270252318445     1.007825032230
         H            3.295324790725    -0.092223037851     0.830976681555     1.007825032230
         H            0.521244790725    -1.885723037851     1.714840681555     1.007825032230
         H            0.665009790725     3.111619962149     0.686514681555     1.007825032230
         H            2.973012790725    -2.545065037851     0.097984681555     1.007825032230
         H            3.720898790725     2.551494962149    -0.055538318445     1.007825032230
         H            4.639196790725    -0.421525037851    -1.093756318445     1.007825032230
         H           -3.808925209275    -1.520029037851     1.738058681555     1.007825032230
         H           -3.931076209275     1.447849962149     0.252716681555     1.007825032230
         H           -2.230292209275     1.895188962149    -0.055765318445     1.007825032230
         H           -3.801051209275     3.133190962149    -1.599340318445     1.007825032230
         H           -2.717726209275     2.055631962149    -2.501544318445     1.007825032230
         H           -4.401474209275     1.576631962149    -2.209393318445     1.007825032230

  Basis Set: AUG-CC-PVTZ
    Blend: AUG-CC-PVTZ
  Basis Set: (AUG-CC-PVTZ AUX)
    Blend: AUG-CC-PVTZ-JKFIT
	 Reference Energy          =   -1327.8592095322060231 [Eh]
	 Singles Energy            =      -0.0000000000000000 [Eh]
	 Same-Spin Energy          =      -1.0143671048941567 [Eh]
	 Opposite-Spin Energy      =      -3.0750938071520419 [Eh]
	 Correlation Energy        =      -4.0894609120461984 [Eh]
	 Total Energy              =   -1331.9486704442522296 [Eh]

	 ================> DF-SCS-MP2 Energies <==================
	-----------------------------------------------------------
	 SCS Same-Spin Scale       =       0.3333333333333333 [-]
	 SCS Opposite-Spin Scale   =       1.2000000000000000 [-]
	 SCS Same-Spin Energy      =      -0.3381223682980522 [Eh]
	 SCS Opposite-Spin Energy  =      -3.6901125685824501 [Eh]
	 SCS Correlation Energy    =      -4.0282349368805024 [Eh]
	 SCS Total Energy          =   -1331.8874444690866312 [Eh]
	-----------------------------------------------------------

  Dipole Moment: [D]
     X:    -0.8380      Y:     1.9499      Z:     0.7423     Total:     2.2484

*** Psi4 exiting successfully. Buy a developer a beer!
