                               Psi4 1.3.2 release

  ==> Input File <==

--------------------------------------------------------------------------
#psi4
#
memory 32 gb

molecule  {
0 1
  P       -2.2900960    -0.9400430     0.3446780
  O       -0.9821530    -0.2015620     0.9382890
  O        1.3422500    -1.6754830     1.2308510
  O        0.0787050     2.3596040     0.4621680
  O        3.0656197    -2.1872974    -0.8831210
  O        2.8473350     2.5031130     0.3715350
  O        4.1956880     0.4353970    -0.9728740
  O       -2.8268630     0.0333510    -0.8075310
  O       -3.2591210    -0.7232820     1.6216710
  O       -2.1189930    -2.3436440    -0.0996680
  C        0.1181620     0.0300090     0.0163190
  C        0.9532920    -1.2442050    -0.0757250
  C        0.8985890     1.2026440     0.5648510
  C        2.2596600    -1.0143070    -0.8180370
  C        2.1770750     1.3964720    -0.2280410
  C        3.0258420     0.1487050    -0.2103220
  C       -3.1242130     1.4315980    -0.4888860
  C       -3.5363170     2.0851650    -1.7841190
  H       -0.2830920     0.2988010    -0.9702380
  H        0.3702690    -2.0293640    -0.5720320
  H        1.1571200     0.9978770     1.6121560
  H        2.0921207    -0.8347409    -1.8869277
  H        1.9169870     1.6362870    -1.2735830
  H        3.2958550    -0.0945320     0.8276460
  H        0.5217750    -1.8880320     1.7115100
  H        0.6655400     3.1093110     0.6831840
  H        2.9735430    -2.5473740     0.0946540
  H        3.7214290     2.5491860    -0.0588690
  H        4.6397270    -0.4238340    -1.0970870
  H       -3.8083950    -1.5223380     1.7347280
  H       -3.9305460     1.4455410     0.2493860
  H       -2.2297620     1.8928800    -0.0590960
  H       -3.8005210     3.1308820    -1.6026710
  H       -2.7171960     2.0533230    -2.5048750
  H       -4.4009440     1.5743230    -2.2127240
units angstrom
no_reorient  #important for SAPT in psi4, default
symmetry c1  #important for SAPT in psi4, default
}

set PROPERTIES_ORIGIN ["COM"]
properties('MP2/aug-cc-pvtz', properties = ['dipole'])
--------------------------------------------------------------------------

    Molecular point group: c1
  Charge       = 0
  Multiplicity = 1
  Basis Set: AUG-CC-PVTZ
    Blend: AUG-CC-PVTZ
  Basis Set: (AUG-CC-PVTZ AUX)
    Blend: AUG-CC-PVTZ-JKFIT

    Orbital Energies [Eh]
    ---------------------

    Doubly Occupied:

       1A    -80.117108     2A    -20.614884     3A    -20.607360
       4A    -20.599022     5A    -20.584597     6A    -20.581061
       7A    -20.577065     8A    -20.574040     9A    -20.573681
      10A    -20.523573    11A    -11.321153    12A    -11.304282
      13A    -11.299442    14A    -11.298933    15A    -11.297661
      16A    -11.297122    17A    -11.292375    18A    -11.229859
      19A     -7.632559    20A     -5.531065    21A     -5.530692
      22A     -5.529489    23A     -1.460493    24A     -1.409878
      25A     -1.394961    26A     -1.390801    27A     -1.386782
      28A     -1.373146    29A     -1.361544    30A     -1.350121
      31A     -1.303970    32A     -1.118274    33A     -1.040479
      34A     -1.011890    35A     -1.001380    36A     -0.880397
      37A     -0.864984    38A     -0.856193    39A     -0.821914
      40A     -0.810090    41A     -0.751482    42A     -0.745871
      43A     -0.731545    44A     -0.728651    45A     -0.707363
      46A     -0.687360    47A     -0.674755    48A     -0.673012
      49A     -0.662392    50A     -0.654602    51A     -0.643284
      52A     -0.634089    53A     -0.627304    54A     -0.615327
      55A     -0.603576    56A     -0.597571    57A     -0.581208
      58A     -0.575364    59A     -0.571801    60A     -0.559422
      61A     -0.554380    62A     -0.548506    63A     -0.541003
      64A     -0.534915    65A     -0.529215    66A     -0.520657
      67A     -0.513317    68A     -0.504095    69A     -0.497302
      70A     -0.485837    71A     -0.479975    72A     -0.476850
      73A     -0.462544    74A     -0.456482    75A     -0.450207
      76A     -0.436614

  @DF-RHF Final Energy: -1327.85096057212695

   => Energetics <=

    Nuclear Repulsion Energy =           1771.4197960903420608
    One-Electron Energy =               -5354.9971285251031077
    Two-Electron Energy =                2255.7263718626340960
    Total Energy =                      -1327.8509605721269509
  Basis Set: (AUG-CC-PVTZ AUX)
    Blend: AUG-CC-PVTZ-RI
    Molecular point group: c1

    Geometry (in Angstrom), charge = 0, multiplicity = 1:

       Center              X                  Y                   Z               Mass
    ------------   -----------------  -----------------  -----------------  -----------------
         P           -2.290044313737    -0.939869245739     0.348865990865    30.973761998420
         O           -0.982101313737    -0.201388245739     0.942476990865    15.994914619570
         O            1.342301686263    -1.675309245739     1.235038990865    15.994914619570
         O            0.078756686263     2.359777754261     0.466355990865    15.994914619570
         O            3.065671386263    -2.187123645739    -0.878933009135    15.994914619570
         O            2.847386686263     2.503286754261     0.375722990865    15.994914619570
         O            4.195739686263     0.435570754261    -0.968686009135    15.994914619570
         O           -2.826811313737     0.033524754261    -0.803343009135    15.994914619570
         O           -3.259069313737    -0.723108245739     1.625858990865    15.994914619570
         O           -2.118941313737    -2.343470245739    -0.095480009135    15.994914619570
         C            0.118213686263     0.030182754261     0.020506990865    12.000000000000
         C            0.953343686263    -1.244031245739    -0.071537009135    12.000000000000
         C            0.898640686263     1.202817754261     0.569038990865    12.000000000000
         C            2.259711686263    -1.014133245739    -0.813849009135    12.000000000000
         C            2.177126686263     1.396645754261    -0.223853009135    12.000000000000
         C            3.025893686263     0.148878754261    -0.206134009135    12.000000000000
         C           -3.124161313737     1.431771754261    -0.484698009135    12.000000000000
         C           -3.536265313737     2.085338754261    -1.779931009135    12.000000000000
         H           -0.283040313737     0.298974754261    -0.966050009135     1.007825032230
         H            0.370320686263    -2.029190245739    -0.567844009135     1.007825032230
         H            1.157171686263     0.998050754261     1.616343990865     1.007825032230
         H            2.092172386263    -0.834567145739    -1.882739709135     1.007825032230
         H            1.917038686263     1.636460754261    -1.269395009135     1.007825032230
         H            3.295906686263    -0.094358245739     0.831833990865     1.007825032230
         H            0.521826686263    -1.887858245739     1.715697990865     1.007825032230
         H            0.665591686263     3.109484754261     0.687371990865     1.007825032230
         H            2.973594686263    -2.547200245739     0.098841990865     1.007825032230
         H            3.721480686263     2.549359754261    -0.054681009135     1.007825032230
         H            4.639778686263    -0.423660245739    -1.092899009135     1.007825032230
         H           -3.808343313737    -1.522164245739     1.738915990865     1.007825032230
         H           -3.930494313737     1.445714754261     0.253573990865     1.007825032230
         H           -2.229710313737     1.893053754261    -0.054908009135     1.007825032230
         H           -3.800469313737     3.131055754261    -1.598483009135     1.007825032230
         H           -2.717144313737     2.053496754261    -2.500687009135     1.007825032230
         H           -4.400892313737     1.574496754261    -2.208536009135     1.007825032230

  Basis Set: AUG-CC-PVTZ
    Blend: AUG-CC-PVTZ
  Basis Set: (AUG-CC-PVTZ AUX)
    Blend: AUG-CC-PVTZ-JKFIT
	 Reference Energy          =   -1327.8509605721269509 [Eh]
	 Singles Energy            =      -0.0000000000000000 [Eh]
	 Same-Spin Energy          =      -1.0157378343427768 [Eh]
	 Opposite-Spin Energy      =      -3.0788974697254234 [Eh]
	 Correlation Energy        =      -4.0946353040682002 [Eh]
	 Total Energy              =   -1331.9455958761950569 [Eh]

	 ================> DF-SCS-MP2 Energies <==================
	-----------------------------------------------------------
	 SCS Same-Spin Scale       =       0.3333333333333333 [-]
	 SCS Opposite-Spin Scale   =       1.2000000000000000 [-]
	 SCS Same-Spin Energy      =      -0.3385792781142589 [Eh]
	 SCS Opposite-Spin Energy  =      -3.6946769636705081 [Eh]
	 SCS Correlation Energy    =      -4.0332562417847670 [Eh]
	 SCS Total Energy          =   -1331.8842168139117348 [Eh]
	-----------------------------------------------------------

  Dipole Moment: [D]
     X:    -1.1084      Y:     1.8619      Z:     0.8204     Total:     2.3170

*** Psi4 exiting successfully. Buy a developer a beer!
