                               Psi4 1.3.2 release

  ==> Input File <==

--------------------------------------------------------------------------
#psi4
#
memory 32 gb

molecule  {
0 1
  P       -2.2900960    -0.9400430     0.3446780
  O       -0.9821530    -0.2015620     0.9382890
  O        1.3422500    -1.6754830     1.2308510
  O        0.0787050     2.3596040     0.4621680
  O        3.0685150    -2.1870720    -0.8085900
  O        2.8473350     2.5031130     0.3715350
  O        4.1956880     0.4353970    -0.9728740
  O       -2.8268630     0.0333510    -0.8075310
  O       -3.2591210    -0.7232820     1.6216710
  O       -2.1189930    -2.3436440    -0.0996680
  C        0.1191492     0.0239617     0.0280010
  C        0.9532920    -1.2442050    -0.0757250
  C        0.8985890     1.2026440     0.5648510
  C        2.2596600    -1.0143070    -0.8180370
  C        2.1770750     1.3964720    -0.2280410
  C        3.0258420     0.1487050    -0.2103220
  C       -3.1242130     1.4315980    -0.4888860
  C       -3.5363170     2.0851650    -1.7841190
  H       -0.2830920     0.2988010    -0.9702380
  H        0.3702690    -2.0293640    -0.5720320
  H        1.1526531     0.9894209     1.6115615
  H        2.0609340    -0.7886600    -1.8727560
  H        1.9169870     1.6362870    -1.2735830
  H        3.2958550    -0.0945320     0.8276460
  H        0.5217750    -1.8880320     1.7115100
  H        0.6655400     3.1093110     0.6831840
  H        2.9735430    -2.5473740     0.0946540
  H        3.7214290     2.5491860    -0.0588690
  H        4.6397270    -0.4238340    -1.0970870
  H       -3.8083950    -1.5223380     1.7347280
  H       -3.9305460     1.4455410     0.2493860
  H       -2.2297620     1.8928800    -0.0590960
  H       -3.8005210     3.1308820    -1.6026710
  H       -2.7171960     2.0533230    -2.5048750
  H       -4.4009440     1.5743230    -2.2127240
units angstrom
no_reorient  #important for SAPT in psi4, default
symmetry c1  #important for SAPT in psi4, default
}

set PROPERTIES_ORIGIN ["COM"]
properties('MP2/aug-cc-pvtz', properties = ['dipole'])
--------------------------------------------------------------------------

    Molecular point group: c1
  Charge       = 0
  Multiplicity = 1
  Basis Set: AUG-CC-PVTZ
    Blend: AUG-CC-PVTZ
  Basis Set: (AUG-CC-PVTZ AUX)
    Blend: AUG-CC-PVTZ-JKFIT

    Orbital Energies [Eh]
    ---------------------

    Doubly Occupied:

       1A    -80.117524     2A    -20.615112     3A    -20.607770
       4A    -20.599112     5A    -20.582871     6A    -20.576699
       7A    -20.574738     8A    -20.574060     9A    -20.573629
      10A    -20.523777    11A    -11.320806    12A    -11.303183
      13A    -11.299464    14A    -11.299445    15A    -11.298424
      16A    -11.296714    17A    -11.291396    18A    -11.229863
      19A     -7.632954    20A     -5.531458    21A     -5.531091
      22A     -5.529885    23A     -1.461370    24A     -1.411292
      25A     -1.395357    26A     -1.393201    27A     -1.387101
      28A     -1.373171    29A     -1.363978    30A     -1.353880
      31A     -1.304210    32A     -1.118986    33A     -1.040517
      34A     -1.012107    35A     -1.003497    36A     -0.880886
      37A     -0.864936    38A     -0.859481    39A     -0.822522
      40A     -0.809611    41A     -0.752038    42A     -0.745112
      43A     -0.731612    44A     -0.729338    45A     -0.708084
      46A     -0.687251    47A     -0.678446    48A     -0.673619
      49A     -0.662400    50A     -0.661030    51A     -0.643744
      52A     -0.635164    53A     -0.627685    54A     -0.615451
      55A     -0.604336    56A     -0.598402    57A     -0.581617
      58A     -0.575983    59A     -0.571307    60A     -0.559335
      61A     -0.556547    62A     -0.548389    63A     -0.541252
      64A     -0.536517    65A     -0.529176    66A     -0.521545
      67A     -0.513154    68A     -0.503972    69A     -0.497027
      70A     -0.483864    71A     -0.480039    72A     -0.476839
      73A     -0.462812    74A     -0.455781    75A     -0.450198
      76A     -0.436272

  @DF-RHF Final Energy: -1327.86131116734987

   => Energetics <=

    Nuclear Repulsion Energy =           1772.5867900787743565
    One-Electron Energy =               -5357.2933680498654212
    Two-Electron Energy =                2256.8452668037411968
    Total Energy =                      -1327.8613111673498679
  Basis Set: (AUG-CC-PVTZ AUX)
    Blend: AUG-CC-PVTZ-RI
    Molecular point group: c1

    Geometry (in Angstrom), charge = 0, multiplicity = 1:

       Center              X                  Y                   Z               Mass
    ------------   -----------------  -----------------  -----------------  -----------------
         P           -2.290121463661    -0.939761479922     0.344193423825    30.973761998420
         O           -0.982178463661    -0.201280479922     0.937804423825    15.994914619570
         O            1.342224536339    -1.675201479922     1.230366423825    15.994914619570
         O            0.078679536339     2.359885520078     0.461683423825    15.994914619570
         O            3.068489536339    -2.186790479922    -0.809074576175    15.994914619570
         O            2.847309536339     2.503394520078     0.371050423825    15.994914619570
         O            4.195662536339     0.435678520078    -0.973358576175    15.994914619570
         O           -2.826888463661     0.033632520078    -0.808015576175    15.994914619570
         O           -3.259146463661    -0.723000479922     1.621186423825    15.994914619570
         O           -2.119018463661    -2.343362479922    -0.100152576175    15.994914619570
         C            0.119123736339     0.024243220078     0.027516423825    12.000000000000
         C            0.953266536339    -1.243923479922    -0.076209576175    12.000000000000
         C            0.898563536339     1.202925520078     0.564366423825    12.000000000000
         C            2.259634536339    -1.014025479922    -0.818521576175    12.000000000000
         C            2.177049536339     1.396753520078    -0.228525576175    12.000000000000
         C            3.025816536339     0.148986520078    -0.210806576175    12.000000000000
         C           -3.124238463661     1.431879520078    -0.489370576175    12.000000000000
         C           -3.536342463661     2.085446520078    -1.784603576175    12.000000000000
         H           -0.283117463661     0.299082520078    -0.970722576175     1.007825032230
         H            0.370243536339    -2.029082479922    -0.572516576175     1.007825032230
         H            1.152627636339     0.989702420078     1.611076923825     1.007825032230
         H            2.060908536339    -0.788378479922    -1.873240576175     1.007825032230
         H            1.916961536339     1.636568520078    -1.274067576175     1.007825032230
         H            3.295829536339    -0.094250479922     0.827161423825     1.007825032230
         H            0.521749536339    -1.887750479922     1.711025423825     1.007825032230
         H            0.665514536339     3.109592520078     0.682699423825     1.007825032230
         H            2.973517536339    -2.547092479922     0.094169423825     1.007825032230
         H            3.721403536339     2.549467520078    -0.059353576175     1.007825032230
         H            4.639701536339    -0.423552479922    -1.097571576175     1.007825032230
         H           -3.808420463661    -1.522056479922     1.734243423825     1.007825032230
         H           -3.930571463661     1.445822520078     0.248901423825     1.007825032230
         H           -2.229787463661     1.893161520078    -0.059580576175     1.007825032230
         H           -3.800546463661     3.131163520078    -1.603155576175     1.007825032230
         H           -2.717221463661     2.053604520078    -2.505359576175     1.007825032230
         H           -4.400969463661     1.574604520078    -2.213208576175     1.007825032230

  Basis Set: AUG-CC-PVTZ
    Blend: AUG-CC-PVTZ
  Basis Set: (AUG-CC-PVTZ AUX)
    Blend: AUG-CC-PVTZ-JKFIT
	 Reference Energy          =   -1327.8613111673498679 [Eh]
	 Singles Energy            =      -0.0000000000000000 [Eh]
	 Same-Spin Energy          =      -1.0146369447672658 [Eh]
	 Opposite-Spin Energy      =      -3.0760530807668411 [Eh]
	 Correlation Energy        =      -4.0906900255341068 [Eh]
	 Total Energy              =   -1331.9520011928839267 [Eh]

	 ================> DF-SCS-MP2 Energies <==================
	-----------------------------------------------------------
	 SCS Same-Spin Scale       =       0.3333333333333333 [-]
	 SCS Opposite-Spin Scale   =       1.2000000000000000 [-]
	 SCS Same-Spin Energy      =      -0.3382123149224219 [Eh]
	 SCS Opposite-Spin Energy  =      -3.6912636969202093 [Eh]
	 SCS Correlation Energy    =      -4.0294760118426316 [Eh]
	 SCS Total Energy          =   -1331.8907871791925572 [Eh]
	-----------------------------------------------------------

  Dipole Moment: [D]
     X:    -1.1350      Y:     1.8489      Z:     0.7325     Total:     2.2899

*** Psi4 exiting successfully. Buy a developer a beer!
