                               Psi4 1.3.2 release

  ==> Input File <==

--------------------------------------------------------------------------
#psi4
#
memory 32 gb

molecule  {
0 1
  P       -2.2900960    -0.9400430     0.3446780
  O       -0.9821530    -0.2015620     0.9382890
  O        1.3422500    -1.6754830     1.2308510
  O        0.0787050     2.3596040     0.4621680
  O        3.0685150    -2.1870720    -0.8085900
  O        2.8473350     2.5031130     0.3715350
  O        4.1956880     0.4353970    -0.9728740
  O       -2.8816521     0.0125353    -0.7580913
  O       -3.2591210    -0.7232820     1.6216710
  O       -2.1189930    -2.3436440    -0.0996680
  C        0.1181620     0.0300090     0.0163190
  C        0.9532920    -1.2442050    -0.0757250
  C        0.8985890     1.2026440     0.5648510
  C        2.2596600    -1.0143070    -0.8180370
  C        2.1770750     1.3964720    -0.2280410
  C        3.0258420     0.1487050    -0.2103220
  C       -3.1242130     1.4315980    -0.4888860
  C       -3.5363170     2.0851650    -1.7841190
  H       -0.2830920     0.2988010    -0.9702380
  H        0.3702690    -2.0293640    -0.5720320
  H        1.1571200     0.9978770     1.6121560
  H        2.0609340    -0.7886600    -1.8727560
  H        1.9169870     1.6362870    -1.2735830
  H        3.2958550    -0.0945320     0.8276460
  H        0.5217750    -1.8880320     1.7115100
  H        0.6655400     3.1093110     0.6831840
  H        2.9735430    -2.5473740     0.0946540
  H        3.7214290     2.5491860    -0.0588690
  H        4.6397270    -0.4238340    -1.0970870
  H       -3.8083950    -1.5223380     1.7347280
  H       -3.9309282     1.3883223     0.2478302
  H       -2.2297620     1.8928800    -0.0590960
  H       -3.8005210     3.1308820    -1.6026710
  H       -2.7171960     2.0533230    -2.5048750
  H       -4.4009440     1.5743230    -2.2127240
units angstrom
no_reorient  #important for SAPT in psi4, default
symmetry c1  #important for SAPT in psi4, default
}

set PROPERTIES_ORIGIN ["COM"]
properties('MP2/aug-cc-pvtz', properties = ['dipole'])
--------------------------------------------------------------------------

    Molecular point group: c1
  Charge       = 0
  Multiplicity = 1
  Basis Set: AUG-CC-PVTZ
    Blend: AUG-CC-PVTZ
  Basis Set: (AUG-CC-PVTZ AUX)
    Blend: AUG-CC-PVTZ-JKFIT

    Orbital Energies [Eh]
    ---------------------

    Doubly Occupied:

       1A    -80.112819     2A    -20.608693     3A    -20.607326
       4A    -20.596805     5A    -20.583386     6A    -20.577287
       7A    -20.574906     8A    -20.574468     9A    -20.574311
      10A    -20.521383    11A    -11.321860    12A    -11.303929
      13A    -11.301579    14A    -11.299738    15A    -11.299332
      16A    -11.297256    17A    -11.291856    18A    -11.232342
      19A     -7.628833    20A     -5.527335    21A     -5.527061
      22A     -5.525741    23A     -1.462063    24A     -1.411636
      25A     -1.395341    26A     -1.393451    27A     -1.386566
      28A     -1.373327    29A     -1.364446    30A     -1.354278
      31A     -1.302035    32A     -1.119612    33A     -1.043511
      34A     -1.012499    35A     -1.003966    36A     -0.882017
      37A     -0.868432    38A     -0.859519    39A     -0.820565
      40A     -0.811108    41A     -0.752171    42A     -0.745458
      43A     -0.731505    44A     -0.729514    45A     -0.707495
      46A     -0.687520    47A     -0.678684    48A     -0.674588
      49A     -0.662266    50A     -0.660722    51A     -0.642830
      52A     -0.635963    53A     -0.627606    54A     -0.616489
      55A     -0.603686    56A     -0.599005    57A     -0.581836
      58A     -0.574731    59A     -0.573136    60A     -0.559451
      61A     -0.556820    62A     -0.550834    63A     -0.541222
      64A     -0.536921    65A     -0.529521    66A     -0.523396
      67A     -0.513371    68A     -0.504544    69A     -0.495723
      70A     -0.485484    71A     -0.482382    72A     -0.473709
      73A     -0.462521    74A     -0.456400    75A     -0.450420
      76A     -0.436550

  @DF-RHF Final Energy: -1327.86156647715484

   => Energetics <=

    Nuclear Repulsion Energy =           1772.9063983720034230
    One-Electron Energy =               -5357.9417387970761411
    Two-Electron Energy =                2257.1737739479176525
    Total Energy =                      -1327.8615664771550655
  Basis Set: (AUG-CC-PVTZ AUX)
    Blend: AUG-CC-PVTZ-RI
    Molecular point group: c1

    Geometry (in Angstrom), charge = 0, multiplicity = 1:

       Center              X                  Y                   Z               Mass
    ------------   -----------------  -----------------  -----------------  -----------------
         P           -2.287052403097    -0.938686978714     0.341938238586    30.973761998420
         O           -0.979109403097    -0.200205978714     0.935549238586    15.994914619570
         O            1.345293596903    -1.674126978714     1.228111238586    15.994914619570
         O            0.081748596903     2.360960021286     0.459428238586    15.994914619570
         O            3.071558596903    -2.185715978714    -0.811329761414    15.994914619570
         O            2.850378596903     2.504469021286     0.368795238586    15.994914619570
         O            4.198731596903     0.436753021286    -0.975613761414    15.994914619570
         O           -2.878608503097     0.013891321286    -0.760831061414    15.994914619570
         O           -3.256077403097    -0.721925978714     1.618931238586    15.994914619570
         O           -2.115949403097    -2.342287978714    -0.102407761414    15.994914619570
         C            0.121205596903     0.031365021286     0.013579238586    12.000000000000
         C            0.956335596903    -1.242848978714    -0.078464761414    12.000000000000
         C            0.901632596903     1.204000021286     0.562111238586    12.000000000000
         C            2.262703596903    -1.012950978714    -0.820776761414    12.000000000000
         C            2.180118596903     1.397828021286    -0.230780761414    12.000000000000
         C            3.028885596903     0.150061021286    -0.213061761414    12.000000000000
         C           -3.121169403097     1.432954021286    -0.491625761414    12.000000000000
         C           -3.533273403097     2.086521021286    -1.786858761414    12.000000000000
         H           -0.280048403097     0.300157021286    -0.972977761414     1.007825032230
         H            0.373312596903    -2.028007978714    -0.574771761414     1.007825032230
         H            1.160163596903     0.999233021286     1.609416238586     1.007825032230
         H            2.063977596903    -0.787303978714    -1.875495761414     1.007825032230
         H            1.920030596903     1.637643021286    -1.276322761414     1.007825032230
         H            3.298898596903    -0.093175978714     0.824906238586     1.007825032230
         H            0.524818596903    -1.886675978714     1.708770238586     1.007825032230
         H            0.668583596903     3.110667021286     0.680444238586     1.007825032230
         H            2.976586596903    -2.546017978714     0.091914238586     1.007825032230
         H            3.724472596903     2.550542021286    -0.061608761414     1.007825032230
         H            4.642770596903    -0.422477978714    -1.099826761414     1.007825032230
         H           -3.805351403097    -1.520981978714     1.731988238586     1.007825032230
         H           -3.927884603097     1.389678321286     0.245090438586     1.007825032230
         H           -2.226718403097     1.894236021286    -0.061835761414     1.007825032230
         H           -3.797477403097     3.132238021286    -1.605410761414     1.007825032230
         H           -2.714152403097     2.054679021286    -2.507614761414     1.007825032230
         H           -4.397900403097     1.575679021286    -2.215463761414     1.007825032230

  Basis Set: AUG-CC-PVTZ
    Blend: AUG-CC-PVTZ
  Basis Set: (AUG-CC-PVTZ AUX)
    Blend: AUG-CC-PVTZ-JKFIT
	 Reference Energy          =   -1327.8615664771548381 [Eh]
	 Singles Energy            =      -0.0000000000000000 [Eh]
	 Same-Spin Energy          =      -1.0142096537849978 [Eh]
	 Opposite-Spin Energy      =      -3.0749731368849069 [Eh]
	 Correlation Energy        =      -4.0891827906699048 [Eh]
	 Total Energy              =   -1331.9507492678246763 [Eh]

	 ================> DF-SCS-MP2 Energies <==================
	-----------------------------------------------------------
	 SCS Same-Spin Scale       =       0.3333333333333333 [-]
	 SCS Opposite-Spin Scale   =       1.2000000000000000 [-]
	 SCS Same-Spin Energy      =      -0.3380698845949993 [Eh]
	 SCS Opposite-Spin Energy  =      -3.6899677642618882 [Eh]
	 SCS Correlation Energy    =      -4.0280376488568876 [Eh]
	 SCS Total Energy          =   -1331.8896041260118182 [Eh]
	-----------------------------------------------------------

  Dipole Moment: [D]
     X:    -1.0091      Y:     2.0042      Z:     0.5415     Total:     2.3083

*** Psi4 exiting successfully. Buy a developer a beer!
