                               Psi4 1.4a3.dev225

  ==> Input File <==

--------------------------------------------------------------------------
#psi4
#
memory 32 gb

molecule  {
0 1
  P       -2.3219140    -1.0563120    -0.0968450
  O       -1.0285840    -0.5623410     0.7549430
  O        1.3695440    -1.8069540     1.2202350
  O       -0.1592450     2.1412630     0.5207450
  O        3.3269040    -2.0858120    -0.6453880
  O        2.5724350     2.5270130     0.6374560
  O        4.2203020     0.6406430    -0.6358120
  O       -2.8737010     0.2643620    -0.8096810
  O       -3.3065970    -1.3497020     1.1531960
  O       -2.1044560    -2.1814480    -1.0350500
  C        0.1200290    -0.1583450    -0.0432010
  C        1.0698050    -1.3527180    -0.1046720
  C        0.7441670     1.0454510     0.6308160
  C        2.4193320    -0.9866070    -0.7068450
  C        2.0603010     1.3853380    -0.0470020
  C        3.0377548     0.2577659     0.0290719
  C       -3.2473180     1.4231610     0.0025120
  C       -3.2076300     2.6262440    -0.9075720
  H       -0.2047330     0.1313700    -1.0514980
  H        0.5965010    -2.1549610    -0.6866410
  H        0.9371260     0.8063110     1.6860210
  H        2.3054700    -0.7437210    -1.7704410
  H        1.8633300     1.6367370    -1.1028410
  H        3.2142070    -0.0417910     1.0561650
  H        0.5126160    -2.0057500     1.6426110
  H        0.3598300     2.9232990     0.7925780
  H        3.1793900    -2.4823080     0.2360710
  H        3.4672560     2.6739710     0.2770410
  H        4.7639490    -0.1654590    -0.7244900
  H       -3.7873380    -2.1826420     0.9908450
  H       -4.2474700     1.2335250     0.4005830
  H       -2.5352900     1.5309660     0.8217280
  H       -3.5402110     3.5125760    -0.3587690
  H       -2.1856630     2.7912820    -1.2511950
  H       -3.8637180     2.4807570    -1.7684970
units angstrom
no_reorient  #important for SAPT in psi4, default
symmetry c1  #important for SAPT in psi4, default
}

set PROPERTIES_ORIGIN ["COM"]
properties('MP2/aug-cc-pvtz', properties = ['dipole'])
--------------------------------------------------------------------------

    Molecular point group: c1
  Charge       = 0
  Multiplicity = 1
  Basis Set: AUG-CC-PVTZ
    Blend: AUG-CC-PVTZ
  Basis Set: (AUG-CC-PVTZ AUX)
    Blend: AUG-CC-PVTZ-JKFIT

    Orbital Energies [Eh]
    ---------------------

    Doubly Occupied:

       1A    -80.116608     2A    -20.614828     3A    -20.607769
       4A    -20.595893     5A    -20.583489     6A    -20.577144
       7A    -20.576421     8A    -20.575189     9A    -20.574785
      10A    -20.522282    11A    -11.321007    12A    -11.303983
      13A    -11.301125    14A    -11.300412    15A    -11.297482
      16A    -11.296106    17A    -11.292525    18A    -11.222892
      19A     -7.631871    20A     -5.530406    21A     -5.529903
      22A     -5.528841    23A     -1.458270    24A     -1.410981
      25A     -1.396932    26A     -1.392373    27A     -1.385160
      28A     -1.374431    29A     -1.363875    30A     -1.355541
      31A     -1.302469    32A     -1.116256    33A     -1.035457
      34A     -1.010988    35A     -1.000077    36A     -0.877496
      37A     -0.862615    38A     -0.858121    39A     -0.823278
      40A     -0.810017    41A     -0.754523    42A     -0.746972
      43A     -0.729039    44A     -0.726155    45A     -0.705250
      46A     -0.686666    47A     -0.680545    48A     -0.673341
      49A     -0.664766    50A     -0.658869    51A     -0.642227
      52A     -0.638769    53A     -0.623297    54A     -0.612693
      55A     -0.604240    56A     -0.597344    57A     -0.581097
      58A     -0.577296    59A     -0.570177    60A     -0.560027
      61A     -0.555384    62A     -0.548043    63A     -0.538154
      64A     -0.537707    65A     -0.530333    66A     -0.517948
      67A     -0.509020    68A     -0.503981    69A     -0.494725
      70A     -0.487556    71A     -0.478436    72A     -0.475282
      73A     -0.462647    74A     -0.461088    75A     -0.450376
      76A     -0.426521

  @DF-RHF Final Energy: -1327.85936974553852

   => Energetics <=

    Nuclear Repulsion Energy =           1774.1661976502489324
    One-Electron Energy =               -5360.5595548894989406
    Two-Electron Energy =                2258.5339874937112654
    Total Energy =                      -1327.8593697455385154
  Basis Set: (AUG-CC-PVTZ AUX)
    Blend: AUG-CC-PVTZ-RI
    Molecular point group: c1

    Geometry (in Angstrom), charge = 0, multiplicity = 1:

       Center              X                  Y                   Z               Mass
    ------------   -----------------  -----------------  -----------------  -----------------
         P           -2.311971810182    -1.020181296072    -0.100264308608    30.973761998420
         O           -1.018641810182    -0.526210296072     0.751523691392    15.994914619570
         O            1.379486189818    -1.770823296072     1.216815691392    15.994914619570
         O           -0.149302810182     2.177393703928     0.517325691392    15.994914619570
         O            3.336846189818    -2.049681296072    -0.648807308608    15.994914619570
         O            2.582377189818     2.563143703928     0.634036691392    15.994914619570
         O            4.230244189818     0.676773703928    -0.639231308608    15.994914619570
         O           -2.863758810182     0.300492703928    -0.813100308608    15.994914619570
         O           -3.296654810182    -1.313571296072     1.149776691392    15.994914619570
         O           -2.094513810182    -2.145317296072    -1.038469308608    15.994914619570
         C            0.129971189818    -0.122214296072    -0.046620308608    12.000000000000
         C            1.079747189818    -1.316587296072    -0.108091308608    12.000000000000
         C            0.754109189818     1.081581703928     0.627396691392    12.000000000000
         C            2.429274189818    -0.950476296072    -0.710264308608    12.000000000000
         C            2.070243189818     1.421468703928    -0.050421308608    12.000000000000
         C            3.047696989818     0.293896603928     0.025652591392    12.000000000000
         C           -3.237375810182     1.459291703928    -0.000907308608    12.000000000000
         C           -3.197687810182     2.662374703928    -0.910991308608    12.000000000000
         H           -0.194790810182     0.167500703928    -1.054917308608     1.007825032230
         H            0.606443189818    -2.118830296072    -0.690060308608     1.007825032230
         H            0.947068189818     0.842441703928     1.682601691392     1.007825032230
         H            2.315412189818    -0.707590296072    -1.773860308608     1.007825032230
         H            1.873272189818     1.672867703928    -1.106260308608     1.007825032230
         H            3.224149189818    -0.005660296072     1.052745691392     1.007825032230
         H            0.522558189818    -1.969619296072     1.639191691392     1.007825032230
         H            0.369772189818     2.959429703928     0.789158691392     1.007825032230
         H            3.189332189818    -2.446177296072     0.232651691392     1.007825032230
         H            3.477198189818     2.710101703928     0.273621691392     1.007825032230
         H            4.773891189818    -0.129328296072    -0.727909308608     1.007825032230
         H           -3.777395810182    -2.146511296072     0.987425691392     1.007825032230
         H           -4.237527810182     1.269655703928     0.397163691392     1.007825032230
         H           -2.525347810182     1.567096703928     0.818308691392     1.007825032230
         H           -3.530268810182     3.548706703928    -0.362188308608     1.007825032230
         H           -2.175720810182     2.827412703928    -1.254614308608     1.007825032230
         H           -3.853775810182     2.516887703928    -1.771916308608     1.007825032230

  Basis Set: AUG-CC-PVTZ
    Blend: AUG-CC-PVTZ
  Basis Set: (AUG-CC-PVTZ AUX)
    Blend: AUG-CC-PVTZ-JKFIT
	 Reference Energy          =   -1327.8593697455385154 [Eh]
	 Singles Energy            =      -0.0000000000000000 [Eh]
	 Same-Spin Energy          =      -1.0145265753994663 [Eh]
	 Opposite-Spin Energy      =      -3.0762073609507445 [Eh]
	 Correlation Energy        =      -4.0907339363502109 [Eh]
	 Total Energy              =   -1331.9501036818887769 [Eh]

	 ================> DF-SCS-MP2 Energies <==================
	-----------------------------------------------------------
	 SCS Same-Spin Scale       =       0.3333333333333333 [-]
	 SCS Opposite-Spin Scale   =       1.2000000000000000 [-]
	 SCS Same-Spin Energy      =      -0.3381755251331554 [Eh]
	 SCS Opposite-Spin Energy  =      -3.6914488331408934 [Eh]
	 SCS Correlation Energy    =      -4.0296243582740487 [Eh]
	 SCS Total Energy          =   -1331.8889941038125926 [Eh]
	-----------------------------------------------------------

  Dipole Moment: [D]
     X:    -0.8066      Y:     1.4398      Z:     1.8781     Total:     2.5002

*** Psi4 exiting successfully. Buy a developer a beer!
