                               Psi4 1.3.2 release

  ==> Input File <==

--------------------------------------------------------------------------
#psi4
#
memory 32 gb

molecule  {
0 1
  P       -2.2900960    -0.9400430     0.3446780
  O       -0.9821530    -0.2015620     0.9382890
  O        1.3422500    -1.6754830     1.2308510
  O        0.0787050     2.3596040     0.4621680
  O        3.0685150    -2.1870720    -0.8085900
  O        2.8473350     2.5031130     0.3715350
  O        4.1956880     0.4353970    -0.9728740
  O       -2.8326615     0.0379282    -0.8320020
  O       -3.2591210    -0.7232820     1.6216710
  O       -2.1189930    -2.3436440    -0.0996680
  C        0.1181620     0.0300090     0.0163190
  C        0.9532920    -1.2442050    -0.0757250
  C        0.8985890     1.2026440     0.5648510
  C        2.2596600    -1.0143070    -0.8180370
  C        2.1770750     1.3964720    -0.2280410
  C        3.0258420     0.1487050    -0.2103220
  C       -3.1242130     1.4315980    -0.4888860
  C       -3.5328005     2.0622278    -1.7965443
  H       -0.2830920     0.2988010    -0.9702380
  H        0.3702690    -2.0293640    -0.5720320
  H        1.1571200     0.9978770     1.6121560
  H        2.0609340    -0.7886600    -1.8727560
  H        1.9169870     1.6362870    -1.2735830
  H        3.2958550    -0.0945320     0.8276460
  H        0.5217750    -1.8880320     1.7115100
  H        0.6655400     3.1093110     0.6831840
  H        2.9735430    -2.5473740     0.0946540
  H        3.7214290     2.5491860    -0.0588690
  H        4.6397270    -0.4238340    -1.0970870
  H       -3.8083950    -1.5223380     1.7347280
  H       -3.9305460     1.4455410     0.2493860
  H       -2.2297620     1.8928800    -0.0590960
  H       -3.8005210     3.1308820    -1.6026710
  H       -2.7171960     2.0533230    -2.5048750
  H       -4.4009440     1.5743230    -2.2127240
units angstrom
no_reorient  #important for SAPT in psi4, default
symmetry c1  #important for SAPT in psi4, default
}

set PROPERTIES_ORIGIN ["COM"]
properties('MP2/aug-cc-pvtz', properties = ['dipole'])
--------------------------------------------------------------------------

    Molecular point group: c1
  Charge       = 0
  Multiplicity = 1
  Basis Set: AUG-CC-PVTZ
    Blend: AUG-CC-PVTZ
  Basis Set: (AUG-CC-PVTZ AUX)
    Blend: AUG-CC-PVTZ-JKFIT

    Orbital Energies [Eh]
    ---------------------

    Doubly Occupied:

       1A    -80.119234     2A    -20.616720     3A    -20.608877
       4A    -20.598668     5A    -20.583623     6A    -20.577029
       7A    -20.574910     8A    -20.574330     9A    -20.573722
      10A    -20.524413    11A    -11.321363    12A    -11.304016
      13A    -11.299688    14A    -11.299026    15A    -11.297664
      16A    -11.296987    17A    -11.291721    18A    -11.228433
      19A     -7.634343    20A     -5.532861    21A     -5.532373
      22A     -5.531288    23A     -1.459140    24A     -1.411102
      25A     -1.395360    26A     -1.393516    27A     -1.384265
      28A     -1.373004    29A     -1.364269    30A     -1.354134
      31A     -1.304675    32A     -1.119507    33A     -1.037627
      34A     -1.012513    35A     -1.003829    36A     -0.879990
      37A     -0.862658    38A     -0.859459    39A     -0.823376
      40A     -0.811118    41A     -0.752100    42A     -0.745429
      43A     -0.731507    44A     -0.727409    45A     -0.708261
      46A     -0.687245    47A     -0.678405    48A     -0.673784
      49A     -0.662907    50A     -0.661503    51A     -0.643588
      52A     -0.635482    53A     -0.626744    54A     -0.614328
      55A     -0.604252    56A     -0.598841    57A     -0.582035
      58A     -0.574457    59A     -0.570496    60A     -0.559943
      61A     -0.557043    62A     -0.547691    63A     -0.537913
      64A     -0.536261    65A     -0.531391    66A     -0.520879
      67A     -0.513107    68A     -0.504758    69A     -0.497788
      70A     -0.485012    71A     -0.479790    72A     -0.476803
      73A     -0.462834    74A     -0.456141    75A     -0.450630
      76A     -0.436636

  @DF-RHF Final Energy: -1327.85825244544640

   => Energetics <=

    Nuclear Repulsion Energy =           1771.6911315820880191
    One-Electron Energy =               -5355.4903214864716574
    Two-Electron Energy =                2255.9409374589372419
    Total Energy =                      -1327.8582524454463965
  Basis Set: (AUG-CC-PVTZ AUX)
    Blend: AUG-CC-PVTZ-RI
    Molecular point group: c1

    Geometry (in Angstrom), charge = 0, multiplicity = 1:

       Center              X                  Y                   Z               Mass
    ------------   -----------------  -----------------  -----------------  -----------------
         P           -2.289920488677    -0.939341622324     0.346554381950    30.973761998420
         O           -0.981977488677    -0.200860622324     0.940165381950    15.994914619570
         O            1.342425511323    -1.674781622324     1.232727381950    15.994914619570
         O            0.078880511323     2.360305377676     0.464044381950    15.994914619570
         O            3.068690511323    -2.186370622324    -0.806713618050    15.994914619570
         O            2.847510511323     2.503814377676     0.373411381950    15.994914619570
         O            4.195863511323     0.436098377676    -0.970997618050    15.994914619570
         O           -2.832485988677     0.038629577676    -0.830125618050    15.994914619570
         O           -3.258945488677    -0.722580622324     1.623547381950    15.994914619570
         O           -2.118817488677    -2.342942622324    -0.097791618050    15.994914619570
         C            0.118337511323     0.030710377676     0.018195381950    12.000000000000
         C            0.953467511323    -1.243503622324    -0.073848618050    12.000000000000
         C            0.898764511323     1.203345377676     0.566727381950    12.000000000000
         C            2.259835511323    -1.013605622324    -0.816160618050    12.000000000000
         C            2.177250511323     1.397173377676    -0.226164618050    12.000000000000
         C            3.026017511323     0.149406377676    -0.208445618050    12.000000000000
         C           -3.124037488677     1.432299377676    -0.487009618050    12.000000000000
         C           -3.532624988677     2.062929177676    -1.794667918050    12.000000000000
         H           -0.282916488677     0.299502377676    -0.968361618050     1.007825032230
         H            0.370444511323    -2.028662622324    -0.570155618050     1.007825032230
         H            1.157295511323     0.998578377676     1.614032381950     1.007825032230
         H            2.061109511323    -0.787958622324    -1.870879618050     1.007825032230
         H            1.917162511323     1.636988377676    -1.271706618050     1.007825032230
         H            3.296030511323    -0.093830622324     0.829522381950     1.007825032230
         H            0.521950511323    -1.887330622324     1.713386381950     1.007825032230
         H            0.665715511323     3.110012377676     0.685060381950     1.007825032230
         H            2.973718511323    -2.546672622324     0.096530381950     1.007825032230
         H            3.721604511323     2.549887377676    -0.056992618050     1.007825032230
         H            4.639902511323    -0.423132622324    -1.095210618050     1.007825032230
         H           -3.808219488677    -1.521636622324     1.736604381950     1.007825032230
         H           -3.930370488677     1.446242377676     0.251262381950     1.007825032230
         H           -2.229586488677     1.893581377676    -0.057219618050     1.007825032230
         H           -3.800345488677     3.131583377676    -1.600794618050     1.007825032230
         H           -2.717020488677     2.054024377676    -2.502998618050     1.007825032230
         H           -4.400768488677     1.575024377676    -2.210847618050     1.007825032230

  Basis Set: AUG-CC-PVTZ
    Blend: AUG-CC-PVTZ
  Basis Set: (AUG-CC-PVTZ AUX)
    Blend: AUG-CC-PVTZ-JKFIT
	 Reference Energy          =   -1327.8582524454463965 [Eh]
	 Singles Energy            =      -0.0000000000000000 [Eh]
	 Same-Spin Energy          =      -1.0150119483103333 [Eh]
	 Opposite-Spin Energy      =      -3.0771479079304949 [Eh]
	 Correlation Energy        =      -4.0921598562408281 [Eh]
	 Total Energy              =   -1331.9504123016872654 [Eh]

	 ================> DF-SCS-MP2 Energies <==================
	-----------------------------------------------------------
	 SCS Same-Spin Scale       =       0.3333333333333333 [-]
	 SCS Opposite-Spin Scale   =       1.2000000000000000 [-]
	 SCS Same-Spin Energy      =      -0.3383373161034444 [Eh]
	 SCS Opposite-Spin Energy  =      -3.6925774895165935 [Eh]
	 SCS Correlation Energy    =      -4.0309148056200375 [Eh]
	 SCS Total Energy          =   -1331.8891672510665103 [Eh]
	-----------------------------------------------------------

  Dipole Moment: [D]
     X:    -1.0507      Y:     1.7796      Z:     0.8087     Total:     2.2192

*** Psi4 exiting successfully. Buy a developer a beer!
