                               Psi4 1.3.2 release

  ==> Input File <==

--------------------------------------------------------------------------
#psi4
#
memory 32 gb

molecule  {
0 1
  P       -2.2900960    -0.9400430     0.3446780
  O       -0.9821530    -0.2015620     0.9382890
  O        1.3422500    -1.6754830     1.2308510
  O        0.0787050     2.3596040     0.4621680
  O        3.0685150    -2.1870720    -0.8085900
  O        2.8473350     2.5031130     0.3715350
  O        4.1956880     0.4353970    -0.9728740
  O       -2.8268630     0.0333510    -0.8075310
  O       -3.2591210    -0.7232820     1.6216710
  O       -2.1189930    -2.3436440    -0.0996680
  C        0.1181620     0.0300090     0.0163190
  C        0.9532920    -1.2442050    -0.0757250
  C        0.8784459     1.2772682     0.5466373
  C        2.2596600    -1.0143070    -0.8180370
  C        2.1770750     1.3964720    -0.2280410
  C        3.0788396     0.1866226    -0.2550027
  C       -3.1242130     1.4315980    -0.4888860
  C       -3.5363170     2.0851650    -1.7841190
  H       -0.2830920     0.2988010    -0.9702380
  H        0.3702690    -2.0293640    -0.5720320
  H        1.1571200     0.9978770     1.6121560
  H        2.0609340    -0.7886600    -1.8727560
  H        1.9169870     1.6362870    -1.2735830
  H        3.2958550    -0.0945320     0.8276460
  H        0.5217750    -1.8880320     1.7115100
  H        0.6655400     3.1093110     0.6831840
  H        2.9735430    -2.5473740     0.0946540
  H        3.7214290     2.5491860    -0.0588690
  H        4.6397270    -0.4238340    -1.0970870
  H       -3.8083950    -1.5223380     1.7347280
  H       -3.9305460     1.4455410     0.2493860
  H       -2.2297620     1.8928800    -0.0590960
  H       -3.8005210     3.1308820    -1.6026710
  H       -2.7171960     2.0533230    -2.5048750
  H       -4.4009440     1.5743230    -2.2127240
units angstrom
no_reorient  #important for SAPT in psi4, default
symmetry c1  #important for SAPT in psi4, default
}

set PROPERTIES_ORIGIN ["COM"]
properties('MP2/aug-cc-pvtz', properties = ['dipole'])
--------------------------------------------------------------------------

    Molecular point group: c1
  Charge       = 0
  Multiplicity = 1
  Basis Set: AUG-CC-PVTZ
    Blend: AUG-CC-PVTZ
  Basis Set: (AUG-CC-PVTZ AUX)
    Blend: AUG-CC-PVTZ-JKFIT

    Orbital Energies [Eh]
    ---------------------

    Doubly Occupied:

       1A    -80.115648     2A    -20.613793     3A    -20.604828
       4A    -20.598299     5A    -20.582649     6A    -20.581811
       7A    -20.579646     8A    -20.574259     9A    -20.572531
      10A    -20.522204    11A    -11.318061    12A    -11.301945
      13A    -11.300925    14A    -11.299947    15A    -11.296573
      16A    -11.293549    17A    -11.292724    18A    -11.230228
      19A     -7.631103    20A     -5.529607    21A     -5.529233
      22A     -5.528037    23A     -1.458967    24A     -1.423585
      25A     -1.413189    26A     -1.399439    27A     -1.386833
      28A     -1.380939    29A     -1.369125    30A     -1.358569
      31A     -1.302613    32A     -1.107030    33A     -1.040635
      34A     -1.005381    35A     -0.995839    36A     -0.879653
      37A     -0.865192    38A     -0.858786    39A     -0.821830
      40A     -0.804197    41A     -0.760620    42A     -0.745726
      43A     -0.733014    44A     -0.727592    45A     -0.705306
      46A     -0.695459    47A     -0.681480    48A     -0.675007
      49A     -0.669185    50A     -0.660080    51A     -0.645074
      52A     -0.641109    53A     -0.627771    54A     -0.617597
      55A     -0.606066    56A     -0.602111    57A     -0.587825
      58A     -0.575075    59A     -0.570672    60A     -0.561234
      61A     -0.560087    62A     -0.548572    63A     -0.540956
      64A     -0.538717    65A     -0.530181    66A     -0.517192
      67A     -0.512867    68A     -0.501339    69A     -0.494076
      70A     -0.479856    71A     -0.478675    72A     -0.475346
      73A     -0.457606    74A     -0.448392    75A     -0.441091
      76A     -0.422043

  @DF-RHF Final Energy: -1327.85043186485063

   => Energetics <=

    Nuclear Repulsion Energy =           1771.5096792174283564
    One-Electron Energy =               -5355.1114210693422137
    Two-Electron Energy =                2255.7513099870634505
    Total Energy =                      -1327.8504318648506342
  Basis Set: (AUG-CC-PVTZ AUX)
    Blend: AUG-CC-PVTZ-RI
    Molecular point group: c1

    Geometry (in Angstrom), charge = 0, multiplicity = 1:

       Center              X                  Y                   Z               Mass
    ------------   -----------------  -----------------  -----------------  -----------------
         P           -2.291464614688    -0.944731230684     0.347298035656    30.973761998420
         O           -0.983521614688    -0.206250230684     0.940909035656    15.994914619570
         O            1.340881385312    -1.680171230684     1.233471035656    15.994914619570
         O            0.077336385312     2.354915769316     0.464788035656    15.994914619570
         O            3.067146385312    -2.191760230684    -0.805969964344    15.994914619570
         O            2.845966385312     2.498424769316     0.374155035656    15.994914619570
         O            4.194319385312     0.430708769316    -0.970253964344    15.994914619570
         O           -2.828231614688     0.028662769316    -0.804910964344    15.994914619570
         O           -3.260489614688    -0.727970230684     1.624291035656    15.994914619570
         O           -2.120361614688    -2.348332230684    -0.097047964344    15.994914619570
         C            0.116793385312     0.025320769316     0.018939035656    12.000000000000
         C            0.951923385312    -1.248893230684    -0.073104964344    12.000000000000
         C            0.877077285312     1.272579969316     0.549257335656    12.000000000000
         C            2.258291385312    -1.018995230684    -0.815416964344    12.000000000000
         C            2.175706385312     1.391783769316    -0.225420964344    12.000000000000
         C            3.077470985312     0.181934369316    -0.252382664344    12.000000000000
         C           -3.125581614688     1.426909769316    -0.486265964344    12.000000000000
         C           -3.537685614688     2.080476769316    -1.781498964344    12.000000000000
         H           -0.284460614688     0.294112769316    -0.967617964344     1.007825032230
         H            0.368900385312    -2.034052230684    -0.569411964344     1.007825032230
         H            1.155751385312     0.993188769316     1.614776035656     1.007825032230
         H            2.059565385312    -0.793348230684    -1.870135964344     1.007825032230
         H            1.915618385312     1.631598769316    -1.270962964344     1.007825032230
         H            3.294486385312    -0.099220230684     0.830266035656     1.007825032230
         H            0.520406385312    -1.892720230684     1.714130035656     1.007825032230
         H            0.664171385312     3.104622769316     0.685804035656     1.007825032230
         H            2.972174385312    -2.552062230684     0.097274035656     1.007825032230
         H            3.720060385312     2.544497769316    -0.056248964344     1.007825032230
         H            4.638358385312    -0.428522230684    -1.094466964344     1.007825032230
         H           -3.809763614688    -1.527026230684     1.737348035656     1.007825032230
         H           -3.931914614688     1.440852769316     0.252006035656     1.007825032230
         H           -2.231130614688     1.888191769316    -0.056475964344     1.007825032230
         H           -3.801889614688     3.126193769316    -1.600050964344     1.007825032230
         H           -2.718564614688     2.048634769316    -2.502254964344     1.007825032230
         H           -4.402312614688     1.569634769316    -2.210103964344     1.007825032230

  Basis Set: AUG-CC-PVTZ
    Blend: AUG-CC-PVTZ
  Basis Set: (AUG-CC-PVTZ AUX)
    Blend: AUG-CC-PVTZ-JKFIT
	 Reference Energy          =   -1327.8504318648506342 [Eh]
	 Singles Energy            =      -0.0000000000000000 [Eh]
	 Same-Spin Energy          =      -1.0145032470384323 [Eh]
	 Opposite-Spin Energy      =      -3.0744261308782401 [Eh]
	 Correlation Energy        =      -4.0889293779166724 [Eh]
	 Total Energy              =   -1331.9393612427672906 [Eh]

	 ================> DF-SCS-MP2 Energies <==================
	-----------------------------------------------------------
	 SCS Same-Spin Scale       =       0.3333333333333333 [-]
	 SCS Opposite-Spin Scale   =       1.2000000000000000 [-]
	 SCS Same-Spin Energy      =      -0.3381677490128108 [Eh]
	 SCS Opposite-Spin Energy  =      -3.6893113570538878 [Eh]
	 SCS Correlation Energy    =      -4.0274791060666981 [Eh]
	 SCS Total Energy          =   -1331.8779109709173554 [Eh]
	-----------------------------------------------------------

  Dipole Moment: [D]
     X:    -1.0144      Y:     2.1516      Z:     0.5561     Total:     2.4429

*** Psi4 exiting successfully. Buy a developer a beer!
