                               Psi4 1.3.2 release

  ==> Input File <==

--------------------------------------------------------------------------
#psi4
#
memory 32 gb

molecule  {
0 1
  P       -2.2900960    -0.9400430     0.3446780
  O       -0.9821530    -0.2015620     0.9382890
  O        1.3422500    -1.6754830     1.2308510
  O        0.0787050     2.3596040     0.4621680
  O        3.0685150    -2.1870720    -0.8085900
  O        2.8473350     2.5031130     0.3715350
  O        4.1956880     0.4353970    -0.9728740
  O       -2.8268630     0.0333510    -0.8075310
  O       -3.2591210    -0.7232820     1.6216710
  O       -2.1189930    -2.3436440    -0.0996680
  C        0.1181620     0.0300090     0.0163190
  C        0.9532920    -1.2442050    -0.0757250
  C        0.9082152     1.2098114     0.5679968
  C        2.2596600    -1.0143070    -0.8180370
  C        2.1770750     1.3964720    -0.2280410
  C        3.0258420     0.1487050    -0.2103220
  C       -3.1242130     1.4315980    -0.4888860
  C       -3.5363170     2.0851650    -1.7841190
  H       -0.2830920     0.2988010    -0.9702380
  H        0.3702690    -2.0293640    -0.5720320
  H        1.1571200     0.9978770     1.6121560
  H        2.0609340    -0.7886600    -1.8727560
  H        1.9169870     1.6362870    -1.2735830
  H        3.2958550    -0.0945320     0.8276460
  H        0.5217750    -1.8880320     1.7115100
  H        0.6720019     3.1038646     0.6843366
  H        2.9735430    -2.5473740     0.0946540
  H        3.7214290     2.5491860    -0.0588690
  H        4.6397270    -0.4238340    -1.0970870
  H       -3.8083950    -1.5223380     1.7347280
  H       -3.9305460     1.4455410     0.2493860
  H       -2.2297620     1.8928800    -0.0590960
  H       -3.8005210     3.1308820    -1.6026710
  H       -2.7171960     2.0533230    -2.5048750
  H       -4.4009440     1.5743230    -2.2127240
units angstrom
no_reorient  #important for SAPT in psi4, default
symmetry c1  #important for SAPT in psi4, default
}

set PROPERTIES_ORIGIN ["COM"]
properties('MP2/aug-cc-pvtz', properties = ['dipole'])
--------------------------------------------------------------------------

    Molecular point group: c1
  Charge       = 0
  Multiplicity = 1
  Basis Set: AUG-CC-PVTZ
    Blend: AUG-CC-PVTZ
  Basis Set: (AUG-CC-PVTZ AUX)
    Blend: AUG-CC-PVTZ-JKFIT

    Orbital Energies [Eh]
    ---------------------

    Doubly Occupied:

       1A    -80.116889     2A    -20.614686     3A    -20.606967
       4A    -20.598878     5A    -20.583025     6A    -20.576931
       7A    -20.574622     8A    -20.574339     9A    -20.573980
      10A    -20.523358    11A    -11.320866    12A    -11.303200
      13A    -11.299367    14A    -11.299361    15A    -11.298516
      16A    -11.296577    17A    -11.291737    18A    -11.229835
      19A     -7.632335    20A     -5.530841    21A     -5.530469
      22A     -5.529266    23A     -1.460130    24A     -1.410857
      25A     -1.394937    26A     -1.393189    27A     -1.386808
      28A     -1.372961    29A     -1.364176    30A     -1.354057
      31A     -1.303746    32A     -1.118571    33A     -1.040419
      34A     -1.011259    35A     -1.003732    36A     -0.880564
      37A     -0.864975    38A     -0.858801    39A     -0.822269
      40A     -0.810822    41A     -0.751699    42A     -0.745359
      43A     -0.731359    44A     -0.728334    45A     -0.707738
      46A     -0.687113    47A     -0.678056    48A     -0.673718
      49A     -0.662701    50A     -0.660978    51A     -0.643262
      52A     -0.634883    53A     -0.627294    54A     -0.615375
      55A     -0.604042    56A     -0.598527    57A     -0.581248
      58A     -0.575542    59A     -0.571155    60A     -0.559736
      61A     -0.556590    62A     -0.548504    63A     -0.541158
      64A     -0.536549    65A     -0.529900    66A     -0.521404
      67A     -0.513221    68A     -0.504400    69A     -0.496839
      70A     -0.484751    71A     -0.479742    72A     -0.476537
      73A     -0.463405    74A     -0.456317    75A     -0.450169
      76A     -0.436180

  @DF-RHF Final Energy: -1327.86114953707988

   => Energetics <=

    Nuclear Repulsion Energy =           1772.3219297247235318
    One-Electron Energy =               -5356.7819511647430772
    Two-Electron Energy =                2256.5988719029396634
    Total Energy =                      -1327.8611495370801094
  Basis Set: (AUG-CC-PVTZ AUX)
    Blend: AUG-CC-PVTZ-RI
    Molecular point group: c1

    Geometry (in Angstrom), charge = 0, multiplicity = 1:

       Center              X                  Y                   Z               Mass
    ------------   -----------------  -----------------  -----------------  -----------------
         P           -2.290519581805    -0.940322505678     0.344542910990    30.973761998420
         O           -0.982576581805    -0.201841505678     0.938153910990    15.994914619570
         O            1.341826418195    -1.675762505678     1.230715910990    15.994914619570
         O            0.078281418195     2.359324494322     0.462032910990    15.994914619570
         O            3.068091418195    -2.187351505678    -0.808725089010    15.994914619570
         O            2.846911418195     2.502833494322     0.371399910990    15.994914619570
         O            4.195264418195     0.435117494322    -0.973009089010    15.994914619570
         O           -2.827286581805     0.033071494322    -0.807666089010    15.994914619570
         O           -3.259544581805    -0.723561505678     1.621535910990    15.994914619570
         O           -2.119416581805    -2.343923505678    -0.099803089010    15.994914619570
         C            0.117738418195     0.029729494322     0.016183910990    12.000000000000
         C            0.952868418195    -1.244484505678    -0.075860089010    12.000000000000
         C            0.907791618195     1.209531894322     0.567861710990    12.000000000000
         C            2.259236418195    -1.014586505678    -0.818172089010    12.000000000000
         C            2.176651418195     1.396192494322    -0.228176089010    12.000000000000
         C            3.025418418195     0.148425494322    -0.210457089010    12.000000000000
         C           -3.124636581805     1.431318494322    -0.489021089010    12.000000000000
         C           -3.536740581805     2.084885494322    -1.784254089010    12.000000000000
         H           -0.283515581805     0.298521494322    -0.970373089010     1.007825032230
         H            0.369845418195    -2.029643505678    -0.572167089010     1.007825032230
         H            1.156696418195     0.997597494322     1.612020910990     1.007825032230
         H            2.060510418195    -0.788939505678    -1.872891089010     1.007825032230
         H            1.916563418195     1.636007494322    -1.273718089010     1.007825032230
         H            3.295431418195    -0.094811505678     0.827510910990     1.007825032230
         H            0.521351418195    -1.888311505678     1.711374910990     1.007825032230
         H            0.671578318195     3.103585094322     0.684201510990     1.007825032230
         H            2.973119418195    -2.547653505678     0.094518910990     1.007825032230
         H            3.721005418195     2.548906494322    -0.059004089010     1.007825032230
         H            4.639303418195    -0.424113505678    -1.097222089010     1.007825032230
         H           -3.808818581805    -1.522617505678     1.734592910990     1.007825032230
         H           -3.930969581805     1.445261494322     0.249250910990     1.007825032230
         H           -2.230185581805     1.892600494322    -0.059231089010     1.007825032230
         H           -3.800944581805     3.130602494322    -1.602806089010     1.007825032230
         H           -2.717619581805     2.053043494322    -2.505010089010     1.007825032230
         H           -4.401367581805     1.574043494322    -2.212859089010     1.007825032230

  Basis Set: AUG-CC-PVTZ
    Blend: AUG-CC-PVTZ
  Basis Set: (AUG-CC-PVTZ AUX)
    Blend: AUG-CC-PVTZ-JKFIT
	 Reference Energy          =   -1327.8611495370798821 [Eh]
	 Singles Energy            =      -0.0000000000000000 [Eh]
	 Same-Spin Energy          =      -1.0146224977728024 [Eh]
	 Opposite-Spin Energy      =      -3.0761761218989698 [Eh]
	 Correlation Energy        =      -4.0907986196717721 [Eh]
	 Total Energy              =   -1331.9519481567515413 [Eh]

	 ================> DF-SCS-MP2 Energies <==================
	-----------------------------------------------------------
	 SCS Same-Spin Scale       =       0.3333333333333333 [-]
	 SCS Opposite-Spin Scale   =       1.2000000000000000 [-]
	 SCS Same-Spin Energy      =      -0.3382074992576008 [Eh]
	 SCS Opposite-Spin Energy  =      -3.6914113462787634 [Eh]
	 SCS Correlation Energy    =      -4.0296188455363646 [Eh]
	 SCS Total Energy          =   -1331.8907683826162156 [Eh]
	-----------------------------------------------------------

  Dipole Moment: [D]
     X:    -1.0986      Y:     1.8628      Z:     0.7224     Total:     2.2801

*** Psi4 exiting successfully. Buy a developer a beer!
