                               Psi4 1.3.2 release

  ==> Input File <==

--------------------------------------------------------------------------
#psi4
#
memory 32 gb

molecule  {
0 1
  P       -2.2900960    -0.9400430     0.3446780
  O       -0.9821530    -0.2015620     0.9382890
  O        1.3422500    -1.6754830     1.2308510
  O        0.0787050     2.3596040     0.4621680
  O        3.0685150    -2.1870720    -0.8085900
  O        2.8473350     2.5031130     0.3715350
  O        4.1814192     0.4393661    -0.9928660
  O       -2.8268630     0.0333510    -0.8075310
  O       -3.2591210    -0.7232820     1.6216710
  O       -2.1189930    -2.3436440    -0.0996680
  C        0.1181620     0.0300090     0.0163190
  C        0.9532920    -1.2442050    -0.0757250
  C        0.8985890     1.2026440     0.5648510
  C        2.2596600    -1.0143070    -0.8180370
  C        2.1770750     1.3964720    -0.2280410
  C        3.0258420     0.1487050    -0.2103220
  C       -3.1242130     1.4315980    -0.4888860
  C       -3.5363170     2.0851650    -1.7841190
  H       -0.2830920     0.2988010    -0.9702380
  H        0.3702690    -2.0293640    -0.5720320
  H        1.1571200     0.9978770     1.6121560
  H        2.0609340    -0.7886600    -1.8727560
  H        1.9169870     1.6362870    -1.2735830
  H        3.2772658    -0.0970369     0.8317173
  H        0.5217750    -1.8880320     1.7115100
  H        0.6655400     3.1093110     0.6831840
  H        2.9735430    -2.5473740     0.0946540
  H        3.7214290     2.5491860    -0.0588690
  H        4.6397270    -0.4238340    -1.0970870
  H       -3.8083950    -1.5223380     1.7347280
  H       -3.9305460     1.4455410     0.2493860
  H       -2.2297620     1.8928800    -0.0590960
  H       -3.8005210     3.1308820    -1.6026710
  H       -2.7171960     2.0533230    -2.5048750
  H       -4.4009440     1.5743230    -2.2127240
units angstrom
no_reorient  #important for SAPT in psi4, default
symmetry c1  #important for SAPT in psi4, default
}

set PROPERTIES_ORIGIN ["COM"]
properties('MP2/aug-cc-pvtz', properties = ['dipole'])
--------------------------------------------------------------------------

    Molecular point group: c1
  Charge       = 0
  Multiplicity = 1
  Basis Set: AUG-CC-PVTZ
    Blend: AUG-CC-PVTZ
  Basis Set: (AUG-CC-PVTZ AUX)
    Blend: AUG-CC-PVTZ-JKFIT

    Orbital Energies [Eh]
    ---------------------

    Doubly Occupied:

       1A    -80.116858     2A    -20.614666     3A    -20.606923
       4A    -20.598852     5A    -20.583158     6A    -20.576765
       7A    -20.575777     8A    -20.574560     9A    -20.573315
      10A    -20.523349    11A    -11.320601    12A    -11.303246
      13A    -11.299303    14A    -11.298770    15A    -11.298407
      16A    -11.296275    17A    -11.291492    18A    -11.229785
      19A     -7.632308    20A     -5.530814    21A     -5.530441
      22A     -5.529239    23A     -1.460199    24A     -1.410760
      25A     -1.394547    26A     -1.392918    27A     -1.386769
      28A     -1.372444    29A     -1.363884    30A     -1.353465
      31A     -1.303746    32A     -1.118854    33A     -1.040377
      34A     -1.011786    35A     -1.003245    36A     -0.880026
      37A     -0.864780    38A     -0.858806    39A     -0.822090
      40A     -0.810606    41A     -0.751772    42A     -0.745283
      43A     -0.730881    44A     -0.728518    45A     -0.707548
      46A     -0.686955    47A     -0.678003    48A     -0.673335
      49A     -0.662883    50A     -0.661026    51A     -0.642955
      52A     -0.633891    53A     -0.627145    54A     -0.615194
      55A     -0.603458    56A     -0.598241    57A     -0.581533
      58A     -0.575478    59A     -0.571117    60A     -0.559303
      61A     -0.556982    62A     -0.548432    63A     -0.541089
      64A     -0.536302    65A     -0.529752    66A     -0.521416
      67A     -0.513001    68A     -0.505054    69A     -0.496982
      70A     -0.484783    71A     -0.479759    72A     -0.476559
      73A     -0.462264    74A     -0.456280    75A     -0.449935
      76A     -0.435736

  @DF-RHF Final Energy: -1327.86048878797078

   => Energetics <=

    Nuclear Repulsion Energy =           1772.6374980303007760
    One-Electron Energy =               -5357.4298712128675106
    Two-Electron Energy =                2256.9318843945957269
    Total Energy =                      -1327.8604887879710077
  Basis Set: (AUG-CC-PVTZ AUX)
    Blend: AUG-CC-PVTZ-RI
    Molecular point group: c1

    Geometry (in Angstrom), charge = 0, multiplicity = 1:

       Center              X                  Y                   Z               Mass
    ------------   -----------------  -----------------  -----------------  -----------------
         P           -2.289238638744    -0.940254607331     0.345773825173    30.973761998420
         O           -0.981295638744    -0.201773607331     0.939384825173    15.994914619570
         O            1.343107361256    -1.675694607331     1.231946825173    15.994914619570
         O            0.079562361256     2.359392392669     0.463263825173    15.994914619570
         O            3.069372361256    -2.187283607331    -0.807494174827    15.994914619570
         O            2.848192361256     2.502901392669     0.372630825173    15.994914619570
         O            4.182276561256     0.439154492669    -0.991770174827    15.994914619570
         O           -2.826005638744     0.033139392669    -0.806435174827    15.994914619570
         O           -3.258263638744    -0.723493607331     1.622766825173    15.994914619570
         O           -2.118135638744    -2.343855607331    -0.098572174827    15.994914619570
         C            0.119019361256     0.029797392669     0.017414825173    12.000000000000
         C            0.954149361256    -1.244416607331    -0.074629174827    12.000000000000
         C            0.899446361256     1.202432392669     0.565946825173    12.000000000000
         C            2.260517361256    -1.014518607331    -0.816941174827    12.000000000000
         C            2.177932361256     1.396260392669    -0.226945174827    12.000000000000
         C            3.026699361256     0.148493392669    -0.209226174827    12.000000000000
         C           -3.123355638744     1.431386392669    -0.487790174827    12.000000000000
         C           -3.535459638744     2.084953392669    -1.783023174827    12.000000000000
         H           -0.282234638744     0.298589392669    -0.969142174827     1.007825032230
         H            0.371126361256    -2.029575607331    -0.570936174827     1.007825032230
         H            1.157977361256     0.997665392669     1.613251825173     1.007825032230
         H            2.061791361256    -0.788871607331    -1.871660174827     1.007825032230
         H            1.917844361256     1.636075392669    -1.272487174827     1.007825032230
         H            3.278123161256    -0.097248507331     0.832813125173     1.007825032230
         H            0.522632361256    -1.888243607331     1.712605825173     1.007825032230
         H            0.666397361256     3.109099392669     0.684279825173     1.007825032230
         H            2.974400361256    -2.547585607331     0.095749825173     1.007825032230
         H            3.722286361256     2.548974392669    -0.057773174827     1.007825032230
         H            4.640584361256    -0.424045607331    -1.095991174827     1.007825032230
         H           -3.807537638744    -1.522549607331     1.735823825173     1.007825032230
         H           -3.929688638744     1.445329392669     0.250481825173     1.007825032230
         H           -2.228904638744     1.892668392669    -0.058000174827     1.007825032230
         H           -3.799663638744     3.130670392669    -1.601575174827     1.007825032230
         H           -2.716338638744     2.053111392669    -2.503779174827     1.007825032230
         H           -4.400086638744     1.574111392669    -2.211628174827     1.007825032230

  Basis Set: AUG-CC-PVTZ
    Blend: AUG-CC-PVTZ
  Basis Set: (AUG-CC-PVTZ AUX)
    Blend: AUG-CC-PVTZ-JKFIT
	 Reference Energy          =   -1327.8604887879707803 [Eh]
	 Singles Energy            =      -0.0000000000000000 [Eh]
	 Same-Spin Energy          =      -1.0148027592745961 [Eh]
	 Opposite-Spin Energy      =      -3.0764987526314540 [Eh]
	 Correlation Energy        =      -4.0913015119060496 [Eh]
	 Total Energy              =   -1331.9517902998768477 [Eh]

	 ================> DF-SCS-MP2 Energies <==================
	-----------------------------------------------------------
	 SCS Same-Spin Scale       =       0.3333333333333333 [-]
	 SCS Opposite-Spin Scale   =       1.2000000000000000 [-]
	 SCS Same-Spin Energy      =      -0.3382675864248653 [Eh]
	 SCS Opposite-Spin Energy  =      -3.6917985031577447 [Eh]
	 SCS Correlation Energy    =      -4.0300660895826104 [Eh]
	 SCS Total Energy          =   -1331.8905548775533134 [Eh]
	-----------------------------------------------------------

  Dipole Moment: [D]
     X:    -1.0719      Y:     1.8605      Z:     0.7542     Total:     2.2758

*** Psi4 exiting successfully. Buy a developer a beer!
