                               Psi4 1.3.2 release

  ==> Input File <==

--------------------------------------------------------------------------
#psi4
#
memory 32 gb

molecule  {
0 1
  P       -2.2900960    -0.9400430     0.3446780
  O       -0.9821530    -0.2015620     0.9382890
  O        1.3422500    -1.6754830     1.2308510
  O        0.0787050     2.3596040     0.4621680
  O        3.0685150    -2.1870720    -0.8085900
  O        2.8473350     2.5031130     0.3715350
  O        4.1687357     0.5039663    -0.9847901
  O       -2.8268630     0.0333510    -0.8075310
  O       -3.2591210    -0.7232820     1.6216710
  O       -2.1189930    -2.3436440    -0.0996680
  C        0.1181620     0.0300090     0.0163190
  C        0.9532920    -1.2442050    -0.0757250
  C        0.8985890     1.2026440     0.5648510
  C        2.2596600    -1.0143070    -0.8180370
  C        2.2325350     1.4310655    -0.2724294
  C        3.0258420     0.1487050    -0.2103220
  C       -3.1242130     1.4315980    -0.4888860
  C       -3.5363170     2.0851650    -1.7841190
  H       -0.2830920     0.2988010    -0.9702380
  H        0.3702690    -2.0293640    -0.5720320
  H        1.1571200     0.9978770     1.6121560
  H        2.0609340    -0.7886600    -1.8727560
  H        1.9169870     1.6362870    -1.2735830
  H        3.2958550    -0.0945320     0.8276460
  H        0.5217750    -1.8880320     1.7115100
  H        0.6655400     3.1093110     0.6831840
  H        2.9735430    -2.5473740     0.0946540
  H        3.7214290     2.5491860    -0.0588690
  H        4.6397270    -0.4238340    -1.0970870
  H       -3.8083950    -1.5223380     1.7347280
  H       -3.9305460     1.4455410     0.2493860
  H       -2.2297620     1.8928800    -0.0590960
  H       -3.8005210     3.1308820    -1.6026710
  H       -2.7171960     2.0533230    -2.5048750
  H       -4.4009440     1.5743230    -2.2127240
units angstrom
no_reorient  #important for SAPT in psi4, default
symmetry c1  #important for SAPT in psi4, default
}

set PROPERTIES_ORIGIN ["COM"]
properties('MP2/aug-cc-pvtz', properties = ['dipole'])
--------------------------------------------------------------------------

    Molecular point group: c1
  Charge       = 0
  Multiplicity = 1
  Basis Set: AUG-CC-PVTZ
    Blend: AUG-CC-PVTZ
  Basis Set: (AUG-CC-PVTZ AUX)
    Blend: AUG-CC-PVTZ-JKFIT

    Orbital Energies [Eh]
    ---------------------

    Doubly Occupied:

       1A    -80.115967     2A    -20.613930     3A    -20.605516
       4A    -20.598052     5A    -20.582623     6A    -20.580645
       7A    -20.580636     8A    -20.576227     9A    -20.570332
      10A    -20.522652    11A    -11.318319    12A    -11.303036
      13A    -11.300170    14A    -11.298544    15A    -11.296294
      16A    -11.293233    17A    -11.289406    18A    -11.229264
      19A     -7.631422    20A     -5.529928    21A     -5.529551
      22A     -5.528356    23A     -1.459156    24A     -1.411482
      25A     -1.400020    26A     -1.391659    27A     -1.385860
      28A     -1.368732    29A     -1.365377    30A     -1.351674
      31A     -1.303043    32A     -1.110817    33A     -1.039685
      34A     -1.008215    35A     -0.995464    36A     -0.876341
      37A     -0.864017    38A     -0.856930    39A     -0.821412
      40A     -0.810406    41A     -0.752090    42A     -0.744287
      43A     -0.729128    44A     -0.727659    45A     -0.707515
      46A     -0.686161    47A     -0.677953    48A     -0.672159
      49A     -0.660187    50A     -0.654567    51A     -0.643414
      52A     -0.629557    53A     -0.625892    54A     -0.615902
      55A     -0.603320    56A     -0.598649    57A     -0.581647
      58A     -0.574813    59A     -0.570919    60A     -0.564472
      61A     -0.556626    62A     -0.547356    63A     -0.540960
      64A     -0.539260    65A     -0.529026    66A     -0.519640
      67A     -0.512065    68A     -0.504463    69A     -0.494533
      70A     -0.482518    71A     -0.478639    72A     -0.475881
      73A     -0.461379    74A     -0.453066    75A     -0.438603
      76A     -0.436639

  @DF-RHF Final Energy: -1327.84428574396065

   => Energetics <=

    Nuclear Repulsion Energy =           1771.3781609957543424
    One-Electron Energy =               -5355.0342178938053621
    Two-Electron Energy =                2255.8117711540908203
    Total Energy =                      -1327.8442857439604268
  Basis Set: (AUG-CC-PVTZ AUX)
    Blend: AUG-CC-PVTZ-RI
    Molecular point group: c1

    Geometry (in Angstrom), charge = 0, multiplicity = 1:

       Center              X                  Y                   Z               Mass
    ------------   -----------------  -----------------  -----------------  -----------------
         P           -2.290909753993    -0.945291460942     0.347188770619    30.973761998420
         O           -0.982966753993    -0.206810460942     0.940799770619    15.994914619570
         O            1.341436246007    -1.680731460942     1.233361770619    15.994914619570
         O            0.077891246007     2.354355539058     0.464678770619    15.994914619570
         O            3.067701246007    -2.192320460942    -0.806079229381    15.994914619570
         O            2.846521246007     2.497864539058     0.374045770619    15.994914619570
         O            4.167921946007     0.498717839058    -0.982279329381    15.994914619570
         O           -2.827676753993     0.028102539058    -0.805020229381    15.994914619570
         O           -3.259934753993    -0.728530460942     1.624181770619    15.994914619570
         O           -2.119806753993    -2.348892460942    -0.097157229381    15.994914619570
         C            0.117348246007     0.024760539058     0.018829770619    12.000000000000
         C            0.952478246007    -1.249453460942    -0.073214229381    12.000000000000
         C            0.897775246007     1.197395539058     0.567361770619    12.000000000000
         C            2.258846246007    -1.019555460942    -0.815526229381    12.000000000000
         C            2.231721246007     1.425817039058    -0.269918629381    12.000000000000
         C            3.025028246007     0.143456539058    -0.207811229381    12.000000000000
         C           -3.125026753993     1.426349539058    -0.486375229381    12.000000000000
         C           -3.537130753993     2.079916539058    -1.781608229381    12.000000000000
         H           -0.283905753993     0.293552539058    -0.967727229381     1.007825032230
         H            0.369455246007    -2.034612460942    -0.569521229381     1.007825032230
         H            1.156306246007     0.992628539058     1.614666770619     1.007825032230
         H            2.060120246007    -0.793908460942    -1.870245229381     1.007825032230
         H            1.916173246007     1.631038539058    -1.271072229381     1.007825032230
         H            3.295041246007    -0.099780460942     0.830156770619     1.007825032230
         H            0.520961246007    -1.893280460942     1.714020770619     1.007825032230
         H            0.664726246007     3.104062539058     0.685694770619     1.007825032230
         H            2.972729246007    -2.552622460942     0.097164770619     1.007825032230
         H            3.720615246007     2.543937539058    -0.056358229381     1.007825032230
         H            4.638913246007    -0.429082460942    -1.094576229381     1.007825032230
         H           -3.809208753993    -1.527586460942     1.737238770619     1.007825032230
         H           -3.931359753993     1.440292539058     0.251896770619     1.007825032230
         H           -2.230575753993     1.887631539058    -0.056585229381     1.007825032230
         H           -3.801334753993     3.125633539058    -1.600160229381     1.007825032230
         H           -2.718009753993     2.048074539058    -2.502364229381     1.007825032230
         H           -4.401757753993     1.569074539058    -2.210213229381     1.007825032230

  Basis Set: AUG-CC-PVTZ
    Blend: AUG-CC-PVTZ
  Basis Set: (AUG-CC-PVTZ AUX)
    Blend: AUG-CC-PVTZ-JKFIT
	 Reference Energy          =   -1327.8442857439606541 [Eh]
	 Singles Energy            =      -0.0000000000000000 [Eh]
	 Same-Spin Energy          =      -1.0158951647564984 [Eh]
	 Opposite-Spin Energy      =      -3.0792711513266173 [Eh]
	 Correlation Energy        =      -4.0951663160831160 [Eh]
	 Total Energy              =   -1331.9394520600437772 [Eh]

	 ================> DF-SCS-MP2 Energies <==================
	-----------------------------------------------------------
	 SCS Same-Spin Scale       =       0.3333333333333333 [-]
	 SCS Opposite-Spin Scale   =       1.2000000000000000 [-]
	 SCS Same-Spin Energy      =      -0.3386317215854995 [Eh]
	 SCS Opposite-Spin Energy  =      -3.6951253815919407 [Eh]
	 SCS Correlation Energy    =      -4.0337571031774404 [Eh]
	 SCS Total Energy          =   -1331.8780428471382038 [Eh]
	-----------------------------------------------------------

  Dipole Moment: [D]
     X:    -0.9204      Y:     1.8705      Z:     0.7109     Total:     2.2026

*** Psi4 exiting successfully. Buy a developer a beer!
