                               Psi4 1.4a3.dev225

  ==> Input File <==

--------------------------------------------------------------------------
#psi4
#
memory 32 gb

molecule  {
0 1
  P       -2.3219140    -1.0563120    -0.0968450
  O       -1.0285840    -0.5623410     0.7549430
  O        1.3695440    -1.8069540     1.2202350
  O       -0.1592450     2.1412630     0.5207450
  O        3.3269040    -2.0858120    -0.6453880
  O        2.5724350     2.5270130     0.6374560
  O        4.2203020     0.6406430    -0.6358120
  O       -2.8737010     0.2643620    -0.8096810
  O       -3.3065970    -1.3497020     1.1531960
  O       -2.1044560    -2.1814480    -1.0350500
  C        0.1200290    -0.1583450    -0.0432010
  C        1.0698050    -1.3527180    -0.1046720
  C        0.7441670     1.0454510     0.6308160
  C        2.4193320    -0.9866070    -0.7068450
  C        2.0603010     1.3853380    -0.0470020
  C        3.0180900     0.2181970     0.0056710
  C       -3.2473180     1.4231610     0.0025120
  C       -3.2076300     2.6262440    -0.9075720
  H       -0.2047330     0.1313700    -1.0514980
  H        0.5965010    -2.1549610    -0.6866410
  H        0.9406374     0.8019592     1.7052234
  H        2.3054700    -0.7437210    -1.7704410
  H        1.8633300     1.6367370    -1.1028410
  H        3.2142070    -0.0417910     1.0561650
  H        0.5126160    -2.0057500     1.6426110
  H        0.3598300     2.9232990     0.7925780
  H        3.1793900    -2.4823080     0.2360710
  H        3.4672560     2.6739710     0.2770410
  H        4.7639490    -0.1654590    -0.7244900
  H       -3.7873380    -2.1826420     0.9908450
  H       -4.2474700     1.2335250     0.4005830
  H       -2.5352900     1.5309660     0.8217280
  H       -3.5402110     3.5125760    -0.3587690
  H       -2.1856630     2.7912820    -1.2511950
  H       -3.8637180     2.4807570    -1.7684970
units angstrom
no_reorient  #important for SAPT in psi4, default
symmetry c1  #important for SAPT in psi4, default
}

set PROPERTIES_ORIGIN ["COM"]
properties('MP2/aug-cc-pvtz', properties = ['dipole'])
--------------------------------------------------------------------------

    Molecular point group: c1
  Charge       = 0
  Multiplicity = 1
  Basis Set: AUG-CC-PVTZ
    Blend: AUG-CC-PVTZ
  Basis Set: (AUG-CC-PVTZ AUX)
    Blend: AUG-CC-PVTZ-JKFIT

    Orbital Energies [Eh]
    ---------------------

    Doubly Occupied:

       1A    -80.116847     2A    -20.615024     3A    -20.608109
       4A    -20.596066     5A    -20.584001     6A    -20.578527
       7A    -20.575345     8A    -20.575179     9A    -20.575006
      10A    -20.522564    11A    -11.321608    12A    -11.305271
      13A    -11.302863    14A    -11.300322    15A    -11.298609
      16A    -11.296200    17A    -11.293014    18A    -11.222959
      19A     -7.632111    20A     -5.530646    21A     -5.530144
      22A     -5.529082    23A     -1.458521    24A     -1.410915
      25A     -1.395473    26A     -1.392733    27A     -1.385223
      28A     -1.372776    29A     -1.364299    30A     -1.354307
      31A     -1.302749    32A     -1.118637    33A     -1.035568
      34A     -1.011420    35A     -1.003141    36A     -0.877782
      37A     -0.862433    38A     -0.858847    39A     -0.822892
      40A     -0.809188    41A     -0.754311    42A     -0.745895
      43A     -0.728747    44A     -0.726192    45A     -0.705493
      46A     -0.686638    47A     -0.679317    48A     -0.674277
      49A     -0.662327    50A     -0.659444    51A     -0.641602
      52A     -0.637467    53A     -0.623759    54A     -0.613085
      55A     -0.603722    56A     -0.597001    57A     -0.580911
      58A     -0.577682    59A     -0.570248    60A     -0.559919
      61A     -0.555322    62A     -0.548144    63A     -0.538712
      64A     -0.537756    65A     -0.530115    66A     -0.517793
      67A     -0.508501    68A     -0.503438    69A     -0.494598
      70A     -0.487285    71A     -0.478720    72A     -0.475504
      73A     -0.462456    74A     -0.457253    75A     -0.450464
      76A     -0.436744

  @DF-RHF Final Energy: -1327.86028243617875

   => Energetics <=

    Nuclear Repulsion Energy =           1774.4903664167081843
    One-Electron Energy =               -5361.1868118079219130
    Two-Electron Energy =                2258.8361629550349789
    Total Energy =                      -1327.8602824361787498
  Basis Set: (AUG-CC-PVTZ AUX)
    Blend: AUG-CC-PVTZ-RI
    Molecular point group: c1

    Geometry (in Angstrom), charge = 0, multiplicity = 1:

       Center              X                  Y                   Z               Mass
    ------------   -----------------  -----------------  -----------------  -----------------
         P           -2.311164902243    -1.018517715716    -0.099356660148    30.973761998420
         O           -1.017834902243    -0.524546715716     0.752431339852    15.994914619570
         O            1.380293097757    -1.769159715716     1.217723339852    15.994914619570
         O           -0.148495902243     2.179057284284     0.518233339852    15.994914619570
         O            3.337653097757    -2.048017715716    -0.647899660148    15.994914619570
         O            2.583184097757     2.564807284284     0.634944339852    15.994914619570
         O            4.231051097757     0.678437284284    -0.638323660148    15.994914619570
         O           -2.862951902243     0.302156284284    -0.812192660148    15.994914619570
         O           -3.295847902243    -1.311907715716     1.150684339852    15.994914619570
         O           -2.093706902243    -2.143653715716    -1.037561660148    15.994914619570
         C            0.130778097757    -0.120550715716    -0.045712660148    12.000000000000
         C            1.080554097757    -1.314923715716    -0.107183660148    12.000000000000
         C            0.754916097757     1.083245284284     0.628304339852    12.000000000000
         C            2.430081097757    -0.948812715716    -0.709356660148    12.000000000000
         C            2.071050097757     1.423132284284    -0.049513660148    12.000000000000
         C            3.028839097757     0.255991284284     0.003159339852    12.000000000000
         C           -3.236568902243     1.460955284284     0.000000339852    12.000000000000
         C           -3.196880902243     2.664038284284    -0.910083660148    12.000000000000
         H           -0.193983902243     0.169164284284    -1.054009660148     1.007825032230
         H            0.607250097757    -2.117166715716    -0.689152660148     1.007825032230
         H            0.951386497757     0.839753484284     1.702711739852     1.007825032230
         H            2.316219097757    -0.705926715716    -1.772952660148     1.007825032230
         H            1.874079097757     1.674531284284    -1.105352660148     1.007825032230
         H            3.224956097757    -0.003996715716     1.053653339852     1.007825032230
         H            0.523365097757    -1.967955715716     1.640099339852     1.007825032230
         H            0.370579097757     2.961093284284     0.790066339852     1.007825032230
         H            3.190139097757    -2.444513715716     0.233559339852     1.007825032230
         H            3.478005097757     2.711765284284     0.274529339852     1.007825032230
         H            4.774698097757    -0.127664715716    -0.727001660148     1.007825032230
         H           -3.776588902243    -2.144847715716     0.988333339852     1.007825032230
         H           -4.236720902243     1.271319284284     0.398071339852     1.007825032230
         H           -2.524540902243     1.568760284284     0.819216339852     1.007825032230
         H           -3.529461902243     3.550370284284    -0.361280660148     1.007825032230
         H           -2.174913902243     2.829076284284    -1.253706660148     1.007825032230
         H           -3.852968902243     2.518551284284    -1.771008660148     1.007825032230

  Basis Set: AUG-CC-PVTZ
    Blend: AUG-CC-PVTZ
  Basis Set: (AUG-CC-PVTZ AUX)
    Blend: AUG-CC-PVTZ-JKFIT
	 Reference Energy          =   -1327.8602824361787498 [Eh]
	 Singles Energy            =      -0.0000000000000000 [Eh]
	 Same-Spin Energy          =      -1.0147753564673851 [Eh]
	 Opposite-Spin Energy      =      -3.0767793719626821 [Eh]
	 Correlation Energy        =      -4.0915547284300668 [Eh]
	 Total Energy              =   -1331.9518371646088326 [Eh]

	 ================> DF-SCS-MP2 Energies <==================
	-----------------------------------------------------------
	 SCS Same-Spin Scale       =       0.3333333333333333 [-]
	 SCS Opposite-Spin Scale   =       1.2000000000000000 [-]
	 SCS Same-Spin Energy      =      -0.3382584521557950 [Eh]
	 SCS Opposite-Spin Energy  =      -3.6921352463552184 [Eh]
	 SCS Correlation Energy    =      -4.0303936985110136 [Eh]
	 SCS Total Energy          =   -1331.8906761346897838 [Eh]
	-----------------------------------------------------------

  Dipole Moment: [D]
     X:    -0.8669      Y:     1.4244      Z:     1.8718     Total:     2.5068

*** Psi4 exiting successfully. Buy a developer a beer!
