                               Psi4 1.3.2 release

  ==> Input File <==

--------------------------------------------------------------------------
#psi4
#
memory 32 gb

molecule  {
0 1
  P       -2.2900960    -0.9400430     0.3446780
  O       -0.9821530    -0.2015620     0.9382890
  O        1.3422500    -1.6754830     1.2308510
  O        0.0787050     2.3596040     0.4621680
  O        3.0685150    -2.1870720    -0.8085900
  O        2.8473350     2.5031130     0.3715350
  O        4.1956880     0.4353970    -0.9728740
  O       -2.8268630     0.0333510    -0.8075310
  O       -3.2591210    -0.7232820     1.6216710
  O       -2.1189930    -2.3436440    -0.0996680
  C        0.1181620     0.0300090     0.0163190
  C        0.9532920    -1.2442050    -0.0757250
  C        0.8985890     1.2026440     0.5648510
  C        2.2028855    -0.9319892    -0.8187001
  C        2.1770750     1.3964720    -0.2280410
  C        3.0258420     0.1487050    -0.2103220
  C       -3.1242130     1.4315980    -0.4888860
  C       -3.5363170     2.0851650    -1.7841190
  H       -0.2830920     0.2988010    -0.9702380
  H        0.3702690    -2.0293640    -0.5720320
  H        1.1571200     0.9978770     1.6121560
  H        2.0609340    -0.7886600    -1.8727560
  H        1.9169870     1.6362870    -1.2735830
  H        3.2958550    -0.0945320     0.8276460
  H        0.5217750    -1.8880320     1.7115100
  H        0.6655400     3.1093110     0.6831840
  H        2.9735430    -2.5473740     0.0946540
  H        3.7214290     2.5491860    -0.0588690
  H        4.6397270    -0.4238340    -1.0970870
  H       -3.8083950    -1.5223380     1.7347280
  H       -3.9305460     1.4455410     0.2493860
  H       -2.2297620     1.8928800    -0.0590960
  H       -3.8005210     3.1308820    -1.6026710
  H       -2.7171960     2.0533230    -2.5048750
  H       -4.4009440     1.5743230    -2.2127240
units angstrom
no_reorient  #important for SAPT in psi4, default
symmetry c1  #important for SAPT in psi4, default
}

set PROPERTIES_ORIGIN ["COM"]
properties('MP2/aug-cc-pvtz', properties = ['dipole'])
--------------------------------------------------------------------------

    Molecular point group: c1
  Charge       = 0
  Multiplicity = 1
  Basis Set: AUG-CC-PVTZ
    Blend: AUG-CC-PVTZ
  Basis Set: (AUG-CC-PVTZ AUX)
    Blend: AUG-CC-PVTZ-JKFIT

    Orbital Energies [Eh]
    ---------------------

    Doubly Occupied:

       1A    -80.117662     2A    -20.615319     3A    -20.607485
       4A    -20.599680     5A    -20.584881     6A    -20.577437
       7A    -20.576603     8A    -20.575140     9A    -20.563241
      10A    -20.524288    11A    -11.321744    12A    -11.306373
      13A    -11.300685    14A    -11.300557    15A    -11.300096
      16A    -11.297998    17A    -11.294507    18A    -11.230498
      19A     -7.633109    20A     -5.531615    21A     -5.531243
      22A     -5.530042    23A     -1.461002    24A     -1.409741
      25A     -1.395944    26A     -1.389023    27A     -1.386625
      28A     -1.374193    29A     -1.360033    30A     -1.332021
      31A     -1.304661    32A     -1.129523    33A     -1.041246
      34A     -1.018055    35A     -1.010009    36A     -0.883124
      37A     -0.866130    38A     -0.858246    39A     -0.822829
      40A     -0.812833    41A     -0.751160    42A     -0.745978
      43A     -0.733219    44A     -0.729204    45A     -0.709214
      46A     -0.688631    47A     -0.675155    48A     -0.673959
      49A     -0.663726    50A     -0.651415    51A     -0.645693
      52A     -0.636268    53A     -0.625447    54A     -0.615992
      55A     -0.604757    56A     -0.589317    57A     -0.582571
      58A     -0.576621    59A     -0.569658    60A     -0.560195
      61A     -0.558409    62A     -0.548762    63A     -0.543019
      64A     -0.535103    65A     -0.528394    66A     -0.522335
      67A     -0.512549    68A     -0.504988    69A     -0.497664
      70A     -0.484910    71A     -0.480437    72A     -0.477424
      73A     -0.463711    74A     -0.457420    75A     -0.451555
      76A     -0.444578

  @DF-RHF Final Energy: -1327.85027308037911

   => Energetics <=

    Nuclear Repulsion Energy =           1773.3840086962641180
    One-Electron Energy =               -5358.8388035647240031
    Two-Electron Energy =                2257.6045217880810014
    Total Energy =                      -1327.8502730803788836
  Basis Set: (AUG-CC-PVTZ AUX)
    Blend: AUG-CC-PVTZ-RI
    Molecular point group: c1

    Geometry (in Angstrom), charge = 0, multiplicity = 1:

       Center              X                  Y                   Z               Mass
    ------------   -----------------  -----------------  -----------------  -----------------
         P           -2.287730864098    -0.943472164112     0.344705614084    30.973761998420
         O           -0.979787864098    -0.204991164112     0.938316614084    15.994914619570
         O            1.344615135902    -1.678912164112     1.230878614084    15.994914619570
         O            0.081070135902     2.356174835888     0.462195614084    15.994914619570
         O            3.070880135902    -2.190501164112    -0.808562385916    15.994914619570
         O            2.849700135902     2.499683835888     0.371562614084    15.994914619570
         O            4.198053135902     0.431967835888    -0.972846385916    15.994914619570
         O           -2.824497864098     0.029921835888    -0.807503385916    15.994914619570
         O           -3.256755864098    -0.726711164112     1.621698614084    15.994914619570
         O           -2.116627864098    -2.347073164112    -0.099640385916    15.994914619570
         C            0.120527135902     0.026579835888     0.016346614084    12.000000000000
         C            0.955657135902    -1.247634164112    -0.075697385916    12.000000000000
         C            0.900954135902     1.199214835888     0.564878614084    12.000000000000
         C            2.205250635902    -0.935418364112    -0.818672485916    12.000000000000
         C            2.179440135902     1.393042835888    -0.228013385916    12.000000000000
         C            3.028207135902     0.145275835888    -0.210294385916    12.000000000000
         C           -3.121847864098     1.428168835888    -0.488858385916    12.000000000000
         C           -3.533951864098     2.081735835888    -1.784091385916    12.000000000000
         H           -0.280726864098     0.295371835888    -0.970210385916     1.007825032230
         H            0.372634135902    -2.032793164112    -0.572004385916     1.007825032230
         H            1.159485135902     0.994447835888     1.612183614084     1.007825032230
         H            2.063299135902    -0.792089164112    -1.872728385916     1.007825032230
         H            1.919352135902     1.632857835888    -1.273555385916     1.007825032230
         H            3.298220135902    -0.097961164112     0.827673614084     1.007825032230
         H            0.524140135902    -1.891461164112     1.711537614084     1.007825032230
         H            0.667905135902     3.105881835888     0.683211614084     1.007825032230
         H            2.975908135902    -2.550803164112     0.094681614084     1.007825032230
         H            3.723794135902     2.545756835888    -0.058841385916     1.007825032230
         H            4.642092135902    -0.427263164112    -1.097059385916     1.007825032230
         H           -3.806029864098    -1.525767164112     1.734755614084     1.007825032230
         H           -3.928180864098     1.442111835888     0.249413614084     1.007825032230
         H           -2.227396864098     1.889450835888    -0.059068385916     1.007825032230
         H           -3.798155864098     3.127452835888    -1.602643385916     1.007825032230
         H           -2.714830864098     2.049893835888    -2.504847385916     1.007825032230
         H           -4.398578864098     1.570893835888    -2.212696385916     1.007825032230

  Basis Set: AUG-CC-PVTZ
    Blend: AUG-CC-PVTZ
  Basis Set: (AUG-CC-PVTZ AUX)
    Blend: AUG-CC-PVTZ-JKFIT
	 Reference Energy          =   -1327.8502730803791110 [Eh]
	 Singles Energy            =      -0.0000000000000000 [Eh]
	 Same-Spin Energy          =      -1.0155977224462998 [Eh]
	 Opposite-Spin Energy      =      -3.0786634814685123 [Eh]
	 Correlation Energy        =      -4.0942612039148116 [Eh]
	 Total Energy              =   -1331.9445342842939226 [Eh]

	 ================> DF-SCS-MP2 Energies <==================
	-----------------------------------------------------------
	 SCS Same-Spin Scale       =       0.3333333333333333 [-]
	 SCS Opposite-Spin Scale   =       1.2000000000000000 [-]
	 SCS Same-Spin Energy      =      -0.3385325741487666 [Eh]
	 SCS Opposite-Spin Energy  =      -3.6943961777622145 [Eh]
	 SCS Correlation Energy    =      -4.0329287519109815 [Eh]
	 SCS Total Energy          =   -1331.8832018322900694 [Eh]
	-----------------------------------------------------------

  Dipole Moment: [D]
     X:    -1.2819      Y:     2.1381      Z:     0.7357     Total:     2.5992

*** Psi4 exiting successfully. Buy a developer a beer!
