                               Psi4 1.3.2 release

  ==> Input File <==

--------------------------------------------------------------------------
#psi4
#
memory 32 gb

molecule  {
0 1
  P       -2.2900960    -0.9400430     0.3446780
  O       -0.9821530    -0.2015620     0.9382890
  O        1.3422500    -1.6754830     1.2308510
  O        0.0787050     2.3596040     0.4621680
  O        3.0685150    -2.1870720    -0.8085900
  O        2.8473350     2.5031130     0.3715350
  O        4.1956880     0.4353970    -0.9728740
  O       -2.8268630     0.0333510    -0.8075310
  O       -3.2591210    -0.7232820     1.6216710
  O       -2.1189930    -2.3436440    -0.0996680
  C        0.1181620     0.0300090     0.0163190
  C        0.9532920    -1.2442050    -0.0757250
  C        0.8985890     1.2026440     0.5648510
  C        2.2596600    -1.0143070    -0.8180370
  C        2.0830675     1.2412598    -0.3121347
  C        3.0258420     0.1487050    -0.2103220
  C       -3.1242130     1.4315980    -0.4888860
  C       -3.5363170     2.0851650    -1.7841190
  H       -0.2830920     0.2988010    -0.9702380
  H        0.3702690    -2.0293640    -0.5720320
  H        1.1571200     0.9978770     1.6121560
  H        2.0609340    -0.7886600    -1.8727560
  H        1.9169870     1.6362870    -1.2735830
  H        3.2958550    -0.0945320     0.8276460
  H        0.5217750    -1.8880320     1.7115100
  H        0.6655400     3.1093110     0.6831840
  H        2.9735430    -2.5473740     0.0946540
  H        3.7214290     2.5491860    -0.0588690
  H        4.6397270    -0.4238340    -1.0970870
  H       -3.8083950    -1.5223380     1.7347280
  H       -3.9305460     1.4455410     0.2493860
  H       -2.2297620     1.8928800    -0.0590960
  H       -3.8005210     3.1308820    -1.6026710
  H       -2.7171960     2.0533230    -2.5048750
  H       -4.4009440     1.5743230    -2.2127240
units angstrom
no_reorient  #important for SAPT in psi4, default
symmetry c1  #important for SAPT in psi4, default
}

set PROPERTIES_ORIGIN ["COM"]
properties('MP2/aug-cc-pvtz', properties = ['dipole'])
--------------------------------------------------------------------------

    Molecular point group: c1
  Charge       = 0
  Multiplicity = 1
  Basis Set: AUG-CC-PVTZ
    Blend: AUG-CC-PVTZ
  Basis Set: (AUG-CC-PVTZ AUX)
    Blend: AUG-CC-PVTZ-JKFIT

    Orbital Energies [Eh]
    ---------------------

    Doubly Occupied:

       1A    -80.118242     2A    -20.615906     3A    -20.608326
       4A    -20.600503     5A    -20.586741     6A    -20.578388
       7A    -20.577879     8A    -20.576191     9A    -20.551675
      10A    -20.525037    11A    -11.322989    12A    -11.307811
      13A    -11.304734    14A    -11.302746    15A    -11.302455
      16A    -11.300825    17A    -11.296780    18A    -11.231098
      19A     -7.633726    20A     -5.532233    21A     -5.531847
      22A     -5.530659    23A     -1.461867    24A     -1.412577
      25A     -1.396102    26A     -1.388382    27A     -1.385923
      28A     -1.375087    29A     -1.362050    30A     -1.306509
      31A     -1.305399    32A     -1.140948    33A     -1.042113
      34A     -1.025289    35A     -1.012218    36A     -0.883391
      37A     -0.866582    38A     -0.863321    39A     -0.824191
      40A     -0.818324    41A     -0.753697    42A     -0.745015
      43A     -0.735647    44A     -0.729663    45A     -0.700549
      46A     -0.690347    47A     -0.682006    48A     -0.675876
      49A     -0.661612    50A     -0.659834    51A     -0.644070
      52A     -0.629842    53A     -0.622072    54A     -0.617329
      55A     -0.605375    56A     -0.597400    57A     -0.584479
      58A     -0.576810    59A     -0.572809    60A     -0.561391
      61A     -0.551463    62A     -0.543986    63A     -0.540032
      64A     -0.534339    65A     -0.532090    66A     -0.516486
      67A     -0.507261    68A     -0.499241    69A     -0.495686
      70A     -0.486453    71A     -0.481488    72A     -0.478039
      73A     -0.475469    74A     -0.467712    75A     -0.455585
      76A     -0.431017

  @DF-RHF Final Energy: -1327.82428997400507

   => Energetics <=

    Nuclear Repulsion Energy =           1774.2947247643514856
    One-Electron Energy =               -5360.5395640143888158
    Two-Electron Energy =                2258.4205492760320340
    Total Energy =                      -1327.8242899740052962
  Basis Set: (AUG-CC-PVTZ AUX)
    Blend: AUG-CC-PVTZ-RI
    Molecular point group: c1

    Geometry (in Angstrom), charge = 0, multiplicity = 1:

       Center              X                  Y                   Z               Mass
    ------------   -----------------  -----------------  -----------------  -----------------
         P           -2.286179817721    -0.933577177249     0.348181152715    30.973761998420
         O           -0.978236817721    -0.195096177249     0.941792152715    15.994914619570
         O            1.346166182279    -1.669017177249     1.234354152715    15.994914619570
         O            0.082621182279     2.366069822751     0.465671152715    15.994914619570
         O            3.072431182279    -2.180606177249    -0.805086847285    15.994914619570
         O            2.851251182279     2.509578822751     0.375038152715    15.994914619570
         O            4.199604182279     0.441862822751    -0.969370847285    15.994914619570
         O           -2.822946817721     0.039816822751    -0.804027847285    15.994914619570
         O           -3.255204817721    -0.716816177249     1.625174152715    15.994914619570
         O           -2.115076817721    -2.337178177249    -0.096164847285    15.994914619570
         C            0.122078182279     0.036474822751     0.019822152715    12.000000000000
         C            0.957208182279    -1.237739177249    -0.072221847285    12.000000000000
         C            0.902505182279     1.209109822751     0.568354152715    12.000000000000
         C            2.263576182279    -1.007841177249    -0.814533847285    12.000000000000
         C            2.086983682279     1.247725622751    -0.308631547285    12.000000000000
         C            3.029758182279     0.155170822751    -0.206818847285    12.000000000000
         C           -3.120296817721     1.438063822751    -0.485382847285    12.000000000000
         C           -3.532400817721     2.091630822751    -1.780615847285    12.000000000000
         H           -0.279175817721     0.305266822751    -0.966734847285     1.007825032230
         H            0.374185182279    -2.022898177249    -0.568528847285     1.007825032230
         H            1.161036182279     1.004342822751     1.615659152715     1.007825032230
         H            2.064850182279    -0.782194177249    -1.869252847285     1.007825032230
         H            1.920903182279     1.642752822751    -1.270079847285     1.007825032230
         H            3.299771182279    -0.088066177249     0.831149152715     1.007825032230
         H            0.525691182279    -1.881566177249     1.715013152715     1.007825032230
         H            0.669456182279     3.115776822751     0.686687152715     1.007825032230
         H            2.977459182279    -2.540908177249     0.098157152715     1.007825032230
         H            3.725345182279     2.555651822751    -0.055365847285     1.007825032230
         H            4.643643182279    -0.417368177249    -1.093583847285     1.007825032230
         H           -3.804478817721    -1.515872177249     1.738231152715     1.007825032230
         H           -3.926629817721     1.452006822751     0.252889152715     1.007825032230
         H           -2.225845817721     1.899345822751    -0.055592847285     1.007825032230
         H           -3.796604817721     3.137347822751    -1.599167847285     1.007825032230
         H           -2.713279817721     2.059788822751    -2.501371847285     1.007825032230
         H           -4.397027817721     1.580788822751    -2.209220847285     1.007825032230

  Basis Set: AUG-CC-PVTZ
    Blend: AUG-CC-PVTZ
  Basis Set: (AUG-CC-PVTZ AUX)
    Blend: AUG-CC-PVTZ-JKFIT
	 Reference Energy          =   -1327.8242899740050689 [Eh]
	 Singles Energy            =      -0.0000000000000000 [Eh]
	 Same-Spin Energy          =      -1.0175109402730014 [Eh]
	 Opposite-Spin Energy      =      -3.0825329065277667 [Eh]
	 Correlation Energy        =      -4.1000438468007676 [Eh]
	 Total Energy              =   -1331.9243338208059413 [Eh]

	 ================> DF-SCS-MP2 Energies <==================
	-----------------------------------------------------------
	 SCS Same-Spin Scale       =       0.3333333333333333 [-]
	 SCS Opposite-Spin Scale   =       1.2000000000000000 [-]
	 SCS Same-Spin Energy      =      -0.3391703134243338 [Eh]
	 SCS Opposite-Spin Energy  =      -3.6990394878333199 [Eh]
	 SCS Correlation Energy    =      -4.0382098012576542 [Eh]
	 SCS Total Energy          =   -1331.8624997752626768 [Eh]
	-----------------------------------------------------------

  Dipole Moment: [D]
     X:    -1.4526      Y:     1.3629      Z:     0.5441     Total:     2.0649

*** Psi4 exiting successfully. Buy a developer a beer!
