                               Psi4 1.3.2 release

  ==> Input File <==

--------------------------------------------------------------------------
#psi4
#
memory 32 gb

molecule  {
0 1
  P       -2.2900960    -0.9400430     0.3446780
  O       -0.9821530    -0.2015620     0.9382890
  O        1.3422500    -1.6754830     1.2308510
  O        0.0787050     2.3596040     0.4621680
  O        3.0685150    -2.1870720    -0.8085900
  O        2.8473350     2.5031130     0.3715350
  O        4.1956880     0.4353970    -0.9728740
  O       -2.8268630     0.0333510    -0.8075310
  O       -3.2591210    -0.7232820     1.6216710
  O       -2.1189930    -2.3436440    -0.0996680
  C        0.1181620     0.0300090     0.0163190
  C        0.9532920    -1.2442050    -0.0757250
  C        0.8985890     1.2026440     0.5648510
  C        2.2596600    -1.0143070    -0.8180370
  C        2.1770750     1.3964720    -0.2280410
  C        3.0321659     0.1246430    -0.2100727
  C       -3.1242130     1.4315980    -0.4888860
  C       -3.5363170     2.0851650    -1.7841190
  H       -0.2830920     0.2988010    -0.9702380
  H        0.3702690    -2.0293640    -0.5720320
  H        1.1571200     0.9978770     1.6121560
  H        2.0609340    -0.7886600    -1.8727560
  H        1.9169870     1.6362870    -1.2735830
  H        3.2958550    -0.0945320     0.8276460
  H        0.5217750    -1.8880320     1.7115100
  H        0.6655400     3.1093110     0.6831840
  H        2.9735430    -2.5473740     0.0946540
  H        3.7214290     2.5491860    -0.0588690
  H        4.6273039    -0.4313669    -1.0882231
  H       -3.8083950    -1.5223380     1.7347280
  H       -3.9305460     1.4455410     0.2493860
  H       -2.2297620     1.8928800    -0.0590960
  H       -3.8005210     3.1308820    -1.6026710
  H       -2.7171960     2.0533230    -2.5048750
  H       -4.4009440     1.5743230    -2.2127240
units angstrom
no_reorient  #important for SAPT in psi4, default
symmetry c1  #important for SAPT in psi4, default
}

set PROPERTIES_ORIGIN ["COM"]
properties('MP2/aug-cc-pvtz', properties = ['dipole'])
--------------------------------------------------------------------------

    Molecular point group: c1
  Charge       = 0
  Multiplicity = 1
  Basis Set: AUG-CC-PVTZ
    Blend: AUG-CC-PVTZ
  Basis Set: (AUG-CC-PVTZ AUX)
    Blend: AUG-CC-PVTZ-JKFIT

    Orbital Energies [Eh]
    ---------------------

    Doubly Occupied:

       1A    -80.116988     2A    -20.614768     3A    -20.607058
       4A    -20.598951     5A    -20.583485     6A    -20.576869
       7A    -20.575086     8A    -20.574399     9A    -20.573019
      10A    -20.523525    11A    -11.320763    12A    -11.304099
      13A    -11.299356    14A    -11.299077    15A    -11.298046
      16A    -11.297028    17A    -11.291190    18A    -11.229842
      19A     -7.632439    20A     -5.530945    21A     -5.530571
      22A     -5.529370    23A     -1.460319    24A     -1.411160
      25A     -1.394860    26A     -1.393073    27A     -1.386910
      28A     -1.373257    29A     -1.363927    30A     -1.354257
      31A     -1.303918    32A     -1.118393    33A     -1.040432
      34A     -1.011526    35A     -1.003013    36A     -0.880943
      37A     -0.865115    38A     -0.857863    39A     -0.822465
      40A     -0.811014    41A     -0.751651    42A     -0.745190
      43A     -0.731312    44A     -0.728609    45A     -0.707839
      46A     -0.687866    47A     -0.678261    48A     -0.673592
      49A     -0.661428    50A     -0.660846    51A     -0.643068
      52A     -0.633968    53A     -0.627466    54A     -0.615417
      55A     -0.603628    56A     -0.599338    57A     -0.582338
      58A     -0.575582    59A     -0.571615    60A     -0.559296
      61A     -0.557426    62A     -0.548675    63A     -0.541243
      64A     -0.536807    65A     -0.530082    66A     -0.521728
      67A     -0.513079    68A     -0.504777    69A     -0.496982
      70A     -0.484826    71A     -0.479876    72A     -0.476746
      73A     -0.462316    74A     -0.452512    75A     -0.450161
      76A     -0.439077

  @DF-RHF Final Energy: -1327.86040320362372

   => Energetics <=

    Nuclear Repulsion Energy =           1772.3927534649828885
    One-Electron Energy =               -5356.9184311076105587
    Two-Electron Energy =                2256.6652744390039516
    Total Energy =                      -1327.8604032036237186
  Basis Set: (AUG-CC-PVTZ AUX)
    Blend: AUG-CC-PVTZ-RI
    Molecular point group: c1

    Geometry (in Angstrom), charge = 0, multiplicity = 1:

       Center              X                  Y                   Z               Mass
    ------------   -----------------  -----------------  -----------------  -----------------
         P           -2.290315943090    -0.939014256377     0.344636593776    30.973761998420
         O           -0.982372943090    -0.200533256377     0.938247593776    15.994914619570
         O            1.342030056910    -1.674454256377     1.230809593776    15.994914619570
         O            0.078485056910     2.360632743623     0.462126593776    15.994914619570
         O            3.068295056910    -2.186043256377    -0.808631406224    15.994914619570
         O            2.847115056910     2.504141743623     0.371493593776    15.994914619570
         O            4.195468056910     0.436425743623    -0.972915406224    15.994914619570
         O           -2.827082943090     0.034379743623    -0.807572406224    15.994914619570
         O           -3.259340943090    -0.722253256377     1.621629593776    15.994914619570
         O           -2.119212943090    -2.342615256377    -0.099709406224    15.994914619570
         C            0.117942056910     0.031037743623     0.016277593776    12.000000000000
         C            0.953072056910    -1.243176256377    -0.075766406224    12.000000000000
         C            0.898369056910     1.203672743623     0.564809593776    12.000000000000
         C            2.259440056910    -1.013278256377    -0.818078406224    12.000000000000
         C            2.176855056910     1.397500743623    -0.228082406224    12.000000000000
         C            3.031945956910     0.125671743623    -0.210114106224    12.000000000000
         C           -3.124432943090     1.432626743623    -0.488927406224    12.000000000000
         C           -3.536536943090     2.086193743623    -1.784160406224    12.000000000000
         H           -0.283311943090     0.299829743623    -0.970279406224     1.007825032230
         H            0.370049056910    -2.028335256377    -0.572073406224     1.007825032230
         H            1.156900056910     0.998905743623     1.612114593776     1.007825032230
         H            2.060714056910    -0.787631256377    -1.872797406224     1.007825032230
         H            1.916767056910     1.637315743623    -1.273624406224     1.007825032230
         H            3.295635056910    -0.093503256377     0.827604593776     1.007825032230
         H            0.521555056910    -1.887003256377     1.711468593776     1.007825032230
         H            0.665320056910     3.110339743623     0.683142593776     1.007825032230
         H            2.973323056910    -2.546345256377     0.094612593776     1.007825032230
         H            3.721209056910     2.550214743623    -0.058910406224     1.007825032230
         H            4.627083956910    -0.430338156377    -1.088264506224     1.007825032230
         H           -3.808614943090    -1.521309256377     1.734686593776     1.007825032230
         H           -3.930765943090     1.446569743623     0.249344593776     1.007825032230
         H           -2.229981943090     1.893908743623    -0.059137406224     1.007825032230
         H           -3.800740943090     3.131910743623    -1.602712406224     1.007825032230
         H           -2.717415943090     2.054351743623    -2.504916406224     1.007825032230
         H           -4.401163943090     1.575351743623    -2.212765406224     1.007825032230

  Basis Set: AUG-CC-PVTZ
    Blend: AUG-CC-PVTZ
  Basis Set: (AUG-CC-PVTZ AUX)
    Blend: AUG-CC-PVTZ-JKFIT
	 Reference Energy          =   -1327.8604032036237186 [Eh]
	 Singles Energy            =      -0.0000000000000000 [Eh]
	 Same-Spin Energy          =      -1.0146746055985332 [Eh]
	 Opposite-Spin Energy      =      -3.0763167304842098 [Eh]
	 Correlation Energy        =      -4.0909913360827428 [Eh]
	 Total Energy              =   -1331.9513945397063708 [Eh]

	 ================> DF-SCS-MP2 Energies <==================
	-----------------------------------------------------------
	 SCS Same-Spin Scale       =       0.3333333333333333 [-]
	 SCS Opposite-Spin Scale   =       1.2000000000000000 [-]
	 SCS Same-Spin Energy      =      -0.3382248685328444 [Eh]
	 SCS Opposite-Spin Energy  =      -3.6915800765810518 [Eh]
	 SCS Correlation Energy    =      -4.0298049451138960 [Eh]
	 SCS Total Energy          =   -1331.8902081487376563 [Eh]
	-----------------------------------------------------------

  Dipole Moment: [D]
     X:    -1.1216      Y:     1.8492      Z:     0.7323     Total:     2.2834

*** Psi4 exiting successfully. Buy a developer a beer!
