                               Psi4 1.3.2 release

  ==> Input File <==

--------------------------------------------------------------------------
#psi4
#
memory 32 gb

molecule  {
0 1
  P       -2.2900960    -0.9400430     0.3446780
  O       -0.9821530    -0.2015620     0.9382890
  O        1.3422500    -1.6754830     1.2308510
  O        0.0787050     2.3596040     0.4621680
  O        3.0685150    -2.1870720    -0.8085900
  O        2.8473350     2.5031130     0.3715350
  O        4.1956880     0.4353970    -0.9728740
  O       -2.8268630     0.0333510    -0.8075310
  O       -3.2591210    -0.7232820     1.6216710
  O       -2.1189930    -2.3436440    -0.0996680
  C        0.1181620     0.0300090     0.0163190
  C        0.9532920    -1.2442050    -0.0757250
  C        0.8985890     1.2026440     0.5648510
  C        2.2596600    -1.0143070    -0.8180370
  C        2.1770750     1.3964720    -0.2280410
  C        3.0258420     0.1487050    -0.2103220
  C       -3.1242130     1.4315980    -0.4888860
  C       -3.5363170     2.0851650    -1.7841190
  H       -0.2100325     0.2498599    -0.7906076
  H        0.3702690    -2.0293640    -0.5720320
  H        1.1571200     0.9978770     1.6121560
  H        2.0609340    -0.7886600    -1.8727560
  H        1.9169870     1.6362870    -1.2735830
  H        3.2958550    -0.0945320     0.8276460
  H        0.5217750    -1.8880320     1.7115100
  H        0.6655400     3.1093110     0.6831840
  H        2.9735430    -2.5473740     0.0946540
  H        3.7214290     2.5491860    -0.0588690
  H        4.6397270    -0.4238340    -1.0970870
  H       -3.8083950    -1.5223380     1.7347280
  H       -3.9305460     1.4455410     0.2493860
  H       -2.2297620     1.8928800    -0.0590960
  H       -3.8005210     3.1308820    -1.6026710
  H       -2.7171960     2.0533230    -2.5048750
  H       -4.4009440     1.5743230    -2.2127240
units angstrom
no_reorient  #important for SAPT in psi4, default
symmetry c1  #important for SAPT in psi4, default
}

set PROPERTIES_ORIGIN ["COM"]
properties('MP2/aug-cc-pvtz', properties = ['dipole'])
--------------------------------------------------------------------------

    Molecular point group: c1
  Charge       = 0
  Multiplicity = 1
  Basis Set: AUG-CC-PVTZ
    Blend: AUG-CC-PVTZ
  Basis Set: (AUG-CC-PVTZ AUX)
    Blend: AUG-CC-PVTZ-JKFIT

    Orbital Energies [Eh]
    ---------------------

    Doubly Occupied:

       1A    -80.116562     2A    -20.614423     3A    -20.605229
       4A    -20.599182     5A    -20.582405     6A    -20.577047
       7A    -20.574775     8A    -20.574287     9A    -20.573774
      10A    -20.523370    11A    -11.302942    12A    -11.299706
      13A    -11.299529    14A    -11.298230    15A    -11.297605
      16A    -11.296946    17A    -11.291672    18A    -11.229866
      19A     -7.632029    20A     -5.530535    21A     -5.530157
      22A     -5.528967    23A     -1.460160    24A     -1.410925
      25A     -1.394700    26A     -1.393137    27A     -1.386844
      28A     -1.372543    29A     -1.364047    30A     -1.353963
      31A     -1.303802    32A     -1.124682    33A     -1.040638
      34A     -1.022701    35A     -1.003518    36A     -0.883222
      37A     -0.868187    38A     -0.860661    39A     -0.833641
      40A     -0.817923    41A     -0.752643    42A     -0.750672
      43A     -0.731684    44A     -0.730781    45A     -0.710873
      46A     -0.688517    47A     -0.678262    48A     -0.676517
      49A     -0.662446    50A     -0.661834    51A     -0.643229
      52A     -0.634990    53A     -0.627296    54A     -0.616540
      55A     -0.605398    56A     -0.598587    57A     -0.584904
      58A     -0.575565    59A     -0.571625    60A     -0.561607
      61A     -0.557390    62A     -0.550149    63A     -0.541807
      64A     -0.537525    65A     -0.532903    66A     -0.521665
      67A     -0.513269    68A     -0.505779    69A     -0.497911
      70A     -0.486782    71A     -0.479792    72A     -0.476747
      73A     -0.462204    74A     -0.456323    75A     -0.449971
      76A     -0.436411

  @DF-RHF Final Energy: -1327.82980943469511

   => Energetics <=

    Nuclear Repulsion Energy =           1773.7610784083060480
    One-Electron Energy =               -5359.4915122915117536
    Two-Electron Energy =                2257.9006244485103707
    Total Energy =                      -1327.8298094346951075
  Basis Set: (AUG-CC-PVTZ AUX)
    Blend: AUG-CC-PVTZ-RI
    Molecular point group: c1

    Geometry (in Angstrom), charge = 0, multiplicity = 1:

       Center              X                  Y                   Z               Mass
    ------------   -----------------  -----------------  -----------------  -----------------
         P           -2.290351576874    -0.939871754487     0.344049526654    30.973761998420
         O           -0.982408576874    -0.201390754487     0.937660526654    15.994914619570
         O            1.341994423126    -1.675311754487     1.230222526654    15.994914619570
         O            0.078449423126     2.359775245513     0.461539526654    15.994914619570
         O            3.068259423126    -2.186900754487    -0.809218473346    15.994914619570
         O            2.847079423126     2.503284245513     0.370906526654    15.994914619570
         O            4.195432423126     0.435568245513    -0.973502473346    15.994914619570
         O           -2.827118576874     0.033522245513    -0.808159473346    15.994914619570
         O           -3.259376576874    -0.723110754487     1.621042526654    15.994914619570
         O           -2.119248576874    -2.343472754487    -0.100296473346    15.994914619570
         C            0.117906423126     0.030180245513     0.015690526654    12.000000000000
         C            0.953036423126    -1.244033754487    -0.076353473346    12.000000000000
         C            0.898333423126     1.202815245513     0.564222526654    12.000000000000
         C            2.259404423126    -1.014135754487    -0.818665473346    12.000000000000
         C            2.176819423126     1.396643245513    -0.228669473346    12.000000000000
         C            3.025586423126     0.148876245513    -0.210950473346    12.000000000000
         C           -3.124468576874     1.431769245513    -0.489514473346    12.000000000000
         C           -3.536572576874     2.085336245513    -1.784747473346    12.000000000000
         H           -0.210288076874     0.250031145513    -0.791236073346     1.007825032230
         H            0.370013423126    -2.029192754487    -0.572660473346     1.007825032230
         H            1.156864423126     0.998048245513     1.611527526654     1.007825032230
         H            2.060678423126    -0.788488754487    -1.873384473346     1.007825032230
         H            1.916731423126     1.636458245513    -1.274211473346     1.007825032230
         H            3.295599423126    -0.094360754487     0.827017526654     1.007825032230
         H            0.521519423126    -1.887860754487     1.710881526654     1.007825032230
         H            0.665284423126     3.109482245513     0.682555526654     1.007825032230
         H            2.973287423126    -2.547202754487     0.094025526654     1.007825032230
         H            3.721173423126     2.549357245513    -0.059497473346     1.007825032230
         H            4.639471423126    -0.423662754487    -1.097715473346     1.007825032230
         H           -3.808650576874    -1.522166754487     1.734099526654     1.007825032230
         H           -3.930801576874     1.445712245513     0.248757526654     1.007825032230
         H           -2.230017576874     1.893051245513    -0.059724473346     1.007825032230
         H           -3.800776576874     3.131053245513    -1.603299473346     1.007825032230
         H           -2.717451576874     2.053494245513    -2.505503473346     1.007825032230
         H           -4.401199576874     1.574494245513    -2.213352473346     1.007825032230

  Basis Set: AUG-CC-PVTZ
    Blend: AUG-CC-PVTZ
  Basis Set: (AUG-CC-PVTZ AUX)
    Blend: AUG-CC-PVTZ-JKFIT
	 Reference Energy          =   -1327.8298094346951075 [Eh]
	 Singles Energy            =      -0.0000000000000000 [Eh]
	 Same-Spin Energy          =      -1.0139864153669895 [Eh]
	 Opposite-Spin Energy      =      -3.0746758392701854 [Eh]
	 Correlation Energy        =      -4.0886622546371747 [Eh]
	 Total Energy              =   -1331.9184716893323639 [Eh]

	 ================> DF-SCS-MP2 Energies <==================
	-----------------------------------------------------------
	 SCS Same-Spin Scale       =       0.3333333333333333 [-]
	 SCS Opposite-Spin Scale   =       1.2000000000000000 [-]
	 SCS Same-Spin Energy      =      -0.3379954717889965 [Eh]
	 SCS Opposite-Spin Energy  =      -3.6896110071242223 [Eh]
	 SCS Correlation Energy    =      -4.0276064789132189 [Eh]
	 SCS Total Energy          =   -1331.8574159136082926 [Eh]
	-----------------------------------------------------------

  Dipole Moment: [D]
     X:    -1.0792      Y:     1.8732      Z:     0.6913     Total:     2.2697

*** Psi4 exiting successfully. Buy a developer a beer!
