                               Psi4 1.3.2 release

  ==> Input File <==

--------------------------------------------------------------------------
#psi4
#
memory 32 gb

molecule  {
0 1
  P       -2.2900960    -0.9400430     0.3446780
  O       -0.9821530    -0.2015620     0.9382890
  O        1.3422500    -1.6754830     1.2308510
  O        0.0787050     2.3596040     0.4621680
  O        3.0685150    -2.1870720    -0.8085900
  O        2.8473350     2.5031130     0.3715350
  O        4.1956880     0.4353970    -0.9728740
  O       -2.8239976     0.0312220    -0.7952587
  O       -3.2591210    -0.7232820     1.6216710
  O       -2.1189930    -2.3436440    -0.0996680
  C        0.1181620     0.0300090     0.0163190
  C        0.9532920    -1.2442050    -0.0757250
  C        0.8985890     1.2026440     0.5648510
  C        2.2596600    -1.0143070    -0.8180370
  C        2.1770750     1.3964720    -0.2280410
  C        3.0258420     0.1487050    -0.2103220
  C       -3.1242130     1.4315980    -0.4888860
  C       -3.5380282     2.0965594    -1.7777581
  H       -0.2830920     0.2988010    -0.9702380
  H        0.3702690    -2.0293640    -0.5720320
  H        1.1571200     0.9978770     1.6121560
  H        2.0609340    -0.7886600    -1.8727560
  H        1.9169870     1.6362870    -1.2735830
  H        3.2958550    -0.0945320     0.8276460
  H        0.5217750    -1.8880320     1.7115100
  H        0.6655400     3.1093110     0.6831840
  H        2.9735430    -2.5473740     0.0946540
  H        3.7214290     2.5491860    -0.0588690
  H        4.6397270    -0.4238340    -1.0970870
  H       -3.8083950    -1.5223380     1.7347280
  H       -3.9305460     1.4455410     0.2493860
  H       -2.2297620     1.8928800    -0.0590960
  H       -3.8005210     3.1308820    -1.6026710
  H       -2.7171960     2.0533230    -2.5048750
  H       -4.4009440     1.5743230    -2.2127240
units angstrom
no_reorient  #important for SAPT in psi4, default
symmetry c1  #important for SAPT in psi4, default
}

set PROPERTIES_ORIGIN ["COM"]
properties('MP2/aug-cc-pvtz', properties = ['dipole'])
--------------------------------------------------------------------------

    Molecular point group: c1
  Charge       = 0
  Multiplicity = 1
  Basis Set: AUG-CC-PVTZ
    Blend: AUG-CC-PVTZ
  Basis Set: (AUG-CC-PVTZ AUX)
    Blend: AUG-CC-PVTZ-JKFIT

    Orbital Energies [Eh]
    ---------------------

    Doubly Occupied:

       1A    -80.115781     2A    -20.613742     3A    -20.606128
       4A    -20.599115     5A    -20.582920     6A    -20.576717
       7A    -20.574492     8A    -20.574016     9A    -20.573384
      10A    -20.522964    11A    -11.320498    12A    -11.303334
      13A    -11.300337    14A    -11.299222    15A    -11.298467
      16A    -11.296583    17A    -11.291338    18A    -11.230708
      19A     -7.631420    20A     -5.529919    21A     -5.529605
      22A     -5.528341    23A     -1.461075    24A     -1.410778
      25A     -1.394479    26A     -1.392775    27A     -1.388043
      28A     -1.372589    29A     -1.363842    30A     -1.353737
      31A     -1.303429    32A     -1.118886    33A     -1.041941
      34A     -1.011822    35A     -1.003305    36A     -0.880682
      37A     -0.866069    38A     -0.858918    39A     -0.821811
      40A     -0.810469    41A     -0.751581    42A     -0.745221
      43A     -0.731562    44A     -0.729187    45A     -0.707784
      46A     -0.687145    47A     -0.678057    48A     -0.673695
      49A     -0.662096    50A     -0.660700    51A     -0.642941
      52A     -0.634764    53A     -0.627749    54A     -0.615865
      55A     -0.603334    56A     -0.598350    57A     -0.581634
      58A     -0.577162    59A     -0.571177    60A     -0.559117
      61A     -0.556409    62A     -0.550043    63A     -0.541707
      64A     -0.536505    65A     -0.529159    66A     -0.521975
      67A     -0.512931    68A     -0.504102    69A     -0.496700
      70A     -0.484751    71A     -0.479688    72A     -0.476437
      73A     -0.462180    74A     -0.455792    75A     -0.449876
      76A     -0.436153

  @DF-RHF Final Energy: -1327.86207907281573

   => Energetics <=

    Nuclear Repulsion Energy =           1772.8306965672263686
    One-Electron Energy =               -5357.8111391620122959
    Two-Electron Energy =                2257.1183635219699681
    Total Energy =                      -1327.8620790728159591
  Basis Set: (AUG-CC-PVTZ AUX)
    Blend: AUG-CC-PVTZ-RI
    Molecular point group: c1

    Geometry (in Angstrom), charge = 0, multiplicity = 1:

       Center              X                  Y                   Z               Mass
    ------------   -----------------  -----------------  -----------------  -----------------
         P           -2.290183786852    -0.940399433286     0.343731576043    30.973761998420
         O           -0.982240786852    -0.201918433286     0.937342576043    15.994914619570
         O            1.342162213148    -1.675839433286     1.229904576043    15.994914619570
         O            0.078617213148     2.359247566714     0.461221576043    15.994914619570
         O            3.068427213148    -2.187428433286    -0.809536423957    15.994914619570
         O            2.847247213148     2.502756566714     0.370588576043    15.994914619570
         O            4.195600213148     0.435040566714    -0.973820423957    15.994914619570
         O           -2.824085386852     0.030865566714    -0.796205123957    15.994914619570
         O           -3.259208786852    -0.723638433286     1.620724576043    15.994914619570
         O           -2.119080786852    -2.344000433286    -0.100614423957    15.994914619570
         C            0.118074213148     0.029652566714     0.015372576043    12.000000000000
         C            0.953204213148    -1.244561433286    -0.076671423957    12.000000000000
         C            0.898501213148     1.202287566714     0.563904576043    12.000000000000
         C            2.259572213148    -1.014663433286    -0.818983423957    12.000000000000
         C            2.176987213148     1.396115566714    -0.228987423957    12.000000000000
         C            3.025754213148     0.148348566714    -0.211268423957    12.000000000000
         C           -3.124300786852     1.431241566714    -0.489832423957    12.000000000000
         C           -3.538115986852     2.096202966714    -1.778704523957    12.000000000000
         H           -0.283179786852     0.298444566714    -0.971184423957     1.007825032230
         H            0.370181213148    -2.029720433286    -0.572978423957     1.007825032230
         H            1.157032213148     0.997520566714     1.611209576043     1.007825032230
         H            2.060846213148    -0.789016433286    -1.873702423957     1.007825032230
         H            1.916899213148     1.635930566714    -1.274529423957     1.007825032230
         H            3.295767213148    -0.094888433286     0.826699576043     1.007825032230
         H            0.521687213148    -1.888388433286     1.710563576043     1.007825032230
         H            0.665452213148     3.108954566714     0.682237576043     1.007825032230
         H            2.973455213148    -2.547730433286     0.093707576043     1.007825032230
         H            3.721341213148     2.548829566714    -0.059815423957     1.007825032230
         H            4.639639213148    -0.424190433286    -1.098033423957     1.007825032230
         H           -3.808482786852    -1.522694433286     1.733781576043     1.007825032230
         H           -3.930633786852     1.445184566714     0.248439576043     1.007825032230
         H           -2.229849786852     1.892523566714    -0.060042423957     1.007825032230
         H           -3.800608786852     3.130525566714    -1.603617423957     1.007825032230
         H           -2.717283786852     2.052966566714    -2.505821423957     1.007825032230
         H           -4.401031786852     1.573966566714    -2.213670423957     1.007825032230

  Basis Set: AUG-CC-PVTZ
    Blend: AUG-CC-PVTZ
  Basis Set: (AUG-CC-PVTZ AUX)
    Blend: AUG-CC-PVTZ-JKFIT
	 Reference Energy          =   -1327.8620790728157317 [Eh]
	 Singles Energy            =      -0.0000000000000000 [Eh]
	 Same-Spin Energy          =      -1.0144227389151594 [Eh]
	 Opposite-Spin Energy      =      -3.0756173178598365 [Eh]
	 Correlation Energy        =      -4.0900400567749955 [Eh]
	 Total Energy              =   -1331.9521191295907556 [Eh]

	 ================> DF-SCS-MP2 Energies <==================
	-----------------------------------------------------------
	 SCS Same-Spin Scale       =       0.3333333333333333 [-]
	 SCS Opposite-Spin Scale   =       1.2000000000000000 [-]
	 SCS Same-Spin Energy      =      -0.3381409129717198 [Eh]
	 SCS Opposite-Spin Energy  =      -3.6907407814318036 [Eh]
	 SCS Correlation Energy    =      -4.0288816944035233 [Eh]
	 SCS Total Energy          =   -1331.8909607672192124 [Eh]
	-----------------------------------------------------------

  Dipole Moment: [D]
     X:    -1.1447      Y:     1.9033      Z:     0.6775     Total:     2.3220

*** Psi4 exiting successfully. Buy a developer a beer!
