                               Psi4 1.4a3.dev225

  ==> Input File <==

--------------------------------------------------------------------------
#psi4
#
memory 32 gb

molecule  {
0 1
  P       -2.3219140    -1.0563120    -0.0968450
  O       -1.0285840    -0.5623410     0.7549430
  O        1.3695440    -1.8069540     1.2202350
  O       -0.1592450     2.1412630     0.5207450
  O        3.3269040    -2.0858120    -0.6453880
  O        2.5724350     2.5270130     0.6374560
  O        4.2203020     0.6406430    -0.6358120
  O       -2.8737010     0.2643620    -0.8096810
  O       -3.3065970    -1.3497020     1.1531960
  O       -2.1015194    -2.1966420    -1.0477196
  C        0.1200290    -0.1583450    -0.0432010
  C        1.0698050    -1.3527180    -0.1046720
  C        0.7441670     1.0454510     0.6308160
  C        2.4193320    -0.9866070    -0.7068450
  C        2.0603010     1.3853380    -0.0470020
  C        3.0180900     0.2181970     0.0056710
  C       -3.2473180     1.4231610     0.0025120
  C       -3.2076300     2.6262440    -0.9075720
  H       -0.2047330     0.1313700    -1.0514980
  H        0.5965010    -2.1549610    -0.6866410
  H        0.9371260     0.8063110     1.6860210
  H        2.3054700    -0.7437210    -1.7704410
  H        1.8633300     1.6367370    -1.1028410
  H        3.2142070    -0.0417910     1.0561650
  H        0.5126160    -2.0057500     1.6426110
  H        0.3598300     2.9232990     0.7925780
  H        3.1793900    -2.4823080     0.2360710
  H        3.4672560     2.6739710     0.2770410
  H        4.7639490    -0.1654590    -0.7244900
  H       -3.7873380    -2.1826420     0.9908450
  H       -4.2474700     1.2335250     0.4005830
  H       -2.5352900     1.5309660     0.8217280
  H       -3.5402110     3.5125760    -0.3587690
  H       -2.1856630     2.7912820    -1.2511950
  H       -3.8637180     2.4807570    -1.7684970
units angstrom
no_reorient  #important for SAPT in psi4, default
symmetry c1  #important for SAPT in psi4, default
}

set PROPERTIES_ORIGIN ["COM"]
properties('MP2/aug-cc-pvtz', properties = ['dipole'])
--------------------------------------------------------------------------

    Molecular point group: c1
  Charge       = 0
  Multiplicity = 1
  Basis Set: AUG-CC-PVTZ
    Blend: AUG-CC-PVTZ
  Basis Set: (AUG-CC-PVTZ AUX)
    Blend: AUG-CC-PVTZ-JKFIT

    Orbital Energies [Eh]
    ---------------------

    Doubly Occupied:

       1A    -80.120463     2A    -20.616412     3A    -20.609373
       4A    -20.597267     5A    -20.584201     6A    -20.578703
       7A    -20.575431     8A    -20.575205     9A    -20.574988
      10A    -20.523101    11A    -11.321845    12A    -11.305285
      13A    -11.300942    14A    -11.300370    15A    -11.298611
      16A    -11.296912    17A    -11.293132    18A    -11.223401
      19A     -7.634920    20A     -5.533545    21A     -5.533040
      22A     -5.531721    23A     -1.458744    24A     -1.411260
      25A     -1.395826    26A     -1.393140    27A     -1.386214
      28A     -1.373140    29A     -1.364413    30A     -1.354425
      31A     -1.294318    32A     -1.119046    33A     -1.036205
      34A     -1.011734    35A     -1.003749    36A     -0.878486
      37A     -0.863020    38A     -0.859777    39A     -0.823688
      40A     -0.810394    41A     -0.754910    42A     -0.746269
      43A     -0.729527    44A     -0.726519    45A     -0.706144
      46A     -0.687306    47A     -0.679757    48A     -0.674447
      49A     -0.662494    50A     -0.659574    51A     -0.642511
      52A     -0.637771    53A     -0.624012    54A     -0.613534
      55A     -0.604630    56A     -0.597086    57A     -0.579989
      58A     -0.577710    59A     -0.570825    60A     -0.559917
      61A     -0.554224    62A     -0.548357    63A     -0.538791
      64A     -0.537670    65A     -0.530572    66A     -0.517728
      67A     -0.509063    68A     -0.503756    69A     -0.493984
      70A     -0.487410    71A     -0.477374    72A     -0.472423
      73A     -0.461989    74A     -0.457462    75A     -0.450939
      76A     -0.436668

  @DF-RHF Final Energy: -1327.85845849759880

   => Energetics <=

    Nuclear Repulsion Energy =           1773.6061744000846829
    One-Electron Energy =               -5359.3696802149806899
    Two-Electron Energy =                2257.9050473172974307
    Total Energy =                      -1327.8584584975988037
  Basis Set: (AUG-CC-PVTZ AUX)
    Blend: AUG-CC-PVTZ-RI
    Molecular point group: c1

    Geometry (in Angstrom), charge = 0, multiplicity = 1:

       Center              X                  Y                   Z               Mass
    ------------   -----------------  -----------------  -----------------  -----------------
         P           -2.311315675123    -1.017689277073    -0.098585983746    30.973761998420
         O           -1.017985675123    -0.523718277073     0.753202016254    15.994914619570
         O            1.380142324877    -1.768331277073     1.218494016254    15.994914619570
         O           -0.148646675123     2.179885722927     0.519004016254    15.994914619570
         O            3.337502324877    -2.047189277073    -0.647128983746    15.994914619570
         O            2.583033324877     2.565635722927     0.635715016254    15.994914619570
         O            4.230900324877     0.679265722927    -0.637552983746    15.994914619570
         O           -2.863102675123     0.302984722927    -0.811421983746    15.994914619570
         O           -3.295998675123    -1.311079277073     1.151455016254    15.994914619570
         O           -2.090921075123    -2.158019277073    -1.049460583746    15.994914619570
         C            0.130627324877    -0.119722277073    -0.044941983746    12.000000000000
         C            1.080403324877    -1.314095277073    -0.106412983746    12.000000000000
         C            0.754765324877     1.084073722927     0.629075016254    12.000000000000
         C            2.429930324877    -0.947984277073    -0.708585983746    12.000000000000
         C            2.070899324877     1.423960722927    -0.048742983746    12.000000000000
         C            3.028688324877     0.256819722927     0.003930016254    12.000000000000
         C           -3.236719675123     1.461783722927     0.000771016254    12.000000000000
         C           -3.197031675123     2.664866722927    -0.909312983746    12.000000000000
         H           -0.194134675123     0.169992722927    -1.053238983746     1.007825032230
         H            0.607099324877    -2.116338277073    -0.688381983746     1.007825032230
         H            0.947724324877     0.844933722927     1.684280016254     1.007825032230
         H            2.316068324877    -0.705098277073    -1.772181983746     1.007825032230
         H            1.873928324877     1.675359722927    -1.104581983746     1.007825032230
         H            3.224805324877    -0.003168277073     1.054424016254     1.007825032230
         H            0.523214324877    -1.967127277073     1.640870016254     1.007825032230
         H            0.370428324877     2.961921722927     0.790837016254     1.007825032230
         H            3.189988324877    -2.443685277073     0.234330016254     1.007825032230
         H            3.477854324877     2.712593722927     0.275300016254     1.007825032230
         H            4.774547324877    -0.126836277073    -0.726230983746     1.007825032230
         H           -3.776739675123    -2.144019277073     0.989104016254     1.007825032230
         H           -4.236871675123     1.272147722927     0.398842016254     1.007825032230
         H           -2.524691675123     1.569588722927     0.819987016254     1.007825032230
         H           -3.529612675123     3.551198722927    -0.360509983746     1.007825032230
         H           -2.175064675123     2.829904722927    -1.252935983746     1.007825032230
         H           -3.853119675123     2.519379722927    -1.770237983746     1.007825032230

  Basis Set: AUG-CC-PVTZ
    Blend: AUG-CC-PVTZ
  Basis Set: (AUG-CC-PVTZ AUX)
    Blend: AUG-CC-PVTZ-JKFIT
	 Reference Energy          =   -1327.8584584975988037 [Eh]
	 Singles Energy            =      -0.0000000000000000 [Eh]
	 Same-Spin Energy          =      -1.0151820476138518 [Eh]
	 Opposite-Spin Energy      =      -3.0776920316540766 [Eh]
	 Correlation Energy        =      -4.0928740792679283 [Eh]
	 Total Energy              =   -1331.9513325768666618 [Eh]

	 ================> DF-SCS-MP2 Energies <==================
	-----------------------------------------------------------
	 SCS Same-Spin Scale       =       0.3333333333333333 [-]
	 SCS Opposite-Spin Scale   =       1.2000000000000000 [-]
	 SCS Same-Spin Energy      =      -0.3383940158712839 [Eh]
	 SCS Opposite-Spin Energy  =      -3.6932304379848917 [Eh]
	 SCS Correlation Energy    =      -4.0316244538561756 [Eh]
	 SCS Total Energy          =   -1331.8900829514550423 [Eh]
	-----------------------------------------------------------

  Dipole Moment: [D]
     X:    -0.8693      Y:     1.4987      Z:     1.9327     Total:     2.5956

*** Psi4 exiting successfully. Buy a developer a beer!
