                               Psi4 1.3.2 release

  ==> Input File <==

--------------------------------------------------------------------------
#psi4
#
memory 32 gb

molecule  {
0 1
  P       -2.2900960    -0.9400430     0.3446780
  O       -0.9821530    -0.2015620     0.9382890
  O        1.3422500    -1.6754830     1.2308510
  O        0.0787050     2.3596040     0.4621680
  O        3.0685150    -2.1870720    -0.8085900
  O        2.8473350     2.5031130     0.3715350
  O        4.1998702     0.4238873    -0.9706838
  O       -2.8268630     0.0333510    -0.8075310
  O       -3.2591210    -0.7232820     1.6216710
  O       -2.1189930    -2.3436440    -0.0996680
  C        0.1181620     0.0300090     0.0163190
  C        0.9532920    -1.2442050    -0.0757250
  C        0.8985890     1.2026440     0.5648510
  C        2.2596600    -1.0143070    -0.8180370
  C        2.1680538     1.3903712    -0.2206349
  C        3.0258420     0.1487050    -0.2103220
  C       -3.1242130     1.4315980    -0.4888860
  C       -3.5363170     2.0851650    -1.7841190
  H       -0.2830920     0.2988010    -0.9702380
  H        0.3702690    -2.0293640    -0.5720320
  H        1.1571200     0.9978770     1.6121560
  H        2.0609340    -0.7886600    -1.8727560
  H        1.9169870     1.6362870    -1.2735830
  H        3.2958550    -0.0945320     0.8276460
  H        0.5217750    -1.8880320     1.7115100
  H        0.6655400     3.1093110     0.6831840
  H        2.9735430    -2.5473740     0.0946540
  H        3.7214290     2.5491860    -0.0588690
  H        4.6397270    -0.4238340    -1.0970870
  H       -3.8083950    -1.5223380     1.7347280
  H       -3.9305460     1.4455410     0.2493860
  H       -2.2297620     1.8928800    -0.0590960
  H       -3.8005210     3.1308820    -1.6026710
  H       -2.7171960     2.0533230    -2.5048750
  H       -4.4009440     1.5743230    -2.2127240
units angstrom
no_reorient  #important for SAPT in psi4, default
symmetry c1  #important for SAPT in psi4, default
}

set PROPERTIES_ORIGIN ["COM"]
properties('MP2/aug-cc-pvtz', properties = ['dipole'])
--------------------------------------------------------------------------

    Molecular point group: c1
  Charge       = 0
  Multiplicity = 1
  Basis Set: AUG-CC-PVTZ
    Blend: AUG-CC-PVTZ
  Basis Set: (AUG-CC-PVTZ AUX)
    Blend: AUG-CC-PVTZ-JKFIT

    Orbital Energies [Eh]
    ---------------------

    Doubly Occupied:

       1A    -80.117114     2A    -20.614874     3A    -20.607292
       4A    -20.599094     5A    -20.583252     6A    -20.576189
       7A    -20.574382     8A    -20.574026     9A    -20.572988
      10A    -20.523577    11A    -11.321199    12A    -11.303660
      13A    -11.299532    14A    -11.299273    15A    -11.298933
      16A    -11.297507    17A    -11.291974    18A    -11.229970
      19A     -7.632564    20A     -5.531070    21A     -5.530698
      22A     -5.529495    23A     -1.460487    24A     -1.410988
      25A     -1.394692    26A     -1.392908    27A     -1.387044
      28A     -1.373621    29A     -1.363501    30A     -1.353952
      31A     -1.303974    32A     -1.120671    33A     -1.040598
      34A     -1.012746    35A     -1.004931    36A     -0.881292
      37A     -0.865290    38A     -0.859139    39A     -0.822547
      40A     -0.810702    41A     -0.751782    42A     -0.745561
      43A     -0.732057    44A     -0.728746    45A     -0.708004
      46A     -0.687406    47A     -0.678391    48A     -0.674234
      49A     -0.663438    50A     -0.661200    51A     -0.643042
      52A     -0.636208    53A     -0.627281    54A     -0.615256
      55A     -0.603606    56A     -0.598499    57A     -0.581731
      58A     -0.575689    59A     -0.571243    60A     -0.558876
      61A     -0.556188    62A     -0.548793    63A     -0.541259
      64A     -0.536002    65A     -0.530136    66A     -0.522366
      67A     -0.513014    68A     -0.504309    69A     -0.497538
      70A     -0.485216    71A     -0.480031    72A     -0.476751
      73A     -0.463671    74A     -0.455980    75A     -0.450471
      76A     -0.436200

  @DF-RHF Final Energy: -1327.86180730398655

   => Energetics <=

    Nuclear Repulsion Energy =           1772.6439789239757374
    One-Electron Energy =               -5357.3957201344001078
    Two-Electron Energy =                2256.8899339064378182
    Total Energy =                      -1327.8618073039865521
  Basis Set: (AUG-CC-PVTZ AUX)
    Blend: AUG-CC-PVTZ-RI
    Molecular point group: c1

    Geometry (in Angstrom), charge = 0, multiplicity = 1:

       Center              X                  Y                   Z               Mass
    ------------   -----------------  -----------------  -----------------  -----------------
         P           -2.289952384851    -0.939149747033     0.344247855299    30.973761998420
         O           -0.982009384851    -0.200668747033     0.937858855299    15.994914619570
         O            1.342393615149    -1.674589747033     1.230420855299    15.994914619570
         O            0.078848615149     2.360497252967     0.461737855299    15.994914619570
         O            3.068658615149    -2.186178747033    -0.809020144701    15.994914619570
         O            2.847478615149     2.504006252967     0.371104855299    15.994914619570
         O            4.200013815149     0.424780552967    -0.971113944701    15.994914619570
         O           -2.826719384851     0.034244252967    -0.807961144701    15.994914619570
         O           -3.258977384851    -0.722388747033     1.621240855299    15.994914619570
         O           -2.118849384851    -2.342750747033    -0.100098144701    15.994914619570
         C            0.118305615149     0.030902252967     0.015888855299    12.000000000000
         C            0.953435615149    -1.243311747033    -0.076155144701    12.000000000000
         C            0.898732615149     1.203537252967     0.564420855299    12.000000000000
         C            2.259803615149    -1.013413747033    -0.818467144701    12.000000000000
         C            2.168197415149     1.391264452967    -0.221065044701    12.000000000000
         C            3.025985615149     0.149598252967    -0.210752144701    12.000000000000
         C           -3.124069384851     1.432491252967    -0.489316144701    12.000000000000
         C           -3.536173384851     2.086058252967    -1.784549144701    12.000000000000
         H           -0.282948384851     0.299694252967    -0.970668144701     1.007825032230
         H            0.370412615149    -2.028470747033    -0.572462144701     1.007825032230
         H            1.157263615149     0.998770252967     1.611725855299     1.007825032230
         H            2.061077615149    -0.787766747033    -1.873186144701     1.007825032230
         H            1.917130615149     1.637180252967    -1.274013144701     1.007825032230
         H            3.295998615149    -0.093638747033     0.827215855299     1.007825032230
         H            0.521918615149    -1.887138747033     1.711079855299     1.007825032230
         H            0.665683615149     3.110204252967     0.682753855299     1.007825032230
         H            2.973686615149    -2.546480747033     0.094223855299     1.007825032230
         H            3.721572615149     2.550079252967    -0.059299144701     1.007825032230
         H            4.639870615149    -0.422940747033    -1.097517144701     1.007825032230
         H           -3.808251384851    -1.521444747033     1.734297855299     1.007825032230
         H           -3.930402384851     1.446434252967     0.248955855299     1.007825032230
         H           -2.229618384851     1.893773252967    -0.059526144701     1.007825032230
         H           -3.800377384851     3.131775252967    -1.603101144701     1.007825032230
         H           -2.717052384851     2.054216252967    -2.505305144701     1.007825032230
         H           -4.400800384851     1.575216252967    -2.213154144701     1.007825032230

  Basis Set: AUG-CC-PVTZ
    Blend: AUG-CC-PVTZ
  Basis Set: (AUG-CC-PVTZ AUX)
    Blend: AUG-CC-PVTZ-JKFIT
	 Reference Energy          =   -1327.8618073039865521 [Eh]
	 Singles Energy            =      -0.0000000000000000 [Eh]
	 Same-Spin Energy          =      -1.0144805850045191 [Eh]
	 Opposite-Spin Energy      =      -3.0757460209707332 [Eh]
	 Correlation Energy        =      -4.0902266059752526 [Eh]
	 Total Energy              =   -1331.9520339099617559 [Eh]

	 ================> DF-SCS-MP2 Energies <==================
	-----------------------------------------------------------
	 SCS Same-Spin Scale       =       0.3333333333333333 [-]
	 SCS Opposite-Spin Scale   =       1.2000000000000000 [-]
	 SCS Same-Spin Energy      =      -0.3381601950015063 [Eh]
	 SCS Opposite-Spin Energy  =      -3.6908952251648799 [Eh]
	 SCS Correlation Energy    =      -4.0290554201663866 [Eh]
	 SCS Total Energy          =   -1331.8908627241528393 [Eh]
	-----------------------------------------------------------

  Dipole Moment: [D]
     X:    -1.1462      Y:     1.8613      Z:     0.7231     Total:     2.3024

*** Psi4 exiting successfully. Buy a developer a beer!
