                               Psi4 1.3.2 release

  ==> Input File <==

--------------------------------------------------------------------------
#psi4
#
memory 32 gb

molecule  {
0 1
  P       -2.2900960    -0.9400430     0.3446780
  O       -0.9821530    -0.2015620     0.9382890
  O        1.3302288    -1.6764146     1.2340626
  O        0.0787050     2.3596040     0.4621680
  O        3.0685150    -2.1870720    -0.8085900
  O        2.8473350     2.5031130     0.3715350
  O        4.1956880     0.4353970    -0.9728740
  O       -2.8268630     0.0333510    -0.8075310
  O       -3.2591210    -0.7232820     1.6216710
  O       -2.1189930    -2.3436440    -0.0996680
  C        0.1181620     0.0300090     0.0163190
  C        0.9532920    -1.2442050    -0.0757250
  C        0.8985890     1.2026440     0.5648510
  C        2.2528300    -1.0107104    -0.8288244
  C        2.1770750     1.3964720    -0.2280410
  C        3.0258420     0.1487050    -0.2103220
  C       -3.1242130     1.4315980    -0.4888860
  C       -3.5363170     2.0851650    -1.7841190
  H       -0.2830920     0.2988010    -0.9702380
  H        0.3702690    -2.0293640    -0.5720320
  H        1.1571200     0.9978770     1.6121560
  H        2.0609340    -0.7886600    -1.8727560
  H        1.9169870     1.6362870    -1.2735830
  H        3.2958550    -0.0945320     0.8276460
  H        0.5217750    -1.8880320     1.7115100
  H        0.6655400     3.1093110     0.6831840
  H        2.9735430    -2.5473740     0.0946540
  H        3.7214290     2.5491860    -0.0588690
  H        4.6397270    -0.4238340    -1.0970870
  H       -3.8083950    -1.5223380     1.7347280
  H       -3.9305460     1.4455410     0.2493860
  H       -2.2297620     1.8928800    -0.0590960
  H       -3.8005210     3.1308820    -1.6026710
  H       -2.7171960     2.0533230    -2.5048750
  H       -4.4009440     1.5743230    -2.2127240
units angstrom
no_reorient  #important for SAPT in psi4, default
symmetry c1  #important for SAPT in psi4, default
}

set PROPERTIES_ORIGIN ["COM"]
properties('MP2/aug-cc-pvtz', properties = ['dipole'])
--------------------------------------------------------------------------

    Molecular point group: c1
  Charge       = 0
  Multiplicity = 1
  Basis Set: AUG-CC-PVTZ
    Blend: AUG-CC-PVTZ
  Basis Set: (AUG-CC-PVTZ AUX)
    Blend: AUG-CC-PVTZ-JKFIT

    Orbital Energies [Eh]
    ---------------------

    Doubly Occupied:

       1A    -80.116799     2A    -20.614615     3A    -20.606772
       4A    -20.598850     5A    -20.581833     6A    -20.576824
       7A    -20.574249     8A    -20.573974     9A    -20.573497
      10A    -20.523279    11A    -11.320613    12A    -11.303909
      13A    -11.299626    14A    -11.299335    15A    -11.298646
      16A    -11.296694    17A    -11.292006    18A    -11.229848
      19A     -7.632248    20A     -5.530754    21A     -5.530381
      22A     -5.529179    23A     -1.460162    24A     -1.410745
      25A     -1.394902    26A     -1.392375    27A     -1.386730
      28A     -1.373123    29A     -1.363515    30A     -1.353408
      31A     -1.303679    32A     -1.119554    33A     -1.040419
      34A     -1.011832    35A     -1.004297    36A     -0.880201
      37A     -0.864879    38A     -0.859629    39A     -0.822438
      40A     -0.811994    41A     -0.751615    42A     -0.744968
      43A     -0.731433    44A     -0.728698    45A     -0.707876
      46A     -0.687015    47A     -0.679197    48A     -0.673509
      49A     -0.662452    50A     -0.660732    51A     -0.643151
      52A     -0.635120    53A     -0.626976    54A     -0.615572
      55A     -0.603669    56A     -0.598673    57A     -0.581780
      58A     -0.575615    59A     -0.570724    60A     -0.559347
      61A     -0.557000    62A     -0.548278    63A     -0.541210
      64A     -0.536830    65A     -0.530594    66A     -0.521966
      67A     -0.513191    68A     -0.504824    69A     -0.497036
      70A     -0.484818    71A     -0.479722    72A     -0.476495
      73A     -0.462363    74A     -0.455907    75A     -0.450095
      76A     -0.435915

  @DF-RHF Final Energy: -1327.86206300101435

   => Energetics <=

    Nuclear Repulsion Energy =           1772.4072191800353266
    One-Electron Energy =               -5356.9542060901148943
    Two-Electron Energy =                2256.6849239090652190
    Total Energy =                      -1327.8620630010145760
  Basis Set: (AUG-CC-PVTZ AUX)
    Blend: AUG-CC-PVTZ-RI
    Molecular point group: c1

    Geometry (in Angstrom), charge = 0, multiplicity = 1:

       Center              X                  Y                   Z               Mass
    ------------   -----------------  -----------------  -----------------  -----------------
         P           -2.289143953358    -0.940141080769     0.344949042828    30.973761998420
         O           -0.981200953358    -0.201660080769     0.938560042828    15.994914619570
         O            1.331180846642    -1.676512680769     1.234333642828    15.994914619570
         O            0.079657046642     2.359505919231     0.462439042828    15.994914619570
         O            3.069467046642    -2.187170080769    -0.808318957172    15.994914619570
         O            2.848287046642     2.503014919231     0.371806042828    15.994914619570
         O            4.196640046642     0.435298919231    -0.972602957172    15.994914619570
         O           -2.825910953358     0.033252919231    -0.807259957172    15.994914619570
         O           -3.258168953358    -0.723380080769     1.621942042828    15.994914619570
         O           -2.118040953358    -2.343742080769    -0.099396957172    15.994914619570
         C            0.119114046642     0.029910919231     0.016590042828    12.000000000000
         C            0.954244046642    -1.244303080769    -0.075453957172    12.000000000000
         C            0.899541046642     1.202545919231     0.565122042828    12.000000000000
         C            2.253782046642    -1.010808480769    -0.828553357172    12.000000000000
         C            2.178027046642     1.396373919231    -0.227769957172    12.000000000000
         C            3.026794046642     0.148606919231    -0.210050957172    12.000000000000
         C           -3.123260953358     1.431499919231    -0.488614957172    12.000000000000
         C           -3.535364953358     2.085066919231    -1.783847957172    12.000000000000
         H           -0.282139953358     0.298702919231    -0.969966957172     1.007825032230
         H            0.371221046642    -2.029462080769    -0.571760957172     1.007825032230
         H            1.158072046642     0.997778919231     1.612427042828     1.007825032230
         H            2.061886046642    -0.788758080769    -1.872484957172     1.007825032230
         H            1.917939046642     1.636188919231    -1.273311957172     1.007825032230
         H            3.296807046642    -0.094630080769     0.827917042828     1.007825032230
         H            0.522727046642    -1.888130080769     1.711781042828     1.007825032230
         H            0.666492046642     3.109212919231     0.683455042828     1.007825032230
         H            2.974495046642    -2.547472080769     0.094925042828     1.007825032230
         H            3.722381046642     2.549087919231    -0.058597957172     1.007825032230
         H            4.640679046642    -0.423932080769    -1.096815957172     1.007825032230
         H           -3.807442953358    -1.522436080769     1.734999042828     1.007825032230
         H           -3.929593953358     1.445442919231     0.249657042828     1.007825032230
         H           -2.228809953358     1.892781919231    -0.058824957172     1.007825032230
         H           -3.799568953358     3.130783919231    -1.602399957172     1.007825032230
         H           -2.716243953358     2.053224919231    -2.504603957172     1.007825032230
         H           -4.399991953358     1.574224919231    -2.212452957172     1.007825032230

  Basis Set: AUG-CC-PVTZ
    Blend: AUG-CC-PVTZ
  Basis Set: (AUG-CC-PVTZ AUX)
    Blend: AUG-CC-PVTZ-JKFIT
	 Reference Energy          =   -1327.8620630010143486 [Eh]
	 Singles Energy            =      -0.0000000000000000 [Eh]
	 Same-Spin Energy          =      -1.0143294590564589 [Eh]
	 Opposite-Spin Energy      =      -3.0756221204577909 [Eh]
	 Correlation Energy        =      -4.0899515795142500 [Eh]
	 Total Energy              =   -1331.9520145805286120 [Eh]

	 ================> DF-SCS-MP2 Energies <==================
	-----------------------------------------------------------
	 SCS Same-Spin Scale       =       0.3333333333333333 [-]
	 SCS Opposite-Spin Scale   =       1.2000000000000000 [-]
	 SCS Same-Spin Energy      =      -0.3381098196854863 [Eh]
	 SCS Opposite-Spin Energy  =      -3.6907465445493490 [Eh]
	 SCS Correlation Energy    =      -4.0288563642348354 [Eh]
	 SCS Total Energy          =   -1331.8909193652491467 [Eh]
	-----------------------------------------------------------

  Dipole Moment: [D]
     X:    -1.0992      Y:     1.8800      Z:     0.6978     Total:     2.2869

*** Psi4 exiting successfully. Buy a developer a beer!
