                               Psi4 1.4a3.dev225

  ==> Input File <==

--------------------------------------------------------------------------
#psi4
#
memory 32 gb

molecule  {
0 1
  P       -2.3219140    -1.0563120    -0.0968450
  O       -1.0285840    -0.5623410     0.7549430
  O        1.3695440    -1.8069540     1.2202350
  O       -0.1592450     2.1412630     0.5207450
  O        3.3269040    -2.0858120    -0.6453880
  O        2.5724350     2.5270130     0.6374560
  O        4.2203020     0.6406430    -0.6358120
  O       -2.8737010     0.2643620    -0.8096810
  O       -3.3065970    -1.3497020     1.1531960
  O       -2.1044560    -2.1814480    -1.0350500
  C        0.1200290    -0.1583450    -0.0432010
  C        1.0698050    -1.3527180    -0.1046720
  C        0.7441670     1.0454510     0.6308160
  C        2.4193320    -0.9866070    -0.7068450
  C        2.0603010     1.3853380    -0.0470020
  C        3.0180900     0.2181970     0.0056710
  C       -3.2473180     1.4231610     0.0025120
  C       -3.2076300     2.6262440    -0.9075720
  H       -0.2047330     0.1313700    -1.0514980
  H        0.5965010    -2.1549610    -0.6866410
  H        0.9371260     0.8063110     1.6860210
  H        2.3075461    -0.7481496    -1.7510483
  H        1.8633300     1.6367370    -1.1028410
  H        3.2142070    -0.0417910     1.0561650
  H        0.5126160    -2.0057500     1.6426110
  H        0.3598300     2.9232990     0.7925780
  H        3.1793900    -2.4823080     0.2360710
  H        3.4672560     2.6739710     0.2770410
  H        4.7639490    -0.1654590    -0.7244900
  H       -3.7873380    -2.1826420     0.9908450
  H       -4.2474700     1.2335250     0.4005830
  H       -2.5352900     1.5309660     0.8217280
  H       -3.5402110     3.5125760    -0.3587690
  H       -2.1856630     2.7912820    -1.2511950
  H       -3.8637180     2.4807570    -1.7684970
units angstrom
no_reorient  #important for SAPT in psi4, default
symmetry c1  #important for SAPT in psi4, default
}

set PROPERTIES_ORIGIN ["COM"]
properties('MP2/aug-cc-pvtz', properties = ['dipole'])
--------------------------------------------------------------------------

    Molecular point group: c1
  Charge       = 0
  Multiplicity = 1
  Basis Set: AUG-CC-PVTZ
    Blend: AUG-CC-PVTZ
  Basis Set: (AUG-CC-PVTZ AUX)
    Blend: AUG-CC-PVTZ-JKFIT

    Orbital Energies [Eh]
    ---------------------

    Doubly Occupied:

       1A    -80.116856     2A    -20.615027     3A    -20.608118
       4A    -20.596056     5A    -20.584004     6A    -20.578545
       7A    -20.575366     8A    -20.574916     9A    -20.574676
      10A    -20.522569    11A    -11.321455    12A    -11.305127
      13A    -11.300639    14A    -11.298440    15A    -11.297953
      16A    -11.296179    17A    -11.292851    18A    -11.222928
      19A     -7.632119    20A     -5.530653    21A     -5.530151
      22A     -5.529089    23A     -1.458525    24A     -1.410908
      25A     -1.395467    26A     -1.392685    27A     -1.385214
      28A     -1.372744    29A     -1.364195    30A     -1.354243
      31A     -1.302753    32A     -1.119026    33A     -1.035544
      34A     -1.011549    35A     -1.004187    36A     -0.877777
      37A     -0.862416    38A     -0.860511    39A     -0.823247
      40A     -0.810908    41A     -0.754545    42A     -0.746142
      43A     -0.729158    44A     -0.726175    45A     -0.705678
      46A     -0.687036    47A     -0.679367    48A     -0.674339
      49A     -0.662371    50A     -0.659476    51A     -0.642111
      52A     -0.637766    53A     -0.623841    54A     -0.613168
      55A     -0.604324    56A     -0.597570    57A     -0.580950
      58A     -0.577749    59A     -0.570439    60A     -0.560204
      61A     -0.555561    62A     -0.548206    63A     -0.538672
      64A     -0.538225    65A     -0.530581    66A     -0.518026
      67A     -0.508632    68A     -0.503621    69A     -0.494740
      70A     -0.487601    71A     -0.478707    72A     -0.475521
      73A     -0.462701    74A     -0.457273    75A     -0.451029
      76A     -0.436714

  @DF-RHF Final Energy: -1327.86104964812739

   => Energetics <=

    Nuclear Repulsion Energy =           1774.7428597297314354
    One-Electron Energy =               -5361.6801508941189240
    Two-Electron Energy =                2259.0762415162603247
    Total Energy =                      -1327.8610496481273913
  Basis Set: (AUG-CC-PVTZ AUX)
    Blend: AUG-CC-PVTZ-RI
    Molecular point group: c1

    Geometry (in Angstrom), charge = 0, multiplicity = 1:

       Center              X                  Y                   Z               Mass
    ------------   -----------------  -----------------  -----------------  -----------------
         P           -2.311159880629    -1.018517447019    -0.099357325941    30.973761998420
         O           -1.017829880629    -0.524546447019     0.752430674059    15.994914619570
         O            1.380298119371    -1.769159447019     1.217722674059    15.994914619570
         O           -0.148490880629     2.179057552981     0.518232674059    15.994914619570
         O            3.337658119371    -2.048017447019    -0.647900325941    15.994914619570
         O            2.583189119371     2.564807552981     0.634943674059    15.994914619570
         O            4.231056119371     0.678437552981    -0.638324325941    15.994914619570
         O           -2.862946880629     0.302156552981    -0.812193325941    15.994914619570
         O           -3.295842880629    -1.311907447019     1.150683674059    15.994914619570
         O           -2.093701880629    -2.143653447019    -1.037562325941    15.994914619570
         C            0.130783119371    -0.120550447019    -0.045713325941    12.000000000000
         C            1.080559119371    -1.314923447019    -0.107184325941    12.000000000000
         C            0.754921119371     1.083245552981     0.628303674059    12.000000000000
         C            2.430086119371    -0.948812447019    -0.709357325941    12.000000000000
         C            2.071055119371     1.423132552981    -0.049514325941    12.000000000000
         C            3.028844119371     0.255991552981     0.003158674059    12.000000000000
         C           -3.236563880629     1.460955552981    -0.000000325941    12.000000000000
         C           -3.196875880629     2.664038552981    -0.910084325941    12.000000000000
         H           -0.193978880629     0.169164552981    -1.054010325941     1.007825032230
         H            0.607255119371    -2.117166447019    -0.689153325941     1.007825032230
         H            0.947880119371     0.844105552981     1.683508674059     1.007825032230
         H            2.318300219371    -0.710355047019    -1.753560625941     1.007825032230
         H            1.874084119371     1.674531552981    -1.105353325941     1.007825032230
         H            3.224961119371    -0.003996447019     1.053652674059     1.007825032230
         H            0.523370119371    -1.967955447019     1.640098674059     1.007825032230
         H            0.370584119371     2.961093552981     0.790065674059     1.007825032230
         H            3.190144119371    -2.444513447019     0.233558674059     1.007825032230
         H            3.478010119371     2.711765552981     0.274528674059     1.007825032230
         H            4.774703119371    -0.127664447019    -0.727002325941     1.007825032230
         H           -3.776583880629    -2.144847447019     0.988332674059     1.007825032230
         H           -4.236715880629     1.271319552981     0.398070674059     1.007825032230
         H           -2.524535880629     1.568760552981     0.819215674059     1.007825032230
         H           -3.529456880629     3.550370552981    -0.361281325941     1.007825032230
         H           -2.174908880629     2.829076552981    -1.253707325941     1.007825032230
         H           -3.852963880629     2.518551552981    -1.771009325941     1.007825032230

  Basis Set: AUG-CC-PVTZ
    Blend: AUG-CC-PVTZ
  Basis Set: (AUG-CC-PVTZ AUX)
    Blend: AUG-CC-PVTZ-JKFIT
	 Reference Energy          =   -1327.8610496481273913 [Eh]
	 Singles Energy            =      -0.0000000000000000 [Eh]
	 Same-Spin Energy          =      -1.0146774223311279 [Eh]
	 Opposite-Spin Energy      =      -3.0764251027303740 [Eh]
	 Correlation Energy        =      -4.0911025250615021 [Eh]
	 Total Energy              =   -1331.9521521731890061 [Eh]

	 ================> DF-SCS-MP2 Energies <==================
	-----------------------------------------------------------
	 SCS Same-Spin Scale       =       0.3333333333333333 [-]
	 SCS Opposite-Spin Scale   =       1.2000000000000000 [-]
	 SCS Same-Spin Energy      =      -0.3382258074437093 [Eh]
	 SCS Opposite-Spin Energy  =      -3.6917101232764487 [Eh]
	 SCS Correlation Energy    =      -4.0299359307201579 [Eh]
	 SCS Total Energy          =   -1331.8909855788474488 [Eh]
	-----------------------------------------------------------

  Dipole Moment: [D]
     X:    -0.8660      Y:     1.4233      Z:     1.8724     Total:     2.5064

*** Psi4 exiting successfully. Buy a developer a beer!
