                               Psi4 1.3.2 release

  ==> Input File <==

--------------------------------------------------------------------------
#psi4
#
memory 32 gb

molecule  {
0 1
  P       -2.2900960    -0.9400430     0.3446780
  O       -0.9821530    -0.2015620     0.9382890
  O        1.3422500    -1.6754830     1.2308510
  O        0.0787050     2.3596040     0.4621680
  O        3.0685150    -2.1870720    -0.8085900
  O        2.8473350     2.5031130     0.3715350
  O        4.1956880     0.4353970    -0.9728740
  O       -2.8268630     0.0333510    -0.8075310
  O       -3.2591210    -0.7232820     1.6216710
  O       -2.1189930    -2.3436440    -0.0996680
  C        0.1181620     0.0300090     0.0163190
  C        0.9532920    -1.2442050    -0.0757250
  C        0.8985890     1.2026440     0.5648510
  C        2.3164345    -1.0966248    -0.8173739
  C        2.1770750     1.3964720    -0.2280410
  C        3.0258420     0.1487050    -0.2103220
  C       -3.1242130     1.4315980    -0.4888860
  C       -3.5363170     2.0851650    -1.7841190
  H       -0.2830920     0.2988010    -0.9702380
  H        0.3702690    -2.0293640    -0.5720320
  H        1.1571200     0.9978770     1.6121560
  H        2.0609340    -0.7886600    -1.8727560
  H        1.9169870     1.6362870    -1.2735830
  H        3.2958550    -0.0945320     0.8276460
  H        0.5217750    -1.8880320     1.7115100
  H        0.6655400     3.1093110     0.6831840
  H        2.9735430    -2.5473740     0.0946540
  H        3.7214290     2.5491860    -0.0588690
  H        4.6397270    -0.4238340    -1.0970870
  H       -3.8083950    -1.5223380     1.7347280
  H       -3.9305460     1.4455410     0.2493860
  H       -2.2297620     1.8928800    -0.0590960
  H       -3.8005210     3.1308820    -1.6026710
  H       -2.7171960     2.0533230    -2.5048750
  H       -4.4009440     1.5743230    -2.2127240
units angstrom
no_reorient  #important for SAPT in psi4, default
symmetry c1  #important for SAPT in psi4, default
}

set PROPERTIES_ORIGIN ["COM"]
properties('MP2/aug-cc-pvtz', properties = ['dipole'])
--------------------------------------------------------------------------

    Molecular point group: c1
  Charge       = 0
  Multiplicity = 1
  Basis Set: AUG-CC-PVTZ
    Blend: AUG-CC-PVTZ
  Basis Set: (AUG-CC-PVTZ AUX)
    Blend: AUG-CC-PVTZ-JKFIT

    Orbital Energies [Eh]
    ---------------------

    Doubly Occupied:

       1A    -80.116210     2A    -20.614136     3A    -20.606544
       4A    -20.598191     5A    -20.585752     6A    -20.581508
       7A    -20.576135     8A    -20.571921     9A    -20.571588
      10A    -20.522552    11A    -11.319935    12A    -11.301709
      13A    -11.300582    14A    -11.298677    15A    -11.296859
      16A    -11.295540    17A    -11.288220    18A    -11.229227
      19A     -7.631661    20A     -5.530167    21A     -5.529794
      22A     -5.528590    23A     -1.459610    24A     -1.432408
      25A     -1.402054    26A     -1.393185    27A     -1.386395
      28A     -1.373820    29A     -1.370790    30A     -1.355501
      31A     -1.302973    32A     -1.109925    33A     -1.039698
      34A     -1.006369    35A     -0.995556    36A     -0.877638
      37A     -0.863573    38A     -0.861756    39A     -0.822497
      40A     -0.811054    41A     -0.753603    42A     -0.745270
      43A     -0.731140    44A     -0.727971    45A     -0.707817
      46A     -0.688677    47A     -0.686267    48A     -0.673725
      49A     -0.664207    50A     -0.660958    51A     -0.645014
      52A     -0.636779    53A     -0.632257    54A     -0.618581
      55A     -0.605773    56A     -0.599834    57A     -0.582650
      58A     -0.575098    59A     -0.569928    60A     -0.560354
      61A     -0.555891    62A     -0.548190    63A     -0.545557
      64A     -0.538781    65A     -0.526988    66A     -0.519091
      67A     -0.511512    68A     -0.499581    69A     -0.494029
      70A     -0.479675    71A     -0.479014    72A     -0.474917
      73A     -0.460789    74A     -0.455321    75A     -0.448525
      76A     -0.419909

  @DF-RHF Final Energy: -1327.85272715318206

   => Energetics <=

    Nuclear Repulsion Energy =           1771.6072755181398861
    One-Electron Energy =               -5355.3520653956747992
    Two-Electron Energy =                2255.8920627243528543
    Total Energy =                      -1327.8527271531820588
  Basis Set: (AUG-CC-PVTZ AUX)
    Blend: AUG-CC-PVTZ-RI
    Molecular point group: c1

    Geometry (in Angstrom), charge = 0, multiplicity = 1:

       Center              X                  Y                   Z               Mass
    ------------   -----------------  -----------------  -----------------  -----------------
         P           -2.292461070234    -0.936613800540     0.344650367456    30.973761998420
         O           -0.984518070234    -0.198132800540     0.938261367456    15.994914619570
         O            1.339884929766    -1.672053800540     1.230823367456    15.994914619570
         O            0.076339929766     2.363033199460     0.462140367456    15.994914619570
         O            3.066149929766    -2.183642800540    -0.808617632544    15.994914619570
         O            2.844969929766     2.506542199460     0.371507367456    15.994914619570
         O            4.193322929766     0.438826199460    -0.972901632544    15.994914619570
         O           -2.829228070234     0.036780199460    -0.807558632544    15.994914619570
         O           -3.261486070234    -0.719852800540     1.621643367456    15.994914619570
         O           -2.121358070234    -2.340214800540    -0.099695632544    15.994914619570
         C            0.115796929766     0.033438199460     0.016291367456    12.000000000000
         C            0.950926929766    -1.240775800540    -0.075752632544    12.000000000000
         C            0.896223929766     1.206073199460     0.564823367456    12.000000000000
         C            2.314069429766    -1.093195600540    -0.817401532544    12.000000000000
         C            2.174709929766     1.399901199460    -0.228068632544    12.000000000000
         C            3.023476929766     0.152134199460    -0.210349632544    12.000000000000
         C           -3.126578070234     1.435027199460    -0.488913632544    12.000000000000
         C           -3.538682070234     2.088594199460    -1.784146632544    12.000000000000
         H           -0.285457070234     0.302230199460    -0.970265632544     1.007825032230
         H            0.367903929766    -2.025934800540    -0.572059632544     1.007825032230
         H            1.154754929766     1.001306199460     1.612128367456     1.007825032230
         H            2.058568929766    -0.785230800540    -1.872783632544     1.007825032230
         H            1.914621929766     1.639716199460    -1.273610632544     1.007825032230
         H            3.293489929766    -0.091102800540     0.827618367456     1.007825032230
         H            0.519409929766    -1.884602800540     1.711482367456     1.007825032230
         H            0.663174929766     3.112740199460     0.683156367456     1.007825032230
         H            2.971177929766    -2.543944800540     0.094626367456     1.007825032230
         H            3.719063929766     2.552615199460    -0.058896632544     1.007825032230
         H            4.637361929766    -0.420404800540    -1.097114632544     1.007825032230
         H           -3.810760070234    -1.518908800540     1.734700367456     1.007825032230
         H           -3.932911070234     1.448970199460     0.249358367456     1.007825032230
         H           -2.232127070234     1.896309199460    -0.059123632544     1.007825032230
         H           -3.802886070234     3.134311199460    -1.602698632544     1.007825032230
         H           -2.719561070234     2.056752199460    -2.504902632544     1.007825032230
         H           -4.403309070234     1.577752199460    -2.212751632544     1.007825032230

  Basis Set: AUG-CC-PVTZ
    Blend: AUG-CC-PVTZ
  Basis Set: (AUG-CC-PVTZ AUX)
    Blend: AUG-CC-PVTZ-JKFIT
	 Reference Energy          =   -1327.8527271531820588 [Eh]
	 Singles Energy            =      -0.0000000000000000 [Eh]
	 Same-Spin Energy          =      -1.0145083525230165 [Eh]
	 Opposite-Spin Energy      =      -3.0749896557450329 [Eh]
	 Correlation Energy        =      -4.0894980082680492 [Eh]
	 Total Energy              =   -1331.9422251614500965 [Eh]

	 ================> DF-SCS-MP2 Energies <==================
	-----------------------------------------------------------
	 SCS Same-Spin Scale       =       0.3333333333333333 [-]
	 SCS Opposite-Spin Scale   =       1.2000000000000000 [-]
	 SCS Same-Spin Energy      =      -0.3381694508410055 [Eh]
	 SCS Opposite-Spin Energy  =      -3.6899875868940395 [Eh]
	 SCS Correlation Energy    =      -4.0281570377350446 [Eh]
	 SCS Total Energy          =   -1331.8808841909171861 [Eh]
	-----------------------------------------------------------

  Dipole Moment: [D]
     X:    -0.9138      Y:     1.5431      Z:     0.7145     Total:     1.9305

*** Psi4 exiting successfully. Buy a developer a beer!
