                               Psi4 1.3.2 release

  ==> Input File <==

--------------------------------------------------------------------------
#psi4
#
memory 32 gb

molecule  {
0 1
  P       -2.2900960    -0.9400430     0.3446780
  O       -0.9821530    -0.2015620     0.9382890
  O        1.3422500    -1.6754830     1.2308510
  O        0.0787050     2.3596040     0.4621680
  O        3.0685150    -2.1870720    -0.8085900
  O        2.8473350     2.5031130     0.3715350
  O        4.1956880     0.4353970    -0.9728740
  O       -2.8268630     0.0333510    -0.8075310
  O       -3.2591210    -0.7232820     1.6216710
  O       -2.1189930    -2.3436440    -0.0996680
  C        0.1181620     0.0300090     0.0163190
  C        0.9532920    -1.2442050    -0.0757250
  C        0.8985890     1.2026440     0.5648510
  C        2.2596600    -1.0143070    -0.8180370
  C        2.1770750     1.3964720    -0.2280410
  C        3.1266871     0.3017810    -0.1303344
  C       -3.1242130     1.4315980    -0.4888860
  C       -3.5363170     2.0851650    -1.7841190
  H       -0.2830920     0.2988010    -0.9702380
  H        0.3702690    -2.0293640    -0.5720320
  H        1.1571200     0.9978770     1.6121560
  H        2.0609340    -0.7886600    -1.8727560
  H        1.9169870     1.6362870    -1.2735830
  H        3.2958550    -0.0945320     0.8276460
  H        0.5217750    -1.8880320     1.7115100
  H        0.6655400     3.1093110     0.6831840
  H        2.9735430    -2.5473740     0.0946540
  H        3.7214290     2.5491860    -0.0588690
  H        4.6397270    -0.4238340    -1.0970870
  H       -3.8083950    -1.5223380     1.7347280
  H       -3.9305460     1.4455410     0.2493860
  H       -2.2297620     1.8928800    -0.0590960
  H       -3.8005210     3.1308820    -1.6026710
  H       -2.7171960     2.0533230    -2.5048750
  H       -4.4009440     1.5743230    -2.2127240
units angstrom
no_reorient  #important for SAPT in psi4, default
symmetry c1  #important for SAPT in psi4, default
}

set PROPERTIES_ORIGIN ["COM"]
properties('MP2/aug-cc-pvtz', properties = ['dipole'])
--------------------------------------------------------------------------

    Molecular point group: c1
  Charge       = 0
  Multiplicity = 1
  Basis Set: AUG-CC-PVTZ
    Blend: AUG-CC-PVTZ
  Basis Set: (AUG-CC-PVTZ AUX)
    Blend: AUG-CC-PVTZ-JKFIT

    Orbital Energies [Eh]
    ---------------------

    Doubly Occupied:

       1A    -80.115868     2A    -20.613882     3A    -20.605606
       4A    -20.598183     5A    -20.580441     6A    -20.578778
       7A    -20.575703     8A    -20.572804     9A    -20.571934
      10A    -20.522139    11A    -11.318972    12A    -11.300780
      13A    -11.299015    14A    -11.298374    15A    -11.296321
      16A    -11.295153    17A    -11.293338    18A    -11.229570
      19A     -7.631313    20A     -5.529821    21A     -5.529448
      22A     -5.528242    23A     -1.459199    24A     -1.414249
      25A     -1.400882    26A     -1.391609    27A     -1.386409
      28A     -1.377672    29A     -1.363151    30A     -1.356412
      31A     -1.302557    32A     -1.110665    33A     -1.039996
      34A     -1.014168    35A     -0.988903    36A     -0.881835
      37A     -0.866037    38A     -0.851422    39A     -0.823851
      40A     -0.809731    41A     -0.756971    42A     -0.745871
      43A     -0.731720    44A     -0.728438    45A     -0.706449
      46A     -0.690154    47A     -0.683419    48A     -0.673854
      49A     -0.667965    50A     -0.657681    51A     -0.642524
      52A     -0.638858    53A     -0.625719    54A     -0.614242
      55A     -0.603432    56A     -0.598439    57A     -0.581710
      58A     -0.574813    59A     -0.569499    60A     -0.560133
      61A     -0.557396    62A     -0.547976    63A     -0.540417
      64A     -0.534082    65A     -0.529195    66A     -0.523627
      67A     -0.513978    68A     -0.506062    69A     -0.495678
      70A     -0.484197    71A     -0.478845    72A     -0.475297
      73A     -0.468057    74A     -0.462350    75A     -0.448281
      76A     -0.386955

  @DF-RHF Final Energy: -1327.83037668222505

   => Energetics <=

    Nuclear Repulsion Energy =           1770.5375175732292519
    One-Electron Energy =               -5353.2783473895342468
    Two-Electron Energy =                2254.9104531340799440
    Total Energy =                      -1327.8303766822250509
  Basis Set: (AUG-CC-PVTZ AUX)
    Blend: AUG-CC-PVTZ-RI
    Molecular point group: c1

    Geometry (in Angstrom), charge = 0, multiplicity = 1:

       Center              X                  Y                   Z               Mass
    ------------   -----------------  -----------------  -----------------  -----------------
         P           -2.294296956261    -0.946419797924     0.341345880084    30.973761998420
         O           -0.986353956261    -0.207938797924     0.934956880084    15.994914619570
         O            1.338049043739    -1.681859797924     1.227518880084    15.994914619570
         O            0.074504043739     2.353227202076     0.458835880084    15.994914619570
         O            3.064314043739    -2.193448797924    -0.811922119916    15.994914619570
         O            2.843134043739     2.496736202076     0.368202880084    15.994914619570
         O            4.191487043739     0.429020202076    -0.976206119916    15.994914619570
         O           -2.831063956261     0.026974202076    -0.810863119916    15.994914619570
         O           -3.263321956261    -0.729658797924     1.618338880084    15.994914619570
         O           -2.123193956261    -2.350020797924    -0.103000119916    15.994914619570
         C            0.113961043739     0.023632202076     0.012986880084    12.000000000000
         C            0.949091043739    -1.250581797924    -0.079057119916    12.000000000000
         C            0.894388043739     1.196267202076     0.561518880084    12.000000000000
         C            2.255459043739    -1.020683797924    -0.821369119916    12.000000000000
         C            2.172874043739     1.390095202076    -0.231373119916    12.000000000000
         C            3.122486143739     0.295404202076    -0.133666519916    12.000000000000
         C           -3.128413956261     1.425221202076    -0.492218119916    12.000000000000
         C           -3.540517956261     2.078788202076    -1.787451119916    12.000000000000
         H           -0.287292956261     0.292424202076    -0.973570119916     1.007825032230
         H            0.366068043739    -2.035740797924    -0.575364119916     1.007825032230
         H            1.152919043739     0.991500202076     1.608823880084     1.007825032230
         H            2.056733043739    -0.795036797924    -1.876088119916     1.007825032230
         H            1.912786043739     1.629910202076    -1.276915119916     1.007825032230
         H            3.291654043739    -0.100908797924     0.824313880084     1.007825032230
         H            0.517574043739    -1.894408797924     1.708177880084     1.007825032230
         H            0.661339043739     3.102934202076     0.679851880084     1.007825032230
         H            2.969342043739    -2.553750797924     0.091321880084     1.007825032230
         H            3.717228043739     2.542809202076    -0.062201119916     1.007825032230
         H            4.635526043739    -0.430210797924    -1.100419119916     1.007825032230
         H           -3.812595956261    -1.528714797924     1.731395880084     1.007825032230
         H           -3.934746956261     1.439164202076     0.246053880084     1.007825032230
         H           -2.233962956261     1.886503202076    -0.062428119916     1.007825032230
         H           -3.804721956261     3.124505202076    -1.606003119916     1.007825032230
         H           -2.721396956261     2.046946202076    -2.508207119916     1.007825032230
         H           -4.405144956261     1.567946202076    -2.216056119916     1.007825032230

  Basis Set: AUG-CC-PVTZ
    Blend: AUG-CC-PVTZ
  Basis Set: (AUG-CC-PVTZ AUX)
    Blend: AUG-CC-PVTZ-JKFIT
	 Reference Energy          =   -1327.8303766822250509 [Eh]
	 Singles Energy            =      -0.0000000000000000 [Eh]
	 Same-Spin Energy          =      -1.0153704324976884 [Eh]
	 Opposite-Spin Energy      =      -3.0774033341833991 [Eh]
	 Correlation Energy        =      -4.0927737666810877 [Eh]
	 Total Energy              =   -1331.9231504489061990 [Eh]

	 ================> DF-SCS-MP2 Energies <==================
	-----------------------------------------------------------
	 SCS Same-Spin Scale       =       0.3333333333333333 [-]
	 SCS Opposite-Spin Scale   =       1.2000000000000000 [-]
	 SCS Same-Spin Energy      =      -0.3384568108325628 [Eh]
	 SCS Opposite-Spin Energy  =      -3.6928840010200785 [Eh]
	 SCS Correlation Energy    =      -4.0313408118526413 [Eh]
	 SCS Total Energy          =   -1331.8617174940777659 [Eh]
	-----------------------------------------------------------

  Dipole Moment: [D]
     X:    -0.8770      Y:     1.9388      Z:     0.7038     Total:     2.2413

*** Psi4 exiting successfully. Buy a developer a beer!
