                               Psi4 1.3.2 release

  ==> Input File <==

--------------------------------------------------------------------------
#psi4
#
memory 32 gb

molecule  {
0 1
  P       -2.2928677    -0.8973757     0.3806597
  O       -0.9821530    -0.2015620     0.9382890
  O        1.3422500    -1.6754830     1.2308510
  O        0.0787050     2.3596040     0.4621680
  O        3.0685150    -2.1870720    -0.8085900
  O        2.8473350     2.5031130     0.3715350
  O        4.1956880     0.4353970    -0.9728740
  O       -2.8268630     0.0333510    -0.8075310
  O       -3.2591210    -0.7232820     1.6216710
  O       -2.1189930    -2.3436440    -0.0996680
  C        0.1181620     0.0300090     0.0163190
  C        0.9532920    -1.2442050    -0.0757250
  C        0.8985890     1.2026440     0.5648510
  C        2.2596600    -1.0143070    -0.8180370
  C        2.1770750     1.3964720    -0.2280410
  C        3.0258420     0.1487050    -0.2103220
  C       -3.1102121     1.4226245    -0.4405449
  C       -3.5363170     2.0851650    -1.7841190
  H       -0.2830920     0.2988010    -0.9702380
  H        0.3702690    -2.0293640    -0.5720320
  H        1.1571200     0.9978770     1.6121560
  H        2.0609340    -0.7886600    -1.8727560
  H        1.9169870     1.6362870    -1.2735830
  H        3.2958550    -0.0945320     0.8276460
  H        0.5217750    -1.8880320     1.7115100
  H        0.6655400     3.1093110     0.6831840
  H        2.9735430    -2.5473740     0.0946540
  H        3.7214290     2.5491860    -0.0588690
  H        4.6397270    -0.4238340    -1.0970870
  H       -3.8083950    -1.5223380     1.7347280
  H       -3.9305460     1.4455410     0.2493860
  H       -2.2297620     1.8928800    -0.0590960
  H       -3.8005210     3.1308820    -1.6026710
  H       -2.7171960     2.0533230    -2.5048750
  H       -4.4009440     1.5743230    -2.2127240
units angstrom
no_reorient  #important for SAPT in psi4, default
symmetry c1  #important for SAPT in psi4, default
}

set PROPERTIES_ORIGIN ["COM"]
properties('MP2/aug-cc-pvtz', properties = ['dipole'])
--------------------------------------------------------------------------

    Molecular point group: c1
  Charge       = 0
  Multiplicity = 1
  Basis Set: AUG-CC-PVTZ
    Blend: AUG-CC-PVTZ
  Basis Set: (AUG-CC-PVTZ AUX)
    Blend: AUG-CC-PVTZ-JKFIT

    Orbital Energies [Eh]
    ---------------------

    Doubly Occupied:

       1A    -80.117406     2A    -20.621939     3A    -20.612271
       4A    -20.601573     5A    -20.583481     6A    -20.577944
       7A    -20.575599     8A    -20.574863     9A    -20.574642
      10A    -20.511460    11A    -11.324536    12A    -11.303789
      13A    -11.300729    14A    -11.299789    15A    -11.298357
      16A    -11.298062    17A    -11.292134    18A    -11.231580
      19A     -7.632668    20A     -5.531339    21A     -5.530880
      22A     -5.529271    23A     -1.470841    24A     -1.416214
      25A     -1.401389    26A     -1.394746    27A     -1.392332
      28A     -1.375708    29A     -1.364981    30A     -1.354841
      31A     -1.272301    32A     -1.121256    33A     -1.031286
      34A     -1.015238    35A     -1.004453    36A     -0.884463
      37A     -0.869047    38A     -0.860526    39A     -0.830593
      40A     -0.812195    41A     -0.755275    42A     -0.749998
      43A     -0.735456    44A     -0.732955    45A     -0.712086
      46A     -0.689869    47A     -0.679807    48A     -0.677029
      49A     -0.667157    50A     -0.662750    51A     -0.646469
      52A     -0.637447    53A     -0.629533    54A     -0.616846
      55A     -0.607267    56A     -0.599075    57A     -0.579512
      58A     -0.578699    59A     -0.570396    60A     -0.558931
      61A     -0.554300    62A     -0.548181    63A     -0.539214
      64A     -0.536759    65A     -0.532568    66A     -0.519491
      67A     -0.509451    68A     -0.503707    69A     -0.498944
      70A     -0.489257    71A     -0.476306    72A     -0.459757
      73A     -0.457214    74A     -0.456421    75A     -0.447815
      76A     -0.434905

  @DF-RHF Final Energy: -1327.85447617016644

   => Energetics <=

    Nuclear Repulsion Energy =           1773.4513124074208008
    One-Electron Energy =               -5358.9164472839966038
    Two-Electron Energy =                2257.6106587064091400
    Total Energy =                      -1327.8544761701664356
  Basis Set: (AUG-CC-PVTZ AUX)
    Blend: AUG-CC-PVTZ-RI
    Molecular point group: c1

    Geometry (in Angstrom), charge = 0, multiplicity = 1:

       Center              X                  Y                   Z               Mass
    ------------   -----------------  -----------------  -----------------  -----------------
         P           -2.293152887374    -0.901589667262     0.374776972527    30.973761998420
         O           -0.982438187374    -0.205775967262     0.932406272527    15.994914619570
         O            1.341964812626    -1.679696967262     1.224968272527    15.994914619570
         O            0.078419812626     2.355390032738     0.456285272527    15.994914619570
         O            3.068229812626    -2.191285967262    -0.814472727473    15.994914619570
         O            2.847049812626     2.498899032738     0.365652272527    15.994914619570
         O            4.195402812626     0.431183032738    -0.978756727473    15.994914619570
         O           -2.827148187374     0.029137032738    -0.813413727473    15.994914619570
         O           -3.259406187374    -0.727495967262     1.615788272527    15.994914619570
         O           -2.119278187374    -2.347857967262    -0.105550727473    15.994914619570
         C            0.117876812626     0.025795032738     0.010436272527    12.000000000000
         C            0.953006812626    -1.248418967262    -0.081607727473    12.000000000000
         C            0.898303812626     1.198430032738     0.558968272527    12.000000000000
         C            2.259374812626    -1.018520967262    -0.823919727473    12.000000000000
         C            2.176789812626     1.392258032738    -0.233923727473    12.000000000000
         C            3.025556812626     0.144491032738    -0.216204727473    12.000000000000
         C           -3.110497287374     1.418410532738    -0.446427627473    12.000000000000
         C           -3.536602187374     2.080951032738    -1.790001727473    12.000000000000
         H           -0.283377187374     0.294587032738    -0.976120727473     1.007825032230
         H            0.369983812626    -2.033577967262    -0.577914727473     1.007825032230
         H            1.156834812626     0.993663032738     1.606273272527     1.007825032230
         H            2.060648812626    -0.792873967262    -1.878638727473     1.007825032230
         H            1.916701812626     1.632073032738    -1.279465727473     1.007825032230
         H            3.295569812626    -0.098745967262     0.821763272527     1.007825032230
         H            0.521489812626    -1.892245967262     1.705627272527     1.007825032230
         H            0.665254812626     3.105097032738     0.677301272527     1.007825032230
         H            2.973257812626    -2.551587967262     0.088771272527     1.007825032230
         H            3.721143812626     2.544972032738    -0.064751727473     1.007825032230
         H            4.639441812626    -0.428047967262    -1.102969727473     1.007825032230
         H           -3.808680187374    -1.526551967262     1.728845272527     1.007825032230
         H           -3.930831187374     1.441327032738     0.243503272527     1.007825032230
         H           -2.230047187374     1.888666032738    -0.064978727473     1.007825032230
         H           -3.800806187374     3.126668032738    -1.608553727473     1.007825032230
         H           -2.717481187374     2.049109032738    -2.510757727473     1.007825032230
         H           -4.401229187374     1.570109032738    -2.218606727473     1.007825032230

  Basis Set: AUG-CC-PVTZ
    Blend: AUG-CC-PVTZ
  Basis Set: (AUG-CC-PVTZ AUX)
    Blend: AUG-CC-PVTZ-JKFIT
	 Reference Energy          =   -1327.8544761701664356 [Eh]
	 Singles Energy            =      -0.0000000000000000 [Eh]
	 Same-Spin Energy          =      -1.0147513928869352 [Eh]
	 Opposite-Spin Energy      =      -3.0763840614128419 [Eh]
	 Correlation Energy        =      -4.0911354542997769 [Eh]
	 Total Energy              =   -1331.9456116244662098 [Eh]

	 ================> DF-SCS-MP2 Energies <==================
	-----------------------------------------------------------
	 SCS Same-Spin Scale       =       0.3333333333333333 [-]
	 SCS Opposite-Spin Scale   =       1.2000000000000000 [-]
	 SCS Same-Spin Energy      =      -0.3382504642956450 [Eh]
	 SCS Opposite-Spin Energy  =      -3.6916608736954100 [Eh]
	 SCS Correlation Energy    =      -4.0299113379910549 [Eh]
	 SCS Total Energy          =   -1331.8843875081574879 [Eh]
	-----------------------------------------------------------

  Dipole Moment: [D]
     X:    -1.0466      Y:     2.2200      Z:     1.0753     Total:     2.6795

*** Psi4 exiting successfully. Buy a developer a beer!
