                               Psi4 1.3.2 release

  ==> Input File <==

--------------------------------------------------------------------------
#psi4
#
memory 32 gb

molecule  {
0 1
  P       -2.2900960    -0.9400430     0.3446780
  O       -0.9963105    -0.1961244     0.9620493
  O        1.3422500    -1.6754830     1.2308510
  O        0.0787050     2.3596040     0.4621680
  O        3.0685150    -2.1870720    -0.8085900
  O        2.8473350     2.5031130     0.3715350
  O        4.1956880     0.4353970    -0.9728740
  O       -2.8268630     0.0333510    -0.8075310
  O       -3.2381851    -0.7097790     1.6349537
  O       -2.1189930    -2.3436440    -0.0996680
  C        0.1181620     0.0300090     0.0163190
  C        0.9532920    -1.2442050    -0.0757250
  C        0.8985890     1.2026440     0.5648510
  C        2.2596600    -1.0143070    -0.8180370
  C        2.1770750     1.3964720    -0.2280410
  C        3.0258420     0.1487050    -0.2103220
  C       -3.1242130     1.4315980    -0.4888860
  C       -3.5363170     2.0851650    -1.7841190
  H       -0.2830920     0.2988010    -0.9702380
  H        0.3702690    -2.0293640    -0.5720320
  H        1.1571200     0.9978770     1.6121560
  H        2.0609340    -0.7886600    -1.8727560
  H        1.9169870     1.6362870    -1.2735830
  H        3.2958550    -0.0945320     0.8276460
  H        0.5217750    -1.8880320     1.7115100
  H        0.6655400     3.1093110     0.6831840
  H        2.9735430    -2.5473740     0.0946540
  H        3.7214290     2.5491860    -0.0588690
  H        4.6397270    -0.4238340    -1.0970870
  H       -3.8083950    -1.5223380     1.7347280
  H       -3.9305460     1.4455410     0.2493860
  H       -2.2297620     1.8928800    -0.0590960
  H       -3.8005210     3.1308820    -1.6026710
  H       -2.7171960     2.0533230    -2.5048750
  H       -4.4009440     1.5743230    -2.2127240
units angstrom
no_reorient  #important for SAPT in psi4, default
symmetry c1  #important for SAPT in psi4, default
}

set PROPERTIES_ORIGIN ["COM"]
properties('MP2/aug-cc-pvtz', properties = ['dipole'])
--------------------------------------------------------------------------

    Molecular point group: c1
  Charge       = 0
  Multiplicity = 1
  Basis Set: AUG-CC-PVTZ
    Blend: AUG-CC-PVTZ
  Basis Set: (AUG-CC-PVTZ AUX)
    Blend: AUG-CC-PVTZ-JKFIT

    Orbital Energies [Eh]
    ---------------------

    Doubly Occupied:

       1A    -80.115089     2A    -20.614584     3A    -20.606031
       4A    -20.599031     5A    -20.583359     6A    -20.577138
       7A    -20.575251     8A    -20.574502     9A    -20.573536
      10A    -20.524373    11A    -11.322549    12A    -11.304766
      13A    -11.300187    14A    -11.299223    15A    -11.299099
      16A    -11.297163    17A    -11.291912    18A    -11.229758
      19A     -7.630718    20A     -5.529303    21A     -5.528774
      22A     -5.527619    23A     -1.456818    24A     -1.409719
      25A     -1.394051    26A     -1.390084    27A     -1.384446
      28A     -1.370921    29A     -1.364286    30A     -1.354030
      31A     -1.304060    32A     -1.119805    33A     -1.040194
      34A     -1.012085    35A     -1.003930    36A     -0.877885
      37A     -0.864679    38A     -0.858914    39A     -0.818934
      40A     -0.810817    41A     -0.751171    42A     -0.743522
      43A     -0.730217    44A     -0.725413    45A     -0.704733
      46A     -0.686915    47A     -0.678492    48A     -0.673496
      49A     -0.662274    50A     -0.660196    51A     -0.641940
      52A     -0.633974    53A     -0.626170    54A     -0.615482
      55A     -0.601810    56A     -0.598896    57A     -0.582036
      58A     -0.573719    59A     -0.570253    60A     -0.559534
      61A     -0.557235    62A     -0.548354    63A     -0.540858
      64A     -0.537116    65A     -0.529360    66A     -0.521874
      67A     -0.513035    68A     -0.504713    69A     -0.497008
      70A     -0.486014    71A     -0.480030    72A     -0.476960
      73A     -0.463315    74A     -0.456254    75A     -0.451015
      76A     -0.436832

  @DF-RHF Final Energy: -1327.85743164846917

   => Energetics <=

    Nuclear Repulsion Energy =           1771.8926452878108648
    One-Electron Energy =               -5355.9804687726636985
    Two-Electron Energy =                2256.2303918363836601
    Total Energy =                      -1327.8574316484691735
  Basis Set: (AUG-CC-PVTZ AUX)
    Blend: AUG-CC-PVTZ-RI
    Molecular point group: c1

    Geometry (in Angstrom), charge = 0, multiplicity = 1:

       Center              X                  Y                   Z               Mass
    ------------   -----------------  -----------------  -----------------  -----------------
         P           -2.290472345510    -0.941094680611     0.342621136205    30.973761998420
         O           -0.996686845510    -0.197176080611     0.959992436205    15.994914619570
         O            1.341873654490    -1.676534680611     1.228794136205    15.994914619570
         O            0.078328654490     2.358552319389     0.460111136205    15.994914619570
         O            3.068138654490    -2.188123680611    -0.810646863795    15.994914619570
         O            2.846958654490     2.502061319389     0.369478136205    15.994914619570
         O            4.195311654490     0.434345319389    -0.974930863795    15.994914619570
         O           -2.827239345510     0.032299319389    -0.809587863795    15.994914619570
         O           -3.238561445510    -0.710830680611     1.632896836205    15.994914619570
         O           -2.119369345510    -2.344695680611    -0.101724863795    15.994914619570
         C            0.117785654490     0.028957319389     0.014262136205    12.000000000000
         C            0.952915654490    -1.245256680611    -0.077781863795    12.000000000000
         C            0.898212654490     1.201592319389     0.562794136205    12.000000000000
         C            2.259283654490    -1.015358680611    -0.820093863795    12.000000000000
         C            2.176698654490     1.395420319389    -0.230097863795    12.000000000000
         C            3.025465654490     0.147653319389    -0.212378863795    12.000000000000
         C           -3.124589345510     1.430546319389    -0.490942863795    12.000000000000
         C           -3.536693345510     2.084113319389    -1.786175863795    12.000000000000
         H           -0.283468345510     0.297749319389    -0.972294863795     1.007825032230
         H            0.369892654490    -2.030415680611    -0.574088863795     1.007825032230
         H            1.156743654490     0.996825319389     1.610099136205     1.007825032230
         H            2.060557654490    -0.789711680611    -1.874812863795     1.007825032230
         H            1.916610654490     1.635235319389    -1.275639863795     1.007825032230
         H            3.295478654490    -0.095583680611     0.825589136205     1.007825032230
         H            0.521398654490    -1.889083680611     1.709453136205     1.007825032230
         H            0.665163654490     3.108259319389     0.681127136205     1.007825032230
         H            2.973166654490    -2.548425680611     0.092597136205     1.007825032230
         H            3.721052654490     2.548134319389    -0.060925863795     1.007825032230
         H            4.639350654490    -0.424885680611    -1.099143863795     1.007825032230
         H           -3.808771345510    -1.523389680611     1.732671136205     1.007825032230
         H           -3.930922345510     1.444489319389     0.247329136205     1.007825032230
         H           -2.230138345510     1.891828319389    -0.061152863795     1.007825032230
         H           -3.800897345510     3.129830319389    -1.604727863795     1.007825032230
         H           -2.717572345510     2.052271319389    -2.506931863795     1.007825032230
         H           -4.401320345510     1.573271319389    -2.214780863795     1.007825032230

  Basis Set: AUG-CC-PVTZ
    Blend: AUG-CC-PVTZ
  Basis Set: (AUG-CC-PVTZ AUX)
    Blend: AUG-CC-PVTZ-JKFIT
	 Reference Energy          =   -1327.8574316484691735 [Eh]
	 Singles Energy            =      -0.0000000000000000 [Eh]
	 Same-Spin Energy          =      -1.0151912889995085 [Eh]
	 Opposite-Spin Energy      =      -3.0777310791168153 [Eh]
	 Correlation Energy        =      -4.0929223681163238 [Eh]
	 Total Energy              =   -1331.9503540165856066 [Eh]

	 ================> DF-SCS-MP2 Energies <==================
	-----------------------------------------------------------
	 SCS Same-Spin Scale       =       0.3333333333333333 [-]
	 SCS Opposite-Spin Scale   =       1.2000000000000000 [-]
	 SCS Same-Spin Energy      =      -0.3383970963331695 [Eh]
	 SCS Opposite-Spin Energy  =      -3.6932772949401782 [Eh]
	 SCS Correlation Energy    =      -4.0316743912733477 [Eh]
	 SCS Total Energy          =   -1331.8891060397425008 [Eh]
	-----------------------------------------------------------

  Dipole Moment: [D]
     X:    -1.0681      Y:     1.8361      Z:     0.6413     Total:     2.2189

*** Psi4 exiting successfully. Buy a developer a beer!
