                               Psi4 1.3.2 release

  ==> Input File <==

--------------------------------------------------------------------------
#psi4
#
memory 32 gb

molecule  {
0 1
  P       -2.2900960    -0.9400430     0.3446780
  O       -0.9821530    -0.2015620     0.9382890
  O        1.3422500    -1.6754830     1.2308510
  O        0.0787050     2.3596040     0.4621680
  O        3.0685150    -2.1870720    -0.8085900
  O        2.8657007     2.5007164     0.3549112
  O        4.1956880     0.4353970    -0.9728740
  O       -2.8268630     0.0333510    -0.8075310
  O       -3.2591210    -0.7232820     1.6216710
  O       -2.1189930    -2.3436440    -0.0996680
  C        0.1181620     0.0300090     0.0163190
  C        0.9532920    -1.2442050    -0.0757250
  C        0.8922356     1.1822717     0.5491845
  C        2.2596600    -1.0143070    -0.8180370
  C        2.1770750     1.3964720    -0.2280410
  C        3.0258420     0.1487050    -0.2103220
  C       -3.1242130     1.4315980    -0.4888860
  C       -3.5363170     2.0851650    -1.7841190
  H       -0.2830920     0.2988010    -0.9702380
  H        0.3702690    -2.0293640    -0.5720320
  H        1.1571200     0.9978770     1.6121560
  H        2.0609340    -0.7886600    -1.8727560
  H        1.9169870     1.6362870    -1.2735830
  H        3.2958550    -0.0945320     0.8276460
  H        0.5217750    -1.8880320     1.7115100
  H        0.6655400     3.1093110     0.6831840
  H        2.9735430    -2.5473740     0.0946540
  H        3.7214290     2.5491860    -0.0588690
  H        4.6397270    -0.4238340    -1.0970870
  H       -3.8083950    -1.5223380     1.7347280
  H       -3.9305460     1.4455410     0.2493860
  H       -2.2297620     1.8928800    -0.0590960
  H       -3.8005210     3.1308820    -1.6026710
  H       -2.7171960     2.0533230    -2.5048750
  H       -4.4009440     1.5743230    -2.2127240
units angstrom
no_reorient  #important for SAPT in psi4, default
symmetry c1  #important for SAPT in psi4, default
}

set PROPERTIES_ORIGIN ["COM"]
properties('MP2/aug-cc-pvtz', properties = ['dipole'])
--------------------------------------------------------------------------

    Molecular point group: c1
  Charge       = 0
  Multiplicity = 1
  Basis Set: AUG-CC-PVTZ
    Blend: AUG-CC-PVTZ
  Basis Set: (AUG-CC-PVTZ AUX)
    Blend: AUG-CC-PVTZ-JKFIT

    Orbital Energies [Eh]
    ---------------------

    Doubly Occupied:

       1A    -80.117527     2A    -20.615151     3A    -20.608033
       4A    -20.599284     5A    -20.583676     6A    -20.574788
       7A    -20.574394     8A    -20.573710     9A    -20.572191
      10A    -20.523914    11A    -11.321416    12A    -11.304394
      13A    -11.299965    14A    -11.299571    15A    -11.299490
      16A    -11.297825    17A    -11.291231    18A    -11.229944
      19A     -7.632971    20A     -5.531476    21A     -5.531108
      22A     -5.529900    23A     -1.461000    24A     -1.411304
      25A     -1.396052    26A     -1.392655    27A     -1.387155
      28A     -1.372117    29A     -1.363401    30A     -1.354304
      31A     -1.304312    32A     -1.122701    33A     -1.040630
      34A     -1.014929    35A     -1.005027    36A     -0.881293
      37A     -0.865503    38A     -0.859307    39A     -0.823718
      40A     -0.810759    41A     -0.751858    42A     -0.745762
      43A     -0.731527    44A     -0.729787    45A     -0.710909
      46A     -0.686156    47A     -0.678662    48A     -0.674079
      49A     -0.662372    50A     -0.661339    51A     -0.644992
      52A     -0.635413    53A     -0.627616    54A     -0.615544
      55A     -0.603237    56A     -0.598401    57A     -0.582460
      58A     -0.575799    59A     -0.571308    60A     -0.558694
      61A     -0.556565    62A     -0.548813    63A     -0.541314
      64A     -0.536554    65A     -0.530146    66A     -0.523447
      67A     -0.512942    68A     -0.504361    69A     -0.498173
      70A     -0.485321    71A     -0.480357    72A     -0.477043
      73A     -0.462712    74A     -0.455610    75A     -0.450056
      76A     -0.436686

  @DF-RHF Final Energy: -1327.86138248984207

   => Energetics <=

    Nuclear Repulsion Energy =           1772.7789258055158825
    One-Electron Energy =               -5357.6323358353074582
    Two-Electron Energy =                2256.9920275399495040
    Total Energy =                      -1327.8613824898420717
  Basis Set: (AUG-CC-PVTZ AUX)
    Blend: AUG-CC-PVTZ-RI
    Molecular point group: c1

    Geometry (in Angstrom), charge = 0, multiplicity = 1:

       Center              X                  Y                   Z               Mass
    ------------   -----------------  -----------------  -----------------  -----------------
         P           -2.290851074553    -0.939061242369     0.346253678668    30.973761998420
         O           -0.982908074553    -0.200580242369     0.939864678668    15.994914619570
         O            1.341494925447    -1.674501242369     1.232426678668    15.994914619570
         O            0.077949925447     2.360585757631     0.463743678668    15.994914619570
         O            3.067759925447    -2.186090242369    -0.807014321332    15.994914619570
         O            2.864945625447     2.501698157631     0.356486878668    15.994914619570
         O            4.194932925447     0.436378757631    -0.971298321332    15.994914619570
         O           -2.827618074553     0.034332757631    -0.805955321332    15.994914619570
         O           -3.259876074553    -0.722300242369     1.623246678668    15.994914619570
         O           -2.119748074553    -2.342662242369    -0.098092321332    15.994914619570
         C            0.117406925447     0.030990757631     0.017894678668    12.000000000000
         C            0.952536925447    -1.243223242369    -0.074149321332    12.000000000000
         C            0.891480525447     1.183253457631     0.550760178668    12.000000000000
         C            2.258904925447    -1.013325242369    -0.816461321332    12.000000000000
         C            2.176319925447     1.397453757631    -0.226465321332    12.000000000000
         C            3.025086925447     0.149686757631    -0.208746321332    12.000000000000
         C           -3.124968074553     1.432579757631    -0.487310321332    12.000000000000
         C           -3.537072074553     2.086146757631    -1.782543321332    12.000000000000
         H           -0.283847074553     0.299782757631    -0.968662321332     1.007825032230
         H            0.369513925447    -2.028382242369    -0.570456321332     1.007825032230
         H            1.156364925447     0.998858757631     1.613731678668     1.007825032230
         H            2.060178925447    -0.787678242369    -1.871180321332     1.007825032230
         H            1.916231925447     1.637268757631    -1.272007321332     1.007825032230
         H            3.295099925447    -0.093550242369     0.829221678668     1.007825032230
         H            0.521019925447    -1.887050242369     1.713085678668     1.007825032230
         H            0.664784925447     3.110292757631     0.684759678668     1.007825032230
         H            2.972787925447    -2.546392242369     0.096229678668     1.007825032230
         H            3.720673925447     2.550167757631    -0.057293321332     1.007825032230
         H            4.638971925447    -0.422852242369    -1.095511321332     1.007825032230
         H           -3.809150074553    -1.521356242369     1.736303678668     1.007825032230
         H           -3.931301074553     1.446522757631     0.250961678668     1.007825032230
         H           -2.230517074553     1.893861757631    -0.057520321332     1.007825032230
         H           -3.801276074553     3.131863757631    -1.601095321332     1.007825032230
         H           -2.717951074553     2.054304757631    -2.503299321332     1.007825032230
         H           -4.401699074553     1.575304757631    -2.211148321332     1.007825032230

  Basis Set: AUG-CC-PVTZ
    Blend: AUG-CC-PVTZ
  Basis Set: (AUG-CC-PVTZ AUX)
    Blend: AUG-CC-PVTZ-JKFIT
	 Reference Energy          =   -1327.8613824898420717 [Eh]
	 Singles Energy            =      -0.0000000000000000 [Eh]
	 Same-Spin Energy          =      -1.0143956972237076 [Eh]
	 Opposite-Spin Energy      =      -3.0754915751743188 [Eh]
	 Correlation Energy        =      -4.0898872723980269 [Eh]
	 Total Energy              =   -1331.9512697622401447 [Eh]

	 ================> DF-SCS-MP2 Energies <==================
	-----------------------------------------------------------
	 SCS Same-Spin Scale       =       0.3333333333333333 [-]
	 SCS Opposite-Spin Scale   =       1.2000000000000000 [-]
	 SCS Same-Spin Energy      =      -0.3381318990745692 [Eh]
	 SCS Opposite-Spin Energy  =      -3.6905898902091825 [Eh]
	 SCS Correlation Energy    =      -4.0287217892837521 [Eh]
	 SCS Total Energy          =   -1331.8901042791258078 [Eh]
	-----------------------------------------------------------

  Dipole Moment: [D]
     X:    -1.1496      Y:     1.8052      Z:     0.7305     Total:     2.2615

*** Psi4 exiting successfully. Buy a developer a beer!
