                               Psi4 1.4a3.dev225

  ==> Input File <==

--------------------------------------------------------------------------
#psi4
#
memory 32 gb

molecule  {
0 1
  P       -2.3219140    -1.0563120    -0.0968450
  O       -1.0285840    -0.5623410     0.7549430
  O        1.3695440    -1.8069540     1.2202350
  O       -0.1592450     2.1412630     0.5207450
  O        3.3269040    -2.0858120    -0.6453880
  O        2.5724350     2.5270130     0.6374560
  O        4.2203020     0.6406430    -0.6358120
  O       -2.8737010     0.2643620    -0.8096810
  O       -3.3065970    -1.3497020     1.1531960
  O       -2.1044560    -2.1814480    -1.0350500
  C        0.1200290    -0.1583450    -0.0432010
  C        1.1009001    -1.3918210    -0.1066845
  C        0.7441670     1.0454510     0.6308160
  C        2.4193320    -0.9866070    -0.7068450
  C        2.0603010     1.3853380    -0.0470020
  C        3.0180900     0.2181970     0.0056710
  C       -3.2473180     1.4231610     0.0025120
  C       -3.2076300     2.6262440    -0.9075720
  H       -0.2047330     0.1313700    -1.0514980
  H        0.5965010    -2.1549610    -0.6866410
  H        0.9371260     0.8063110     1.6860210
  H        2.3054700    -0.7437210    -1.7704410
  H        1.8633300     1.6367370    -1.1028410
  H        3.2142070    -0.0417910     1.0561650
  H        0.5126160    -2.0057500     1.6426110
  H        0.3598300     2.9232990     0.7925780
  H        3.1793900    -2.4823080     0.2360710
  H        3.4672560     2.6739710     0.2770410
  H        4.7639490    -0.1654590    -0.7244900
  H       -3.7873380    -2.1826420     0.9908450
  H       -4.2474700     1.2335250     0.4005830
  H       -2.5352900     1.5309660     0.8217280
  H       -3.5402110     3.5125760    -0.3587690
  H       -2.1856630     2.7912820    -1.2511950
  H       -3.8637180     2.4807570    -1.7684970
units angstrom
no_reorient  #important for SAPT in psi4, default
symmetry c1  #important for SAPT in psi4, default
}

set PROPERTIES_ORIGIN ["COM"]
properties('MP2/aug-cc-pvtz', properties = ['dipole'])
--------------------------------------------------------------------------

    Molecular point group: c1
  Charge       = 0
  Multiplicity = 1
  Basis Set: AUG-CC-PVTZ
    Blend: AUG-CC-PVTZ
  Basis Set: (AUG-CC-PVTZ AUX)
    Blend: AUG-CC-PVTZ-JKFIT

    Orbital Energies [Eh]
    ---------------------

    Doubly Occupied:

       1A    -80.116441     2A    -20.614749     3A    -20.607455
       4A    -20.595579     5A    -20.585536     6A    -20.578263
       7A    -20.576010     8A    -20.574203     9A    -20.573958
      10A    -20.522370    11A    -11.321010    12A    -11.305495
      13A    -11.299754    14A    -11.299403    15A    -11.298052
      16A    -11.295788    17A    -11.293670    18A    -11.222567
      19A     -7.631701    20A     -5.530236    21A     -5.529732
      22A     -5.528678    23A     -1.457759    24A     -1.412670
      25A     -1.396221    26A     -1.393015    27A     -1.384820
      28A     -1.373904    29A     -1.364809    30A     -1.354694
      31A     -1.302515    32A     -1.115351    33A     -1.035099
      34A     -1.007785    35A     -1.004419    36A     -0.879032
      37A     -0.862419    38A     -0.857548    39A     -0.822219
      40A     -0.810749    41A     -0.753591    42A     -0.746556
      43A     -0.729905    44A     -0.725649    45A     -0.704792
      46A     -0.687223    47A     -0.680299    48A     -0.676348
      49A     -0.662995    50A     -0.659313    51A     -0.640990
      52A     -0.637702    53A     -0.625047    54A     -0.613242
      55A     -0.603683    56A     -0.597492    57A     -0.580064
      58A     -0.578157    59A     -0.569631    60A     -0.560155
      61A     -0.555010    62A     -0.548568    63A     -0.539301
      64A     -0.538269    65A     -0.531450    66A     -0.517950
      67A     -0.507794    68A     -0.504452    69A     -0.495099
      70A     -0.485923    71A     -0.476918    72A     -0.474214
      73A     -0.461052    74A     -0.457208    75A     -0.446542
      76A     -0.438136

  @DF-RHF Final Energy: -1327.85954247865379

   => Energetics <=

    Nuclear Repulsion Energy =           1773.9381890320908042
    One-Electron Energy =               -5360.1026722530787083
    Two-Electron Energy =                2258.3049407423336561
    Total Energy =                      -1327.8595424786540207
  Basis Set: (AUG-CC-PVTZ AUX)
    Blend: AUG-CC-PVTZ-RI
    Molecular point group: c1

    Geometry (in Angstrom), charge = 0, multiplicity = 1:

       Center              X                  Y                   Z               Mass
    ------------   -----------------  -----------------  -----------------  -----------------
         P           -2.312447971797    -1.016903994607    -0.099205641244    30.973761998420
         O           -1.019117971797    -0.522932994607     0.752582358756    15.994914619570
         O            1.379010028203    -1.767545994607     1.217874358756    15.994914619570
         O           -0.149778971797     2.180671005393     0.518384358756    15.994914619570
         O            3.336370028203    -2.046403994607    -0.647748641244    15.994914619570
         O            2.581901028203     2.566421005393     0.635095358756    15.994914619570
         O            4.229768028203     0.680051005393    -0.638172641244    15.994914619570
         O           -2.864234971797     0.303770005393    -0.812041641244    15.994914619570
         O           -3.297130971797    -1.310293994607     1.150835358756    15.994914619570
         O           -2.094989971797    -2.142039994607    -1.037410641244    15.994914619570
         C            0.129495028203    -0.118936994607    -0.045561641244    12.000000000000
         C            1.110366128203    -1.352412994607    -0.109045141244    12.000000000000
         C            0.753633028203     1.084859005393     0.628455358756    12.000000000000
         C            2.428798028203    -0.947198994607    -0.709205641244    12.000000000000
         C            2.069767028203     1.424746005393    -0.049362641244    12.000000000000
         C            3.027556028203     0.257605005393     0.003310358756    12.000000000000
         C           -3.237851971797     1.462569005393     0.000151358756    12.000000000000
         C           -3.198163971797     2.665652005393    -0.909932641244    12.000000000000
         H           -0.195266971797     0.170778005393    -1.053858641244     1.007825032230
         H            0.605967028203    -2.115552994607    -0.689001641244     1.007825032230
         H            0.946592028203     0.845719005393     1.683660358756     1.007825032230
         H            2.314936028203    -0.704312994607    -1.772801641244     1.007825032230
         H            1.872796028203     1.676145005393    -1.105201641244     1.007825032230
         H            3.223673028203    -0.002382994607     1.053804358756     1.007825032230
         H            0.522082028203    -1.966341994607     1.640250358756     1.007825032230
         H            0.369296028203     2.962707005393     0.790217358756     1.007825032230
         H            3.188856028203    -2.442899994607     0.233710358756     1.007825032230
         H            3.476722028203     2.713379005393     0.274680358756     1.007825032230
         H            4.773415028203    -0.126050994607    -0.726850641244     1.007825032230
         H           -3.777871971797    -2.143233994607     0.988484358756     1.007825032230
         H           -4.238003971797     1.272933005393     0.398222358756     1.007825032230
         H           -2.525823971797     1.570374005393     0.819367358756     1.007825032230
         H           -3.530744971797     3.551984005393    -0.361129641244     1.007825032230
         H           -2.176196971797     2.830690005393    -1.253555641244     1.007825032230
         H           -3.854251971797     2.520165005393    -1.770857641244     1.007825032230

  Basis Set: AUG-CC-PVTZ
    Blend: AUG-CC-PVTZ
  Basis Set: (AUG-CC-PVTZ AUX)
    Blend: AUG-CC-PVTZ-JKFIT
	 Reference Energy          =   -1327.8595424786537933 [Eh]
	 Singles Energy            =      -0.0000000000000000 [Eh]
	 Same-Spin Energy          =      -1.0144993618663638 [Eh]
	 Opposite-Spin Energy      =      -3.0761622876559445 [Eh]
	 Correlation Energy        =      -4.0906616495223087 [Eh]
	 Total Energy              =   -1331.9502041281762104 [Eh]

	 ================> DF-SCS-MP2 Energies <==================
	-----------------------------------------------------------
	 SCS Same-Spin Scale       =       0.3333333333333333 [-]
	 SCS Opposite-Spin Scale   =       1.2000000000000000 [-]
	 SCS Same-Spin Energy      =      -0.3381664539554546 [Eh]
	 SCS Opposite-Spin Energy  =      -3.6913947451871332 [Eh]
	 SCS Correlation Energy    =      -4.0295611991425879 [Eh]
	 SCS Total Energy          =   -1331.8891036777963564 [Eh]
	-----------------------------------------------------------

  Dipole Moment: [D]
     X:    -0.8274      Y:     1.3682      Z:     1.8978     Total:     2.4816

*** Psi4 exiting successfully. Buy a developer a beer!
