                               Psi4 1.3.2 release

  ==> Input File <==

--------------------------------------------------------------------------
#psi4
#
memory 32 gb

molecule  {
0 1
  P       -2.2900960    -0.9400430     0.3446780
  O       -0.9821530    -0.2015620     0.9382890
  O        1.3422500    -1.6754830     1.2308510
  O        0.0787050     2.3596040     0.4621680
  O        3.0685150    -2.1870720    -0.8085900
  O        2.8473350     2.5031130     0.3715350
  O        4.1956880     0.4353970    -0.9728740
  O       -2.8268630     0.0333510    -0.8075310
  O       -3.2591210    -0.7232820     1.6216710
  O       -2.1189930    -2.3436440    -0.0996680
  C        0.1181620     0.0300090     0.0163190
  C        0.9532920    -1.2442050    -0.0757250
  C        0.8985890     1.2026440     0.5648510
  C        2.2596600    -1.0143070    -0.8180370
  C        2.1770750     1.3964720    -0.2280410
  C        3.0201862     0.1462408    -0.2890925
  C       -3.1242130     1.4315980    -0.4888860
  C       -3.5363170     2.0851650    -1.7841190
  H       -0.2830920     0.2988010    -0.9702380
  H        0.3702690    -2.0293640    -0.5720320
  H        1.1571200     0.9978770     1.6121560
  H        2.0609340    -0.7886600    -1.8727560
  H        1.9470250     1.5897752    -1.2901266
  H        3.2958550    -0.0945320     0.8276460
  H        0.5217750    -1.8880320     1.7115100
  H        0.6655400     3.1093110     0.6831840
  H        2.9735430    -2.5473740     0.0946540
  H        3.7214290     2.5491860    -0.0588690
  H        4.6397270    -0.4238340    -1.0970870
  H       -3.8083950    -1.5223380     1.7347280
  H       -3.9305460     1.4455410     0.2493860
  H       -2.2297620     1.8928800    -0.0590960
  H       -3.8005210     3.1308820    -1.6026710
  H       -2.7171960     2.0533230    -2.5048750
  H       -4.4009440     1.5743230    -2.2127240
units angstrom
no_reorient  #important for SAPT in psi4, default
symmetry c1  #important for SAPT in psi4, default
}

set PROPERTIES_ORIGIN ["COM"]
properties('MP2/aug-cc-pvtz', properties = ['dipole'])
--------------------------------------------------------------------------

    Molecular point group: c1
  Charge       = 0
  Multiplicity = 1
  Basis Set: AUG-CC-PVTZ
    Blend: AUG-CC-PVTZ
  Basis Set: (AUG-CC-PVTZ AUX)
    Blend: AUG-CC-PVTZ-JKFIT

    Orbital Energies [Eh]
    ---------------------

    Doubly Occupied:

       1A    -80.116932     2A    -20.614685     3A    -20.607012
       4A    -20.598888     5A    -20.582370     6A    -20.579139
       7A    -20.578960     8A    -20.575195     9A    -20.573408
      10A    -20.523479    11A    -11.320817    12A    -11.304922
      13A    -11.299387    14A    -11.299310    15A    -11.298375
      16A    -11.297140    17A    -11.293866    18A    -11.229777
      19A     -7.632382    20A     -5.530888    21A     -5.530514
      22A     -5.529314    23A     -1.460252    24A     -1.413827
      25A     -1.399681    26A     -1.393282    27A     -1.387036
      28A     -1.377310    29A     -1.364360    30A     -1.357562
      31A     -1.303868    32A     -1.120778    33A     -1.040429
      34A     -1.014640    35A     -1.004353    36A     -0.880591
      37A     -0.865206    38A     -0.862527    39A     -0.821164
      40A     -0.807079    41A     -0.753156    42A     -0.747212
      43A     -0.733001    44A     -0.728285    45A     -0.708621
      46A     -0.688423    47A     -0.679265    48A     -0.675086
      49A     -0.665337    50A     -0.661452    51A     -0.644044
      52A     -0.636282    53A     -0.627466    54A     -0.615555
      55A     -0.604273    56A     -0.596712    57A     -0.583327
      58A     -0.575452    59A     -0.571235    60A     -0.559759
      61A     -0.558869    62A     -0.548673    63A     -0.541690
      64A     -0.539353    65A     -0.530408    66A     -0.521911
      67A     -0.514157    68A     -0.501609    69A     -0.497183
      70A     -0.483899    71A     -0.479873    72A     -0.476331
      73A     -0.463804    74A     -0.451039    75A     -0.446988
      76A     -0.433235

  @DF-RHF Final Energy: -1327.85380566081722

   => Energetics <=

    Nuclear Repulsion Energy =           1772.8993625598820927
    One-Electron Energy =               -5357.8389984489422204
    Two-Electron Energy =                2257.0858302282426848
    Total Energy =                      -1327.8538056608172155
  Basis Set: (AUG-CC-PVTZ AUX)
    Blend: AUG-CC-PVTZ-RI
    Molecular point group: c1

    Geometry (in Angstrom), charge = 0, multiplicity = 1:

       Center              X                  Y                   Z               Mass
    ------------   -----------------  -----------------  -----------------  -----------------
         P           -2.289965451236    -0.939777600510     0.348017279984    30.973761998420
         O           -0.982022451236    -0.201296600510     0.941628279984    15.994914619570
         O            1.342380548764    -1.675217600510     1.234190279984    15.994914619570
         O            0.078835548764     2.359869399490     0.465507279984    15.994914619570
         O            3.068645548764    -2.186806600510    -0.805250720016    15.994914619570
         O            2.847465548764     2.503378399490     0.374874279984    15.994914619570
         O            4.195818548764     0.435662399490    -0.969534720016    15.994914619570
         O           -2.826732451236     0.033616399490    -0.804191720016    15.994914619570
         O           -3.258990451236    -0.723016600510     1.625010279984    15.994914619570
         O           -2.118862451236    -2.343378600510    -0.096328720016    15.994914619570
         C            0.118292548764     0.030274399490     0.019658279984    12.000000000000
         C            0.953422548764    -1.243939600510    -0.072385720016    12.000000000000
         C            0.898719548764     1.202909399490     0.568190279984    12.000000000000
         C            2.259790548764    -1.014041600510    -0.814697720016    12.000000000000
         C            2.177205548764     1.396737399490    -0.224701720016    12.000000000000
         C            3.020316748764     0.146506199490    -0.285753220016    12.000000000000
         C           -3.124082451236     1.431863399490    -0.485546720016    12.000000000000
         C           -3.536186451236     2.085430399490    -1.780779720016    12.000000000000
         H           -0.282961451236     0.299066399490    -0.966898720016     1.007825032230
         H            0.370399548764    -2.029098600510    -0.568692720016     1.007825032230
         H            1.157250548764     0.998142399490     1.615495279984     1.007825032230
         H            2.061064548764    -0.788394600510    -1.869416720016     1.007825032230
         H            1.947155548764     1.590040599490    -1.286787320016     1.007825032230
         H            3.295985548764    -0.094266600510     0.830985279984     1.007825032230
         H            0.521905548764    -1.887766600510     1.714849279984     1.007825032230
         H            0.665670548764     3.109576399490     0.686523279984     1.007825032230
         H            2.973673548764    -2.547108600510     0.097993279984     1.007825032230
         H            3.721559548764     2.549451399490    -0.055529720016     1.007825032230
         H            4.639857548764    -0.423568600510    -1.093747720016     1.007825032230
         H           -3.808264451236    -1.522072600510     1.738067279984     1.007825032230
         H           -3.930415451236     1.445806399490     0.252725279984     1.007825032230
         H           -2.229631451236     1.893145399490    -0.055756720016     1.007825032230
         H           -3.800390451236     3.131147399490    -1.599331720016     1.007825032230
         H           -2.717065451236     2.053588399490    -2.501535720016     1.007825032230
         H           -4.400813451236     1.574588399490    -2.209384720016     1.007825032230

  Basis Set: AUG-CC-PVTZ
    Blend: AUG-CC-PVTZ
  Basis Set: (AUG-CC-PVTZ AUX)
    Blend: AUG-CC-PVTZ-JKFIT
	 Reference Energy          =   -1327.8538056608172155 [Eh]
	 Singles Energy            =      -0.0000000000000000 [Eh]
	 Same-Spin Energy          =      -1.0151108573964358 [Eh]
	 Opposite-Spin Energy      =      -3.0763809644812108 [Eh]
	 Correlation Energy        =      -4.0914918218776464 [Eh]
	 Total Energy              =   -1331.9452974826949685 [Eh]

	 ================> DF-SCS-MP2 Energies <==================
	-----------------------------------------------------------
	 SCS Same-Spin Scale       =       0.3333333333333333 [-]
	 SCS Opposite-Spin Scale   =       1.2000000000000000 [-]
	 SCS Same-Spin Energy      =      -0.3383702857988119 [Eh]
	 SCS Opposite-Spin Energy  =      -3.6916571573774526 [Eh]
	 SCS Correlation Energy    =      -4.0300274431762642 [Eh]
	 SCS Total Energy          =   -1331.8838331039935383 [Eh]
	-----------------------------------------------------------

  Dipole Moment: [D]
     X:    -1.0395      Y:     1.8924      Z:     0.6061     Total:     2.2425

*** Psi4 exiting successfully. Buy a developer a beer!
