                               Psi4 1.4a3.dev225

  ==> Input File <==

--------------------------------------------------------------------------
#psi4
#
memory 32 gb

molecule  {
0 1
  P       -2.3219140    -1.0563120    -0.0968450
  O       -1.0285840    -0.5623410     0.7549430
  O        1.3695440    -1.8069540     1.2202350
  O       -0.1592450     2.1412630     0.5207450
  O        3.3269040    -2.0858120    -0.6453880
  O        2.5724350     2.5270130     0.6374560
  O        4.2203020     0.6406430    -0.6358120
  O       -2.8737010     0.2643620    -0.8096810
  O       -3.3065970    -1.3497020     1.1531960
  O       -2.1044560    -2.1814480    -1.0350500
  C        0.1200290    -0.1583450    -0.0432010
  C        1.0698050    -1.3527180    -0.1046720
  C        0.7441670     1.0454510     0.6308160
  C        2.4193320    -0.9866070    -0.7068450
  C        2.0603010     1.3853380    -0.0470020
  C        3.0180900     0.2181970     0.0056710
  C       -3.2473180     1.4231610     0.0025120
  C       -3.2076300     2.6262440    -0.9075720
  H       -0.2195190     0.1445603    -1.0974043
  H        0.5965010    -2.1549610    -0.6866410
  H        0.9371260     0.8063110     1.6860210
  H        2.3054700    -0.7437210    -1.7704410
  H        1.8633300     1.6367370    -1.1028410
  H        3.2142070    -0.0417910     1.0561650
  H        0.5126160    -2.0057500     1.6426110
  H        0.3598300     2.9232990     0.7925780
  H        3.1793900    -2.4823080     0.2360710
  H        3.4672560     2.6739710     0.2770410
  H        4.7639490    -0.1654590    -0.7244900
  H       -3.7873380    -2.1826420     0.9908450
  H       -4.2474700     1.2335250     0.4005830
  H       -2.5352900     1.5309660     0.8217280
  H       -3.5402110     3.5125760    -0.3587690
  H       -2.1856630     2.7912820    -1.2511950
  H       -3.8637180     2.4807570    -1.7684970
units angstrom
no_reorient  #important for SAPT in psi4, default
symmetry c1  #important for SAPT in psi4, default
}

set PROPERTIES_ORIGIN ["COM"]
properties('MP2/aug-cc-pvtz', properties = ['dipole'])
--------------------------------------------------------------------------

    Molecular point group: c1
  Charge       = 0
  Multiplicity = 1
  Basis Set: AUG-CC-PVTZ
    Blend: AUG-CC-PVTZ
  Basis Set: (AUG-CC-PVTZ AUX)
    Blend: AUG-CC-PVTZ-JKFIT

    Orbital Energies [Eh]
    ---------------------

    Doubly Occupied:

       1A    -80.116933     2A    -20.615089     3A    -20.608676
       4A    -20.595957     5A    -20.584402     6A    -20.578483
       7A    -20.575327     8A    -20.575174     9A    -20.574624
      10A    -20.522465    11A    -11.326745    12A    -11.305547
      13A    -11.300974    14A    -11.300260    15A    -11.298337
      16A    -11.296135    17A    -11.292998    18A    -11.222882
      19A     -7.632185    20A     -5.530719    21A     -5.530220
      22A     -5.529153    23A     -1.458597    24A     -1.411005
      25A     -1.395528    26A     -1.392754    27A     -1.385185
      28A     -1.372862    29A     -1.364270    30A     -1.354298
      31A     -1.302667    32A     -1.118060    33A     -1.035480
      34A     -1.009847    35A     -1.003639    36A     -0.877626
      37A     -0.862026    38A     -0.859428    39A     -0.822248
      40A     -0.807082    41A     -0.754369    42A     -0.744549
      43A     -0.729116    44A     -0.725513    45A     -0.705078
      46A     -0.686616    47A     -0.678837    48A     -0.674173
      49A     -0.662370    50A     -0.659250    51A     -0.642214
      52A     -0.637674    53A     -0.623702    54A     -0.613105
      55A     -0.604030    56A     -0.596999    57A     -0.579817
      58A     -0.577815    59A     -0.570078    60A     -0.559854
      61A     -0.554941    62A     -0.547330    63A     -0.537878
      64A     -0.537583    65A     -0.529394    66A     -0.517838
      67A     -0.508294    68A     -0.503163    69A     -0.494345
      70A     -0.486943    71A     -0.478363    72A     -0.475473
      73A     -0.462769    74A     -0.457157    75A     -0.451125
      76A     -0.436761

  @DF-RHF Final Energy: -1327.85849633097018

   => Energetics <=

    Nuclear Repulsion Energy =           1774.3177639374780483
    One-Electron Energy =               -5360.8517251461944397
    Two-Electron Energy =                2258.6754648777464354
    Total Energy =                      -1327.8584963309699560
  Basis Set: (AUG-CC-PVTZ AUX)
    Blend: AUG-CC-PVTZ-RI
    Molecular point group: c1

    Geometry (in Angstrom), charge = 0, multiplicity = 1:

       Center              X                  Y                   Z               Mass
    ------------   -----------------  -----------------  -----------------  -----------------
         P           -2.311100886022    -1.018579089405    -0.099128867516    30.973761998420
         O           -1.017770886022    -0.524608089405     0.752659132484    15.994914619570
         O            1.380357113978    -1.769221089405     1.217951132484    15.994914619570
         O           -0.148431886022     2.178995910595     0.518461132484    15.994914619570
         O            3.337717113978    -2.048079089405    -0.647671867516    15.994914619570
         O            2.583248113978     2.564745910595     0.635172132484    15.994914619570
         O            4.231115113978     0.678375910595    -0.638095867516    15.994914619570
         O           -2.862887886022     0.302094910595    -0.811964867516    15.994914619570
         O           -3.295783886022    -1.311969089405     1.150912132484    15.994914619570
         O           -2.093642886022    -2.143715089405    -1.037333867516    15.994914619570
         C            0.130842113978    -0.120612089405    -0.045484867516    12.000000000000
         C            1.080618113978    -1.314985089405    -0.106955867516    12.000000000000
         C            0.754980113978     1.083183910595     0.628532132484    12.000000000000
         C            2.430145113978    -0.948874089405    -0.709128867516    12.000000000000
         C            2.071114113978     1.423070910595    -0.049285867516    12.000000000000
         C            3.028903113978     0.255929910595     0.003387132484    12.000000000000
         C           -3.236504886022     1.460893910595     0.000228132484    12.000000000000
         C           -3.196816886022     2.663976910595    -0.909855867516    12.000000000000
         H           -0.208705886022     0.182293210595    -1.099688167516     1.007825032230
         H            0.607314113978    -2.117228089405    -0.688924867516     1.007825032230
         H            0.947939113978     0.844043910595     1.683737132484     1.007825032230
         H            2.316283113978    -0.705988089405    -1.772724867516     1.007825032230
         H            1.874143113978     1.674469910595    -1.105124867516     1.007825032230
         H            3.225020113978    -0.004058089405     1.053881132484     1.007825032230
         H            0.523429113978    -1.968017089405     1.640327132484     1.007825032230
         H            0.370643113978     2.961031910595     0.790294132484     1.007825032230
         H            3.190203113978    -2.444575089405     0.233787132484     1.007825032230
         H            3.478069113978     2.711703910595     0.274757132484     1.007825032230
         H            4.774762113978    -0.127726089405    -0.726773867516     1.007825032230
         H           -3.776524886022    -2.144909089405     0.988561132484     1.007825032230
         H           -4.236656886022     1.271257910595     0.398299132484     1.007825032230
         H           -2.524476886022     1.568698910595     0.819444132484     1.007825032230
         H           -3.529397886022     3.550308910595    -0.361052867516     1.007825032230
         H           -2.174849886022     2.829014910595    -1.253478867516     1.007825032230
         H           -3.852904886022     2.518489910595    -1.770780867516     1.007825032230

  Basis Set: AUG-CC-PVTZ
    Blend: AUG-CC-PVTZ
  Basis Set: (AUG-CC-PVTZ AUX)
    Blend: AUG-CC-PVTZ-JKFIT
	 Reference Energy          =   -1327.8584963309701834 [Eh]
	 Singles Energy            =      -0.0000000000000000 [Eh]
	 Same-Spin Energy          =      -1.0149100515866485 [Eh]
	 Opposite-Spin Energy      =      -3.0771402369824452 [Eh]
	 Correlation Energy        =      -4.0920502885690935 [Eh]
	 Total Energy              =   -1331.9505466195391818 [Eh]

	 ================> DF-SCS-MP2 Energies <==================
	-----------------------------------------------------------
	 SCS Same-Spin Scale       =       0.3333333333333333 [-]
	 SCS Opposite-Spin Scale   =       1.2000000000000000 [-]
	 SCS Same-Spin Energy      =      -0.3383033505288828 [Eh]
	 SCS Opposite-Spin Energy  =      -3.6925682843789343 [Eh]
	 SCS Correlation Energy    =      -4.0308716349078173 [Eh]
	 SCS Total Energy          =   -1331.8893679658779092 [Eh]
	-----------------------------------------------------------

  Dipole Moment: [D]
     X:    -0.8688      Y:     1.4159      Z:     1.8870     Total:     2.5141

*** Psi4 exiting successfully. Buy a developer a beer!
