                               Psi4 1.3.2 release

  ==> Input File <==

--------------------------------------------------------------------------
#psi4
#
memory 32 gb

molecule  {
0 1
  P       -2.2900960    -0.9400430     0.3446780
  O       -0.9655368    -0.1627574     0.9664690
  O        1.3422500    -1.6754830     1.2308510
  O        0.0787050     2.3596040     0.4621680
  O        3.0685150    -2.1870720    -0.8085900
  O        2.8473350     2.5031130     0.3715350
  O        4.1956880     0.4353970    -0.9728740
  O       -2.8268630     0.0333510    -0.8075310
  O       -3.2591210    -0.7232820     1.6216710
  O       -2.1189930    -2.3436440    -0.0996680
  C        0.1181620     0.0300090     0.0163190
  C        0.9532920    -1.2442050    -0.0757250
  C        0.8645487     1.2052948     0.6050777
  C        2.2596600    -1.0143070    -0.8180370
  C        2.1770750     1.3964720    -0.2280410
  C        3.0258420     0.1487050    -0.2103220
  C       -3.1242130     1.4315980    -0.4888860
  C       -3.5363170     2.0851650    -1.7841190
  H       -0.2830920     0.2988010    -0.9702380
  H        0.3702690    -2.0293640    -0.5720320
  H        1.1571200     0.9978770     1.6121560
  H        2.0609340    -0.7886600    -1.8727560
  H        1.9169870     1.6362870    -1.2735830
  H        3.2958550    -0.0945320     0.8276460
  H        0.5217750    -1.8880320     1.7115100
  H        0.6655400     3.1093110     0.6831840
  H        2.9735430    -2.5473740     0.0946540
  H        3.7214290     2.5491860    -0.0588690
  H        4.6397270    -0.4238340    -1.0970870
  H       -3.8083950    -1.5223380     1.7347280
  H       -3.9305460     1.4455410     0.2493860
  H       -2.2297620     1.8928800    -0.0590960
  H       -3.8005210     3.1308820    -1.6026710
  H       -2.7171960     2.0533230    -2.5048750
  H       -4.4009440     1.5743230    -2.2127240
units angstrom
no_reorient  #important for SAPT in psi4, default
symmetry c1  #important for SAPT in psi4, default
}

set PROPERTIES_ORIGIN ["COM"]
properties('MP2/aug-cc-pvtz', properties = ['dipole'])
--------------------------------------------------------------------------

    Molecular point group: c1
  Charge       = 0
  Multiplicity = 1
  Basis Set: AUG-CC-PVTZ
    Blend: AUG-CC-PVTZ
  Basis Set: (AUG-CC-PVTZ AUX)
    Blend: AUG-CC-PVTZ-JKFIT

    Orbital Energies [Eh]
    ---------------------

    Doubly Occupied:

       1A    -80.121201     2A    -20.616327     3A    -20.605987
       4A    -20.601706     5A    -20.582498     6A    -20.574091
       7A    -20.573633     8A    -20.573539     9A    -20.572364
      10A    -20.528395    11A    -11.316863    12A    -11.303039
      13A    -11.300367    14A    -11.298205    15A    -11.295676
      16A    -11.294385    17A    -11.289039    18A    -11.230606
      19A     -7.636087    20A     -5.534624    21A     -5.534087
      22A     -5.533008    23A     -1.456233    24A     -1.410077
      25A     -1.393523    26A     -1.391689    27A     -1.388466
      28A     -1.370693    29A     -1.364143    30A     -1.352515
      31A     -1.307758    32A     -1.112418    33A     -1.041415
      34A     -1.008068    35A     -0.997782    36A     -0.876273
      37A     -0.863712    38A     -0.859382    39A     -0.821515
      40A     -0.810718    41A     -0.751668    42A     -0.743627
      43A     -0.731370    44A     -0.726363    45A     -0.704994
      46A     -0.687709    47A     -0.677865    48A     -0.673826
      49A     -0.661754    50A     -0.659210    51A     -0.642276
      52A     -0.632594    53A     -0.626764    54A     -0.615056
      55A     -0.601912    56A     -0.597891    57A     -0.583653
      58A     -0.576485    59A     -0.569311    60A     -0.559616
      61A     -0.556244    62A     -0.548047    63A     -0.542325
      64A     -0.536439    65A     -0.528845    66A     -0.519052
      67A     -0.513136    68A     -0.503892    69A     -0.497681
      70A     -0.484602    71A     -0.482375    72A     -0.479055
      73A     -0.457084    74A     -0.452146    75A     -0.446841
      76A     -0.434834

  @DF-RHF Final Energy: -1327.85395357952075

   => Energetics <=

    Nuclear Repulsion Energy =           1770.9364844315332448
    One-Electron Energy =               -5354.0835883116842524
    Two-Electron Energy =                2255.2931503006302592
    Total Energy =                      -1327.8539535795207485
  Basis Set: (AUG-CC-PVTZ AUX)
    Blend: AUG-CC-PVTZ-RI
    Molecular point group: c1

    Geometry (in Angstrom), charge = 0, multiplicity = 1:

       Center              X                  Y                   Z               Mass
    ------------   -----------------  -----------------  -----------------  -----------------
         P           -2.289600555117    -0.942308078332     0.341437506872    30.973761998420
         O           -0.965041355117    -0.165022478332     0.963228506872    15.994914619570
         O            1.342745444883    -1.677748078332     1.227610506872    15.994914619570
         O            0.079200444883     2.357338921668     0.458927506872    15.994914619570
         O            3.069010444883    -2.189337078332    -0.811830493128    15.994914619570
         O            2.847830444883     2.500847921668     0.368294506872    15.994914619570
         O            4.196183444883     0.433131921668    -0.976114493128    15.994914619570
         O           -2.826367555117     0.031085921668    -0.810771493128    15.994914619570
         O           -3.258625555117    -0.725547078332     1.618430506872    15.994914619570
         O           -2.118497555117    -2.345909078332    -0.102908493128    15.994914619570
         C            0.118657444883     0.027743921668     0.013078506872    12.000000000000
         C            0.953787444883    -1.246470078332    -0.078965493128    12.000000000000
         C            0.865044144883     1.203029721668     0.601837206872    12.000000000000
         C            2.260155444883    -1.016572078332    -0.821277493128    12.000000000000
         C            2.177570444883     1.394206921668    -0.231281493128    12.000000000000
         C            3.026337444883     0.146439921668    -0.213562493128    12.000000000000
         C           -3.123717555117     1.429332921668    -0.492126493128    12.000000000000
         C           -3.535821555117     2.082899921668    -1.787359493128    12.000000000000
         H           -0.282596555117     0.296535921668    -0.973478493128     1.007825032230
         H            0.370764444883    -2.031629078332    -0.575272493128     1.007825032230
         H            1.157615444883     0.995611921668     1.608915506872     1.007825032230
         H            2.061429444883    -0.790925078332    -1.875996493128     1.007825032230
         H            1.917482444883     1.634021921668    -1.276823493128     1.007825032230
         H            3.296350444883    -0.096797078332     0.824405506872     1.007825032230
         H            0.522270444883    -1.890297078332     1.708269506872     1.007825032230
         H            0.666035444883     3.107045921668     0.679943506872     1.007825032230
         H            2.974038444883    -2.549639078332     0.091413506872     1.007825032230
         H            3.721924444883     2.546920921668    -0.062109493128     1.007825032230
         H            4.640222444883    -0.426099078332    -1.100327493128     1.007825032230
         H           -3.807899555117    -1.524603078332     1.731487506872     1.007825032230
         H           -3.930050555117     1.443275921668     0.246145506872     1.007825032230
         H           -2.229266555117     1.890614921668    -0.062336493128     1.007825032230
         H           -3.800025555117     3.128616921668    -1.605911493128     1.007825032230
         H           -2.716700555117     2.051057921668    -2.508115493128     1.007825032230
         H           -4.400448555117     1.572057921668    -2.215964493128     1.007825032230

  Basis Set: AUG-CC-PVTZ
    Blend: AUG-CC-PVTZ
  Basis Set: (AUG-CC-PVTZ AUX)
    Blend: AUG-CC-PVTZ-JKFIT
	 Reference Energy          =   -1327.8539535795207485 [Eh]
	 Singles Energy            =      -0.0000000000000000 [Eh]
	 Same-Spin Energy          =      -1.0152467573348669 [Eh]
	 Opposite-Spin Energy      =      -3.0778621040362850 [Eh]
	 Correlation Energy        =      -4.0931088613711522 [Eh]
	 Total Energy              =   -1331.9470624408918411 [Eh]

	 ================> DF-SCS-MP2 Energies <==================
	-----------------------------------------------------------
	 SCS Same-Spin Scale       =       0.3333333333333333 [-]
	 SCS Opposite-Spin Scale   =       1.2000000000000000 [-]
	 SCS Same-Spin Energy      =      -0.3384155857782890 [Eh]
	 SCS Opposite-Spin Energy  =      -3.6934345248435418 [Eh]
	 SCS Correlation Energy    =      -4.0318501106218312 [Eh]
	 SCS Total Energy          =   -1331.8858036901426658 [Eh]
	-----------------------------------------------------------

  Dipole Moment: [D]
     X:    -1.3936      Y:     1.7743      Z:     0.7051     Total:     2.3637

*** Psi4 exiting successfully. Buy a developer a beer!
