                               Psi4 1.3.2 release

  ==> Input File <==

--------------------------------------------------------------------------
#psi4
#
memory 32 gb

molecule  {
0 1
  P       -2.2900960    -0.9400430     0.3446780
  O       -0.9821530    -0.2015620     0.9382890
  O        1.3422500    -1.6754830     1.2308510
  O        0.0787050     2.3596040     0.4621680
  O        3.0685150    -2.1870720    -0.8085900
  O        2.8473350     2.5031130     0.3715350
  O        4.1956880     0.4353970    -0.9728740
  O       -2.8268630     0.0333510    -0.8075310
  O       -3.2591210    -0.7232820     1.6216710
  O       -2.1189930    -2.3436440    -0.0996680
  C        0.1181620     0.0300090     0.0163190
  C        0.9532920    -1.2442050    -0.0757250
  C        0.7832527     1.3653981     0.5504062
  C        2.2596600    -1.0143070    -0.8180370
  C        2.1770750     1.3964720    -0.2280410
  C        3.0258420     0.1487050    -0.2103220
  C       -3.1242130     1.4315980    -0.4888860
  C       -3.5363170     2.0851650    -1.7841190
  H       -0.2830920     0.2988010    -0.9702380
  H        0.3702690    -2.0293640    -0.5720320
  H        1.1571200     0.9978770     1.6121560
  H        2.0609340    -0.7886600    -1.8727560
  H        1.9169870     1.6362870    -1.2735830
  H        3.2958550    -0.0945320     0.8276460
  H        0.5217750    -1.8880320     1.7115100
  H        0.6655400     3.1093110     0.6831840
  H        2.9735430    -2.5473740     0.0946540
  H        3.7214290     2.5491860    -0.0588690
  H        4.6397270    -0.4238340    -1.0970870
  H       -3.8083950    -1.5223380     1.7347280
  H       -3.9305460     1.4455410     0.2493860
  H       -2.2297620     1.8928800    -0.0590960
  H       -3.8005210     3.1308820    -1.6026710
  H       -2.7171960     2.0533230    -2.5048750
  H       -4.4009440     1.5743230    -2.2127240
units angstrom
no_reorient  #important for SAPT in psi4, default
symmetry c1  #important for SAPT in psi4, default
}

set PROPERTIES_ORIGIN ["COM"]
properties('MP2/aug-cc-pvtz', properties = ['dipole'])
--------------------------------------------------------------------------

    Molecular point group: c1
  Charge       = 0
  Multiplicity = 1
  Basis Set: AUG-CC-PVTZ
    Blend: AUG-CC-PVTZ
  Basis Set: (AUG-CC-PVTZ AUX)
    Blend: AUG-CC-PVTZ-JKFIT

    Orbital Energies [Eh]
    ---------------------

    Doubly Occupied:

       1A    -80.114876     2A    -20.613621     3A    -20.602710
       4A    -20.599034     5A    -20.597763     6A    -20.578881
       7A    -20.572904     8A    -20.572002     9A    -20.571456
      10A    -20.521804    11A    -11.315504    12A    -11.307555
      13A    -11.302533    14A    -11.302334    15A    -11.295818
      16A    -11.290332    17A    -11.289078    18A    -11.232140
      19A     -7.630403    20A     -5.528906    21A     -5.528506
      22A     -5.527339    23A     -1.487377    24A     -1.456967
      25A     -1.403971    26A     -1.391437    27A     -1.386763
      28A     -1.379170    29A     -1.364911    30A     -1.352629
      31A     -1.302278    32A     -1.101031    33A     -1.042607
      34A     -1.003288    35A     -0.989358    36A     -0.877300
      37A     -0.866926    38A     -0.864018    39A     -0.822478
      40A     -0.806331    41A     -0.776062    42A     -0.743735
      43A     -0.735299    44A     -0.728083    45A     -0.704333
      46A     -0.698092    47A     -0.680602    48A     -0.674810
      49A     -0.669930    50A     -0.660896    51A     -0.649817
      52A     -0.645339    53A     -0.633189    54A     -0.623800
      55A     -0.610170    56A     -0.605002    57A     -0.585419
      58A     -0.576000    59A     -0.569708    60A     -0.562629
      61A     -0.559176    62A     -0.548508    63A     -0.541839
      64A     -0.537653    65A     -0.529454    66A     -0.512867
      67A     -0.511722    68A     -0.499843    69A     -0.492645
      70A     -0.479461    71A     -0.475565    72A     -0.470189
      73A     -0.452425    74A     -0.444772    75A     -0.429580
      76A     -0.415847

  @DF-RHF Final Energy: -1327.81446750855366

   => Energetics <=

    Nuclear Repulsion Energy =           1771.8931315999866456
    One-Electron Energy =               -5355.7576009999311282
    Two-Electron Energy =                2256.0500018913908207
    Total Energy =                      -1327.8144675085536619
  Basis Set: (AUG-CC-PVTZ AUX)
    Blend: AUG-CC-PVTZ-RI
    Molecular point group: c1

    Geometry (in Angstrom), charge = 0, multiplicity = 1:

       Center              X                  Y                   Z               Mass
    ------------   -----------------  -----------------  -----------------  -----------------
         P           -2.285291305972    -0.946822966671     0.345279729945    30.973761998420
         O           -0.977348305972    -0.208341966671     0.938890729945    15.994914619570
         O            1.347054694028    -1.682262966671     1.231452729945    15.994914619570
         O            0.083509694028     2.352824033329     0.462769729945    15.994914619570
         O            3.073319694028    -2.193851966671    -0.807988270055    15.994914619570
         O            2.852139694028     2.496333033329     0.372136729945    15.994914619570
         O            4.200492694028     0.428617033329    -0.972272270055    15.994914619570
         O           -2.822058305972     0.026571033329    -0.806929270055    15.994914619570
         O           -3.254316305972    -0.730061966671     1.622272729945    15.994914619570
         O           -2.114188305972    -2.350423966671    -0.099066270055    15.994914619570
         C            0.122966694028     0.023229033329     0.016920729945    12.000000000000
         C            0.958096694028    -1.250984966671    -0.075123270055    12.000000000000
         C            0.788057394028     1.358618133329     0.551007929945    12.000000000000
         C            2.264464694028    -1.021086966671    -0.817435270055    12.000000000000
         C            2.181879694028     1.389692033329    -0.227439270055    12.000000000000
         C            3.030646694028     0.141925033329    -0.209720270055    12.000000000000
         C           -3.119408305972     1.424818033329    -0.488284270055    12.000000000000
         C           -3.531512305972     2.078385033329    -1.783517270055    12.000000000000
         H           -0.278287305972     0.292021033329    -0.969636270055     1.007825032230
         H            0.375073694028    -2.036143966671    -0.571430270055     1.007825032230
         H            1.161924694028     0.991097033329     1.612757729945     1.007825032230
         H            2.065738694028    -0.795439966671    -1.872154270055     1.007825032230
         H            1.921791694028     1.629507033329    -1.272981270055     1.007825032230
         H            3.300659694028    -0.101311966671     0.828247729945     1.007825032230
         H            0.526579694028    -1.894811966671     1.712111729945     1.007825032230
         H            0.670344694028     3.102531033329     0.683785729945     1.007825032230
         H            2.978347694028    -2.554153966671     0.095255729945     1.007825032230
         H            3.726233694028     2.542406033329    -0.058267270055     1.007825032230
         H            4.644531694028    -0.430613966671    -1.096485270055     1.007825032230
         H           -3.803590305972    -1.529117966671     1.735329729945     1.007825032230
         H           -3.925741305972     1.438761033329     0.249987729945     1.007825032230
         H           -2.224957305972     1.886100033329    -0.058494270055     1.007825032230
         H           -3.795716305972     3.124102033329    -1.602069270055     1.007825032230
         H           -2.712391305972     2.046543033329    -2.504273270055     1.007825032230
         H           -4.396139305972     1.567543033329    -2.212122270055     1.007825032230

  Basis Set: AUG-CC-PVTZ
    Blend: AUG-CC-PVTZ
  Basis Set: (AUG-CC-PVTZ AUX)
    Blend: AUG-CC-PVTZ-JKFIT
	 Reference Energy          =   -1327.8144675085536619 [Eh]
	 Singles Energy            =      -0.0000000000000000 [Eh]
	 Same-Spin Energy          =      -1.0154388358727169 [Eh]
	 Opposite-Spin Energy      =      -3.0755268463748830 [Eh]
	 Correlation Energy        =      -4.0909656822475995 [Eh]
	 Total Energy              =   -1331.9054331908012045 [Eh]

	 ================> DF-SCS-MP2 Energies <==================
	-----------------------------------------------------------
	 SCS Same-Spin Scale       =       0.3333333333333333 [-]
	 SCS Opposite-Spin Scale   =       1.2000000000000000 [-]
	 SCS Same-Spin Energy      =      -0.3384796119575723 [Eh]
	 SCS Opposite-Spin Energy  =      -3.6906322156498597 [Eh]
	 SCS Correlation Energy    =      -4.0291118276074318 [Eh]
	 SCS Total Energy          =   -1331.8435793361611559 [Eh]
	-----------------------------------------------------------

  Dipole Moment: [D]
     X:    -1.5609      Y:     2.5595      Z:     0.6750     Total:     3.0730

*** Psi4 exiting successfully. Buy a developer a beer!
