                               Psi4 1.3.2 release

  ==> Input File <==

--------------------------------------------------------------------------
#psi4
#
memory 32 gb

molecule  {
0 1
  P       -2.2900960    -0.9400430     0.3446780
  O       -0.9821530    -0.2015620     0.9382890
  O        1.3422500    -1.6754830     1.2308510
  O        0.0780356     2.3566775     0.4375368
  O        3.0685150    -2.1870720    -0.8085900
  O        2.8473350     2.5031130     0.3715350
  O        4.1956880     0.4353970    -0.9728740
  O       -2.8268630     0.0333510    -0.8075310
  O       -3.2591210    -0.7232820     1.6216710
  O       -2.1189930    -2.3436440    -0.0996680
  C        0.1181620     0.0300090     0.0163190
  C        0.9532920    -1.2442050    -0.0757250
  C        0.8985890     1.2026440     0.5648510
  C        2.2596600    -1.0143070    -0.8180370
  C        2.1770750     1.3964720    -0.2280410
  C        3.0258420     0.1487050    -0.2103220
  C       -3.1242130     1.4315980    -0.4888860
  C       -3.5363170     2.0851650    -1.7841190
  H       -0.2830920     0.2988010    -0.9702380
  H        0.3702690    -2.0293640    -0.5720320
  H        1.1671870     0.9825812     1.6065050
  H        2.0609340    -0.7886600    -1.8727560
  H        1.9169870     1.6362870    -1.2735830
  H        3.2958550    -0.0945320     0.8276460
  H        0.5217750    -1.8880320     1.7115100
  H        0.6655400     3.1093110     0.6831840
  H        2.9735430    -2.5473740     0.0946540
  H        3.7214290     2.5491860    -0.0588690
  H        4.6397270    -0.4238340    -1.0970870
  H       -3.8083950    -1.5223380     1.7347280
  H       -3.9305460     1.4455410     0.2493860
  H       -2.2297620     1.8928800    -0.0590960
  H       -3.8005210     3.1308820    -1.6026710
  H       -2.7171960     2.0533230    -2.5048750
  H       -4.4009440     1.5743230    -2.2127240
units angstrom
no_reorient  #important for SAPT in psi4, default
symmetry c1  #important for SAPT in psi4, default
}

set PROPERTIES_ORIGIN ["COM"]
properties('MP2/aug-cc-pvtz', properties = ['dipole'])
--------------------------------------------------------------------------

    Molecular point group: c1
  Charge       = 0
  Multiplicity = 1
  Basis Set: AUG-CC-PVTZ
    Blend: AUG-CC-PVTZ
  Basis Set: (AUG-CC-PVTZ AUX)
    Blend: AUG-CC-PVTZ-JKFIT

    Orbital Energies [Eh]
    ---------------------

    Doubly Occupied:

       1A    -80.116910     2A    -20.614731     3A    -20.606984
       4A    -20.598868     5A    -20.583158     6A    -20.576691
       7A    -20.575279     8A    -20.574488     9A    -20.573925
      10A    -20.523392    11A    -11.320332    12A    -11.303305
      13A    -11.299302    14A    -11.299181    15A    -11.298723
      16A    -11.296131    17A    -11.291170    18A    -11.229774
      19A     -7.632359    20A     -5.530865    21A     -5.530492
      22A     -5.529290    23A     -1.460251    24A     -1.410760
      25A     -1.394585    26A     -1.392829    27A     -1.386798
      28A     -1.372512    29A     -1.363641    30A     -1.353619
      31A     -1.303784    32A     -1.118818    33A     -1.040376
      34A     -1.011802    35A     -1.003222    36A     -0.880232
      37A     -0.864842    38A     -0.858561    39A     -0.822268
      40A     -0.810572    41A     -0.751769    42A     -0.744964
      43A     -0.730782    44A     -0.728576    45A     -0.707881
      46A     -0.687223    47A     -0.678077    48A     -0.673598
      49A     -0.662282    50A     -0.660703    51A     -0.643008
      52A     -0.633811    53A     -0.627230    54A     -0.615187
      55A     -0.603829    56A     -0.598347    57A     -0.581606
      58A     -0.575521    59A     -0.571164    60A     -0.559354
      61A     -0.556326    62A     -0.548476    63A     -0.541081
      64A     -0.536491    65A     -0.529783    66A     -0.521933
      67A     -0.513079    68A     -0.504530    69A     -0.497024
      70A     -0.485120    71A     -0.479730    72A     -0.476562
      73A     -0.462236    74A     -0.455427    75A     -0.450228
      76A     -0.436125

  @DF-RHF Final Energy: -1327.86036974151966

   => Energetics <=

    Nuclear Repulsion Energy =           1772.6550565391503369
    One-Electron Energy =               -5357.4630833039045683
    Two-Electron Energy =                2256.9476570232345694
    Total Energy =                      -1327.8603697415196621
  Basis Set: (AUG-CC-PVTZ AUX)
    Blend: AUG-CC-PVTZ-RI
    Molecular point group: c1

    Geometry (in Angstrom), charge = 0, multiplicity = 1:

       Center              X                  Y                   Z               Mass
    ------------   -----------------  -----------------  -----------------  -----------------
         P           -2.290094018894    -0.939826970427     0.346065436949    30.973761998420
         O           -0.982151018894    -0.201345970427     0.939676436949    15.994914619570
         O            1.342251981106    -1.675266970427     1.232238436949    15.994914619570
         O            0.078037581106     2.356893529573     0.438924236949    15.994914619570
         O            3.068516981106    -2.186855970427    -0.807202563051    15.994914619570
         O            2.847336981106     2.503329029573     0.372922436949    15.994914619570
         O            4.195689981106     0.435613029573    -0.971486563051    15.994914619570
         O           -2.826861018894     0.033567029573    -0.806143563051    15.994914619570
         O           -3.259119018894    -0.723065970427     1.623058436949    15.994914619570
         O           -2.118991018894    -2.343427970427    -0.098280563051    15.994914619570
         C            0.118163981106     0.030225029573     0.017706436949    12.000000000000
         C            0.953293981106    -1.243988970427    -0.074337563051    12.000000000000
         C            0.898590981106     1.202860029573     0.566238436949    12.000000000000
         C            2.259661981106    -1.014090970427    -0.816649563051    12.000000000000
         C            2.177076981106     1.396688029573    -0.226653563051    12.000000000000
         C            3.025843981106     0.148921029573    -0.208934563051    12.000000000000
         C           -3.124211018894     1.431814029573    -0.487498563051    12.000000000000
         C           -3.536315018894     2.085381029573    -1.782731563051    12.000000000000
         H           -0.283090018894     0.299017029573    -0.968850563051     1.007825032230
         H            0.370270981106    -2.029147970427    -0.570644563051     1.007825032230
         H            1.167188981106     0.982797229573     1.607892436949     1.007825032230
         H            2.060935981106    -0.788443970427    -1.871368563051     1.007825032230
         H            1.916988981106     1.636503029573    -1.272195563051     1.007825032230
         H            3.295856981106    -0.094315970427     0.829033436949     1.007825032230
         H            0.521776981106    -1.887815970427     1.712897436949     1.007825032230
         H            0.665541981106     3.109527029573     0.684571436949     1.007825032230
         H            2.973544981106    -2.547157970427     0.096041436949     1.007825032230
         H            3.721430981106     2.549402029573    -0.057481563051     1.007825032230
         H            4.639728981106    -0.423617970427    -1.095699563051     1.007825032230
         H           -3.808393018894    -1.522121970427     1.736115436949     1.007825032230
         H           -3.930544018894     1.445757029573     0.250773436949     1.007825032230
         H           -2.229760018894     1.893096029573    -0.057708563051     1.007825032230
         H           -3.800519018894     3.131098029573    -1.601283563051     1.007825032230
         H           -2.717194018894     2.053539029573    -2.503487563051     1.007825032230
         H           -4.400942018894     1.574539029573    -2.211336563051     1.007825032230

  Basis Set: AUG-CC-PVTZ
    Blend: AUG-CC-PVTZ
  Basis Set: (AUG-CC-PVTZ AUX)
    Blend: AUG-CC-PVTZ-JKFIT
	 Reference Energy          =   -1327.8603697415196621 [Eh]
	 Singles Energy            =      -0.0000000000000000 [Eh]
	 Same-Spin Energy          =      -1.0148123469587669 [Eh]
	 Opposite-Spin Energy      =      -3.0765182424433921 [Eh]
	 Correlation Energy        =      -4.0913305894021592 [Eh]
	 Total Energy              =   -1331.9517003309217671 [Eh]

	 ================> DF-SCS-MP2 Energies <==================
	-----------------------------------------------------------
	 SCS Same-Spin Scale       =       0.3333333333333333 [-]
	 SCS Opposite-Spin Scale   =       1.2000000000000000 [-]
	 SCS Same-Spin Energy      =      -0.3382707823195890 [Eh]
	 SCS Opposite-Spin Energy  =      -3.6918218909320704 [Eh]
	 SCS Correlation Energy    =      -4.0300926732516595 [Eh]
	 SCS Total Energy          =   -1331.8904624147712639 [Eh]
	-----------------------------------------------------------

  Dipole Moment: [D]
     X:    -1.1226      Y:     1.8775      Z:     0.7676     Total:     2.3183

*** Psi4 exiting successfully. Buy a developer a beer!
