                               Psi4 1.3.2 release

  ==> Input File <==

--------------------------------------------------------------------------
#psi4
#
memory 32 gb

molecule  {
0 1
  P       -2.2900960    -0.9400430     0.3446780
  O       -0.9821530    -0.2015620     0.9382890
  O        1.3422500    -1.6754830     1.2308510
  O        0.0787050     2.3596040     0.4621680
  O        3.0685150    -2.1870720    -0.8085900
  O        2.8473350     2.5031130     0.3715350
  O        4.1956880     0.4353970    -0.9728740
  O       -2.8268630     0.0333510    -0.8075310
  O       -3.2591210    -0.7232820     1.6216710
  O       -2.1189930    -2.3436440    -0.0996680
  C        0.1181620     0.0300090     0.0163190
  C        0.9532920    -1.2442050    -0.0757250
  C        0.8985890     1.2026440     0.5648510
  C        2.2562786    -1.0236949    -0.8267768
  C        2.1770750     1.3964720    -0.2280410
  C        3.0258420     0.1487050    -0.2103220
  C       -3.1242130     1.4315980    -0.4888860
  C       -3.5363170     2.0851650    -1.7841190
  H       -0.2830920     0.2988010    -0.9702380
  H        0.3771864    -2.0303041    -0.5785785
  H        1.1571200     0.9978770     1.6121560
  H        2.0609340    -0.7886600    -1.8727560
  H        1.9169870     1.6362870    -1.2735830
  H        3.2958550    -0.0945320     0.8276460
  H        0.5217750    -1.8880320     1.7115100
  H        0.6655400     3.1093110     0.6831840
  H        2.9735430    -2.5473740     0.0946540
  H        3.7214290     2.5491860    -0.0588690
  H        4.6397270    -0.4238340    -1.0970870
  H       -3.8083950    -1.5223380     1.7347280
  H       -3.9305460     1.4455410     0.2493860
  H       -2.2297620     1.8928800    -0.0590960
  H       -3.8005210     3.1308820    -1.6026710
  H       -2.7171960     2.0533230    -2.5048750
  H       -4.4009440     1.5743230    -2.2127240
units angstrom
no_reorient  #important for SAPT in psi4, default
symmetry c1  #important for SAPT in psi4, default
}

set PROPERTIES_ORIGIN ["COM"]
properties('MP2/aug-cc-pvtz', properties = ['dipole'])
--------------------------------------------------------------------------

    Molecular point group: c1
  Charge       = 0
  Multiplicity = 1
  Basis Set: AUG-CC-PVTZ
    Blend: AUG-CC-PVTZ
  Basis Set: (AUG-CC-PVTZ AUX)
    Blend: AUG-CC-PVTZ-JKFIT

    Orbital Energies [Eh]
    ---------------------

    Doubly Occupied:

       1A    -80.116857     2A    -20.614672     3A    -20.607004
       4A    -20.598884     5A    -20.583375     6A    -20.576564
       7A    -20.575117     8A    -20.573707     9A    -20.573352
      10A    -20.523293    11A    -11.320903    12A    -11.303347
      13A    -11.299340    14A    -11.299151    15A    -11.298492
      16A    -11.296347    17A    -11.291294    18A    -11.229834
      19A     -7.632307    20A     -5.530813    21A     -5.530441
      22A     -5.529237    23A     -1.460228    24A     -1.410989
      25A     -1.394515    26A     -1.393437    27A     -1.386819
      28A     -1.372554    29A     -1.364631    30A     -1.354124
      31A     -1.303682    32A     -1.118105    33A     -1.040401
      34A     -1.010732    35A     -1.003501    36A     -0.879764
      37A     -0.864757    38A     -0.859283    39A     -0.822413
      40A     -0.810955    41A     -0.751661    42A     -0.744909
      43A     -0.731280    44A     -0.728550    45A     -0.707765
      46A     -0.686654    47A     -0.679168    48A     -0.673515
      49A     -0.661989    50A     -0.661141    51A     -0.642975
      52A     -0.634878    53A     -0.627440    54A     -0.615419
      55A     -0.603625    56A     -0.599350    57A     -0.581775
      58A     -0.575594    59A     -0.570972    60A     -0.559314
      61A     -0.556677    62A     -0.548475    63A     -0.541254
      64A     -0.537355    65A     -0.530205    66A     -0.521719
      67A     -0.513091    68A     -0.504319    69A     -0.496950
      70A     -0.485010    71A     -0.479793    72A     -0.476495
      73A     -0.462337    74A     -0.455581    75A     -0.450200
      76A     -0.433427

  @DF-RHF Final Energy: -1327.86154901203713

   => Energetics <=

    Nuclear Repulsion Energy =           1772.2529006625265993
    One-Electron Energy =               -5356.6567290379180122
    Two-Electron Energy =                2256.5422793633542824
    Total Energy =                      -1327.8615490120373579
  Basis Set: (AUG-CC-PVTZ AUX)
    Blend: AUG-CC-PVTZ-RI
    Molecular point group: c1

    Geometry (in Angstrom), charge = 0, multiplicity = 1:

       Center              X                  Y                   Z               Mass
    ------------   -----------------  -----------------  -----------------  -----------------
         P           -2.289979306914    -0.939648613603     0.345064975885    30.973761998420
         O           -0.982036306914    -0.201167613603     0.938675975885    15.994914619570
         O            1.342366693086    -1.675088613603     1.231237975885    15.994914619570
         O            0.078821693086     2.359998386397     0.462554975885    15.994914619570
         O            3.068631693086    -2.186677613603    -0.808203024115    15.994914619570
         O            2.847451693086     2.503507386397     0.371921975885    15.994914619570
         O            4.195804693086     0.435791386397    -0.972487024115    15.994914619570
         O           -2.826746306914     0.033745386397    -0.807144024115    15.994914619570
         O           -3.259004306914    -0.722887613603     1.622057975885    15.994914619570
         O           -2.118876306914    -2.343249613603    -0.099281024115    15.994914619570
         C            0.118278693086     0.030403386397     0.016705975885    12.000000000000
         C            0.953408693086    -1.243810613603    -0.075338024115    12.000000000000
         C            0.898705693086     1.203038386397     0.565237975885    12.000000000000
         C            2.256395293086    -1.023300513603    -0.826389824115    12.000000000000
         C            2.177191693086     1.396866386397    -0.227654024115    12.000000000000
         C            3.025958693086     0.149099386397    -0.209935024115    12.000000000000
         C           -3.124096306914     1.431992386397    -0.488499024115    12.000000000000
         C           -3.536200306914     2.085559386397    -1.783732024115    12.000000000000
         H           -0.282975306914     0.299195386397    -0.969851024115     1.007825032230
         H            0.377303093086    -2.029909713603    -0.578191524115     1.007825032230
         H            1.157236693086     0.998271386397     1.612542975885     1.007825032230
         H            2.061050693086    -0.788265613603    -1.872369024115     1.007825032230
         H            1.917103693086     1.636681386397    -1.273196024115     1.007825032230
         H            3.295971693086    -0.094137613603     0.828032975885     1.007825032230
         H            0.521891693086    -1.887637613603     1.711896975885     1.007825032230
         H            0.665656693086     3.109705386397     0.683570975885     1.007825032230
         H            2.973659693086    -2.546979613603     0.095040975885     1.007825032230
         H            3.721545693086     2.549580386397    -0.058482024115     1.007825032230
         H            4.639843693086    -0.423439613603    -1.096700024115     1.007825032230
         H           -3.808278306914    -1.521943613603     1.735114975885     1.007825032230
         H           -3.930429306914     1.445935386397     0.249772975885     1.007825032230
         H           -2.229645306914     1.893274386397    -0.058709024115     1.007825032230
         H           -3.800404306914     3.131276386397    -1.602284024115     1.007825032230
         H           -2.717079306914     2.053717386397    -2.504488024115     1.007825032230
         H           -4.400827306914     1.574717386397    -2.212337024115     1.007825032230

  Basis Set: AUG-CC-PVTZ
    Blend: AUG-CC-PVTZ
  Basis Set: (AUG-CC-PVTZ AUX)
    Blend: AUG-CC-PVTZ-JKFIT
	 Reference Energy          =   -1327.8615490120371305 [Eh]
	 Singles Energy            =      -0.0000000000000000 [Eh]
	 Same-Spin Energy          =      -1.0145036187341214 [Eh]
	 Opposite-Spin Energy      =      -3.0759098065702246 [Eh]
	 Correlation Energy        =      -4.0904134253043463 [Eh]
	 Total Energy              =   -1331.9519624373415354 [Eh]

	 ================> DF-SCS-MP2 Energies <==================
	-----------------------------------------------------------
	 SCS Same-Spin Scale       =       0.3333333333333333 [-]
	 SCS Opposite-Spin Scale   =       1.2000000000000000 [-]
	 SCS Same-Spin Energy      =      -0.3381678729113738 [Eh]
	 SCS Opposite-Spin Energy  =      -3.6910917678842692 [Eh]
	 SCS Correlation Energy    =      -4.0292596407956429 [Eh]
	 SCS Total Energy          =   -1331.8908086528326749 [Eh]
	-----------------------------------------------------------

  Dipole Moment: [D]
     X:    -1.1039      Y:     1.8361      Z:     0.7095     Total:     2.2569

*** Psi4 exiting successfully. Buy a developer a beer!
