                               Psi4 1.3.2 release

  ==> Input File <==

--------------------------------------------------------------------------
#psi4
#
memory 32 gb

molecule  {
0 1
  P       -2.2900960    -0.9400430     0.3446780
  O       -0.9821530    -0.2015620     0.9382890
  O        1.3422500    -1.6754830     1.2308510
  O        0.0787050     2.3596040     0.4621680
  O        3.0685150    -2.1870720    -0.8085900
  O        2.8473350     2.5031130     0.3715350
  O        4.1956880     0.4353970    -0.9728740
  O       -2.8268630     0.0333510    -0.8075310
  O       -3.2591210    -0.7232820     1.6216710
  O       -2.1189930    -2.3436440    -0.0996680
  C        0.1560061     0.0228818    -0.0197501
  C        0.9532920    -1.2442050    -0.0757250
  C        0.8985890     1.2026440     0.5648510
  C        2.2596600    -1.0143070    -0.8180370
  C        2.1635615     1.3550926    -0.2581784
  C        3.0258420     0.1487050    -0.2103220
  C       -3.1242130     1.4315980    -0.4888860
  C       -3.5363170     2.0851650    -1.7841190
  H       -0.2830920     0.2988010    -0.9702380
  H        0.3702690    -2.0293640    -0.5720320
  H        1.1571200     0.9978770     1.6121560
  H        2.0609340    -0.7886600    -1.8727560
  H        1.9169870     1.6362870    -1.2735830
  H        3.2958550    -0.0945320     0.8276460
  H        0.5217750    -1.8880320     1.7115100
  H        0.6655400     3.1093110     0.6831840
  H        2.9735430    -2.5473740     0.0946540
  H        3.7214290     2.5491860    -0.0588690
  H        4.6397270    -0.4238340    -1.0970870
  H       -3.8083950    -1.5223380     1.7347280
  H       -3.9305460     1.4455410     0.2493860
  H       -2.2297620     1.8928800    -0.0590960
  H       -3.8005210     3.1308820    -1.6026710
  H       -2.7171960     2.0533230    -2.5048750
  H       -4.4009440     1.5743230    -2.2127240
units angstrom
no_reorient  #important for SAPT in psi4, default
symmetry c1  #important for SAPT in psi4, default
}

set PROPERTIES_ORIGIN ["COM"]
properties('MP2/aug-cc-pvtz', properties = ['dipole'])
--------------------------------------------------------------------------

    Molecular point group: c1
  Charge       = 0
  Multiplicity = 1
  Basis Set: AUG-CC-PVTZ
    Blend: AUG-CC-PVTZ
  Basis Set: (AUG-CC-PVTZ AUX)
    Blend: AUG-CC-PVTZ-JKFIT

    Orbital Energies [Eh]
    ---------------------

    Doubly Occupied:

       1A    -80.113399     2A    -20.612323     3A    -20.600996
       4A    -20.597283     5A    -20.585832     6A    -20.576218
       7A    -20.576087     8A    -20.576007     9A    -20.571955
      10A    -20.521315    11A    -11.323082    12A    -11.305974
      13A    -11.302532    14A    -11.301653    15A    -11.298535
      16A    -11.297400    17A    -11.293744    18A    -11.229517
      19A     -7.628887    20A     -5.527399    21A     -5.526993
      22A     -5.525849    23A     -1.453887    24A     -1.410275
      25A     -1.389976    26A     -1.389436    27A     -1.385084
      28A     -1.368908    29A     -1.362338    30A     -1.346085
      31A     -1.301426    32A     -1.129685    33A     -1.039789
      34A     -1.019363    35A     -1.007377    36A     -0.876776
      37A     -0.863888    38A     -0.862768    39A     -0.819887
      40A     -0.815482    41A     -0.752443    42A     -0.744556
      43A     -0.732476    44A     -0.723731    45A     -0.703676
      46A     -0.688397    47A     -0.679595    48A     -0.673533
      49A     -0.662110    50A     -0.658112    51A     -0.639247
      52A     -0.634627    53A     -0.625078    54A     -0.616037
      55A     -0.601720    56A     -0.597588    57A     -0.582864
      58A     -0.573092    59A     -0.569634    60A     -0.557498
      61A     -0.554443    62A     -0.549422    63A     -0.540311
      64A     -0.537648    65A     -0.529540    66A     -0.519773
      67A     -0.512560    68A     -0.505980    69A     -0.496145
      70A     -0.488166    71A     -0.479069    72A     -0.475411
      73A     -0.465442    74A     -0.464104    75A     -0.455778
      76A     -0.437482

  @DF-RHF Final Energy: -1327.85341846289771

   => Energetics <=

    Nuclear Repulsion Energy =           1772.4314699571386882
    One-Electron Energy =               -5357.0443754496382098
    Two-Electron Energy =                2256.7594870296015870
    Total Energy =                      -1327.8534184628979347
  Basis Set: (AUG-CC-PVTZ AUX)
    Blend: AUG-CC-PVTZ-RI
    Molecular point group: c1

    Geometry (in Angstrom), charge = 0, multiplicity = 1:

       Center              X                  Y                   Z               Mass
    ------------   -----------------  -----------------  -----------------  -----------------
         P           -2.291109527421    -0.938022302118     0.347436010589    30.973761998420
         O           -0.983166527421    -0.199541302118     0.941047010589    15.994914619570
         O            1.341236472579    -1.673462302118     1.233609010589    15.994914619570
         O            0.077691472579     2.361624697882     0.464926010589    15.994914619570
         O            3.067501472579    -2.185051302118    -0.805831989411    15.994914619570
         O            2.846321472579     2.505133697882     0.374293010589    15.994914619570
         O            4.194674472579     0.437417697882    -0.970115989411    15.994914619570
         O           -2.827876527421     0.035371697882    -0.804772989411    15.994914619570
         O           -3.260134527421    -0.721261302118     1.624429010589    15.994914619570
         O           -2.120006527421    -2.341623302118    -0.096909989411    15.994914619570
         C            0.154992572579     0.024902497882    -0.016992089411    12.000000000000
         C            0.952278472579    -1.242184302118    -0.072966989411    12.000000000000
         C            0.897575472579     1.204664697882     0.567609010589    12.000000000000
         C            2.258646472579    -1.012286302118    -0.815278989411    12.000000000000
         C            2.162547972579     1.357113297882    -0.255420389411    12.000000000000
         C            3.024828472579     0.150725697882    -0.207563989411    12.000000000000
         C           -3.125226527421     1.433618697882    -0.486127989411    12.000000000000
         C           -3.537330527421     2.087185697882    -1.781360989411    12.000000000000
         H           -0.284105527421     0.300821697882    -0.967479989411     1.007825032230
         H            0.369255472579    -2.027343302118    -0.569273989411     1.007825032230
         H            1.156106472579     0.999897697882     1.614914010589     1.007825032230
         H            2.059920472579    -0.786639302118    -1.869997989411     1.007825032230
         H            1.915973472579     1.638307697882    -1.270824989411     1.007825032230
         H            3.294841472579    -0.092511302118     0.830404010589     1.007825032230
         H            0.520761472579    -1.886011302118     1.714268010589     1.007825032230
         H            0.664526472579     3.111331697882     0.685942010589     1.007825032230
         H            2.972529472579    -2.545353302118     0.097412010589     1.007825032230
         H            3.720415472579     2.551206697882    -0.056110989411     1.007825032230
         H            4.638713472579    -0.421813302118    -1.094328989411     1.007825032230
         H           -3.809408527421    -1.520317302118     1.737486010589     1.007825032230
         H           -3.931559527421     1.447561697882     0.252144010589     1.007825032230
         H           -2.230775527421     1.894900697882    -0.056337989411     1.007825032230
         H           -3.801534527421     3.132902697882    -1.599912989411     1.007825032230
         H           -2.718209527421     2.055343697882    -2.502116989411     1.007825032230
         H           -4.401957527421     1.576343697882    -2.209965989411     1.007825032230

  Basis Set: AUG-CC-PVTZ
    Blend: AUG-CC-PVTZ
  Basis Set: (AUG-CC-PVTZ AUX)
    Blend: AUG-CC-PVTZ-JKFIT
	 Reference Energy          =   -1327.8534184628977073 [Eh]
	 Singles Energy            =      -0.0000000000000000 [Eh]
	 Same-Spin Energy          =      -1.0154396058066086 [Eh]
	 Opposite-Spin Energy      =      -3.0781557539129634 [Eh]
	 Correlation Energy        =      -4.0935953597195720 [Eh]
	 Total Energy              =   -1331.9470138226172367 [Eh]

	 ================> DF-SCS-MP2 Energies <==================
	-----------------------------------------------------------
	 SCS Same-Spin Scale       =       0.3333333333333333 [-]
	 SCS Opposite-Spin Scale   =       1.2000000000000000 [-]
	 SCS Same-Spin Energy      =      -0.3384798686022029 [Eh]
	 SCS Opposite-Spin Energy  =      -3.6937869046955560 [Eh]
	 SCS Correlation Energy    =      -4.0322667732977591 [Eh]
	 SCS Total Energy          =   -1331.8856852361955134 [Eh]
	-----------------------------------------------------------

  Dipole Moment: [D]
     X:    -0.9703      Y:     1.7676      Z:     0.6017     Total:     2.1042

*** Psi4 exiting successfully. Buy a developer a beer!
