                               Psi4 1.3.2 release

  ==> Input File <==

--------------------------------------------------------------------------
#psi4
#
memory 32 gb

molecule  {
0 1
  P       -2.2900960    -0.9400430     0.3446780
  O       -0.9821530    -0.2015620     0.9382890
  O        1.3422500    -1.6754830     1.2308510
  O        0.0787050     2.3596040     0.4621680
  O        3.0685150    -2.1870720    -0.8085900
  O        2.8473350     2.5031130     0.3715350
  O        4.1956880     0.4353970    -0.9728740
  O       -2.8268630     0.0333510    -0.8075310
  O       -3.2591210    -0.7232820     1.6216710
  O       -2.1189930    -2.3436440    -0.0996680
  C        0.1181620     0.0300090     0.0163190
  C        0.9532920    -1.2442050    -0.0757250
  C        0.8985890     1.2026440     0.5648510
  C        2.2596600    -1.0143070    -0.8180370
  C        2.1770750     1.3964720    -0.2280410
  C        3.0258420     0.1487050    -0.2103220
  C       -3.1242130     1.4315980    -0.4888860
  C       -3.5363170     2.0851650    -1.7841190
  H       -0.2830920     0.2988010    -0.9702380
  H        0.3702690    -2.0293640    -0.5720320
  H        1.1571200     0.9978770     1.6121560
  H        2.0609340    -0.7886600    -1.8727560
  H        1.9169870     1.6362870    -1.2735830
  H        3.2958550    -0.0945320     0.8276460
  H        0.5217750    -1.8880320     1.7115100
  H        0.6655400     3.1093110     0.6831840
  H        2.9929829    -2.4736233    -0.0902322
  H        3.7214290     2.5491860    -0.0588690
  H        4.6397270    -0.4238340    -1.0970870
  H       -3.8083950    -1.5223380     1.7347280
  H       -3.9305460     1.4455410     0.2493860
  H       -2.2297620     1.8928800    -0.0590960
  H       -3.8005210     3.1308820    -1.6026710
  H       -2.7171960     2.0533230    -2.5048750
  H       -4.4009440     1.5743230    -2.2127240
units angstrom
no_reorient  #important for SAPT in psi4, default
symmetry c1  #important for SAPT in psi4, default
}

set PROPERTIES_ORIGIN ["COM"]
properties('MP2/aug-cc-pvtz', properties = ['dipole'])
--------------------------------------------------------------------------

    Molecular point group: c1
  Charge       = 0
  Multiplicity = 1
  Basis Set: AUG-CC-PVTZ
    Blend: AUG-CC-PVTZ
  Basis Set: (AUG-CC-PVTZ AUX)
    Blend: AUG-CC-PVTZ-JKFIT

    Orbital Energies [Eh]
    ---------------------

    Doubly Occupied:

       1A    -80.117090     2A    -20.614803     3A    -20.607378
       4A    -20.599120     5A    -20.581311     6A    -20.577670
       7A    -20.575582     8A    -20.573952     9A    -20.556903
      10A    -20.523524    11A    -11.321376    12A    -11.304508
      13A    -11.302157    14A    -11.299572    15A    -11.299208
      16A    -11.297767    17A    -11.293131    18A    -11.230054
      19A     -7.632541    20A     -5.531046    21A     -5.530675
      22A     -5.529471    23A     -1.460592    24A     -1.445107
      25A     -1.404456    26A     -1.395097    27A     -1.387240
      28A     -1.376784    29A     -1.372967    30A     -1.358106
      31A     -1.303920    32A     -1.122793    33A     -1.040723
      34A     -1.016799    35A     -1.008850    36A     -0.881379
      37A     -0.872739    38A     -0.865266    39A     -0.825706
      40A     -0.814471    41A     -0.754966    42A     -0.746928
      43A     -0.735101    44A     -0.729167    45A     -0.712876
      46A     -0.695840    47A     -0.688049    48A     -0.674167
      49A     -0.667407    50A     -0.662672    51A     -0.643701
      52A     -0.636069    53A     -0.629599    54A     -0.617018
      55A     -0.604782    56A     -0.601396    57A     -0.582835
      58A     -0.575936    59A     -0.570662    60A     -0.561858
      61A     -0.559753    62A     -0.548731    63A     -0.542658
      64A     -0.539602    65A     -0.531098    66A     -0.524932
      67A     -0.514656    68A     -0.507243    69A     -0.497882
      70A     -0.485765    71A     -0.479956    72A     -0.476772
      73A     -0.463417    74A     -0.457410    75A     -0.451185
      76A     -0.439105

  @DF-RHF Final Energy: -1327.81693542283210

   => Energetics <=

    Nuclear Repulsion Energy =           1773.7780278849384104
    One-Electron Energy =               -5359.2638719758506340
    Two-Electron Energy =                2257.6689086680798937
    Total Energy =                      -1327.8169354228321026
  Basis Set: (AUG-CC-PVTZ AUX)
    Blend: AUG-CC-PVTZ-RI
    Molecular point group: c1

    Geometry (in Angstrom), charge = 0, multiplicity = 1:

       Center              X                  Y                   Z               Mass
    ------------   -----------------  -----------------  -----------------  -----------------
         P           -2.290163980595    -0.940301010301     0.345324843097    30.973761998420
         O           -0.982220980595    -0.201820010301     0.938935843097    15.994914619570
         O            1.342182019405    -1.675741010301     1.231497843097    15.994914619570
         O            0.078637019405     2.359345989699     0.462814843097    15.994914619570
         O            3.068447019405    -2.187330010301    -0.807943156903    15.994914619570
         O            2.847267019405     2.502854989699     0.372181843097    15.994914619570
         O            4.195620019405     0.435138989699    -0.972227156903    15.994914619570
         O           -2.826930980595     0.033092989699    -0.806884156903    15.994914619570
         O           -3.259188980595    -0.723540010301     1.622317843097    15.994914619570
         O           -2.119060980595    -2.343902010301    -0.099021156903    15.994914619570
         C            0.118094019405     0.029750989699     0.016965843097    12.000000000000
         C            0.953224019405    -1.244463010301    -0.075078156903    12.000000000000
         C            0.898521019405     1.202385989699     0.565497843097    12.000000000000
         C            2.259592019405    -1.014565010301    -0.817390156903    12.000000000000
         C            2.177007019405     1.396213989699    -0.227394156903    12.000000000000
         C            3.025774019405     0.148446989699    -0.209675156903    12.000000000000
         C           -3.124280980595     1.431339989699    -0.488239156903    12.000000000000
         C           -3.536384980595     2.084906989699    -1.783472156903    12.000000000000
         H           -0.283159980595     0.298542989699    -0.969591156903     1.007825032230
         H            0.370201019405    -2.029622010301    -0.571385156903     1.007825032230
         H            1.157052019405     0.997618989699     1.612802843097     1.007825032230
         H            2.060866019405    -0.788918010301    -1.872109156903     1.007825032230
         H            1.916919019405     1.636028989699    -1.272936156903     1.007825032230
         H            3.295787019405    -0.094790010301     0.828292843097     1.007825032230
         H            0.521707019405    -1.888290010301     1.712156843097     1.007825032230
         H            0.665472019405     3.109052989699     0.683830843097     1.007825032230
         H            2.992914919405    -2.473881310301    -0.089585356903     1.007825032230
         H            3.721361019405     2.548927989699    -0.058222156903     1.007825032230
         H            4.639659019405    -0.424092010301    -1.096440156903     1.007825032230
         H           -3.808462980595    -1.522596010301     1.735374843097     1.007825032230
         H           -3.930613980595     1.445282989699     0.250032843097     1.007825032230
         H           -2.229829980595     1.892621989699    -0.058449156903     1.007825032230
         H           -3.800588980595     3.130623989699    -1.602024156903     1.007825032230
         H           -2.717263980595     2.053064989699    -2.504228156903     1.007825032230
         H           -4.401011980595     1.574064989699    -2.212077156903     1.007825032230

  Basis Set: AUG-CC-PVTZ
    Blend: AUG-CC-PVTZ
  Basis Set: (AUG-CC-PVTZ AUX)
    Blend: AUG-CC-PVTZ-JKFIT
	 Reference Energy          =   -1327.8169354228321026 [Eh]
	 Singles Energy            =      -0.0000000000000000 [Eh]
	 Same-Spin Energy          =      -1.0119795140632866 [Eh]
	 Opposite-Spin Energy      =      -3.0703817670064124 [Eh]
	 Correlation Energy        =      -4.0823612810696988 [Eh]
	 Total Energy              =   -1331.8992967039018822 [Eh]

	 ================> DF-SCS-MP2 Energies <==================
	-----------------------------------------------------------
	 SCS Same-Spin Scale       =       0.3333333333333333 [-]
	 SCS Opposite-Spin Scale   =       1.2000000000000000 [-]
	 SCS Same-Spin Energy      =      -0.3373265046877622 [Eh]
	 SCS Opposite-Spin Energy  =      -3.6844581204076947 [Eh]
	 SCS Correlation Energy    =      -4.0217846250954565 [Eh]
	 SCS Total Energy          =   -1331.8387200479276089 [Eh]
	-----------------------------------------------------------

  Dipole Moment: [D]
     X:    -1.1024      Y:     1.9955      Z:     0.5488     Total:     2.3449

*** Psi4 exiting successfully. Buy a developer a beer!
