                               Psi4 1.3.2 release

  ==> Input File <==

--------------------------------------------------------------------------
#psi4
#
memory 32 gb

molecule  {
0 1
  P       -2.2900960    -0.9400430     0.3446780
  O       -0.9821530    -0.2015620     0.9382890
  O        1.3422500    -1.6754830     1.2308510
  O        0.0787050     2.3596040     0.4621680
  O        3.1029292    -2.1624930    -0.8347515
  O        2.8473350     2.5031130     0.3715350
  O        4.1956880     0.4353970    -0.9728740
  O       -2.8268630     0.0333510    -0.8075310
  O       -3.2591210    -0.7232820     1.6216710
  O       -2.1189930    -2.3436440    -0.0996680
  C        0.1181620     0.0300090     0.0163190
  C        0.9394067    -1.1941568    -0.0865572
  C        0.8985890     1.2026440     0.5648510
  C        2.2596600    -1.0143070    -0.8180370
  C        2.1770750     1.3964720    -0.2280410
  C        3.0258420     0.1487050    -0.2103220
  C       -3.1242130     1.4315980    -0.4888860
  C       -3.5363170     2.0851650    -1.7841190
  H       -0.2830920     0.2988010    -0.9702380
  H        0.3702690    -2.0293640    -0.5720320
  H        1.1571200     0.9978770     1.6121560
  H        2.0609340    -0.7886600    -1.8727560
  H        1.9169870     1.6362870    -1.2735830
  H        3.2958550    -0.0945320     0.8276460
  H        0.5217750    -1.8880320     1.7115100
  H        0.6655400     3.1093110     0.6831840
  H        2.9735430    -2.5473740     0.0946540
  H        3.7214290     2.5491860    -0.0588690
  H        4.6397270    -0.4238340    -1.0970870
  H       -3.8083950    -1.5223380     1.7347280
  H       -3.9305460     1.4455410     0.2493860
  H       -2.2297620     1.8928800    -0.0590960
  H       -3.8005210     3.1308820    -1.6026710
  H       -2.7171960     2.0533230    -2.5048750
  H       -4.4009440     1.5743230    -2.2127240
units angstrom
no_reorient  #important for SAPT in psi4, default
symmetry c1  #important for SAPT in psi4, default
}

set PROPERTIES_ORIGIN ["COM"]
properties('MP2/aug-cc-pvtz', properties = ['dipole'])
--------------------------------------------------------------------------

    Molecular point group: c1
  Charge       = 0
  Multiplicity = 1
  Basis Set: AUG-CC-PVTZ
    Blend: AUG-CC-PVTZ
  Basis Set: (AUG-CC-PVTZ AUX)
    Blend: AUG-CC-PVTZ-JKFIT

    Orbital Energies [Eh]
    ---------------------

    Doubly Occupied:

       1A    -80.117785     2A    -20.615361     3A    -20.608933
       4A    -20.599722     5A    -20.581045     6A    -20.580471
       7A    -20.576639     8A    -20.574011     9A    -20.572434
      10A    -20.523867    11A    -11.321904    12A    -11.305920
      13A    -11.300084    14A    -11.299994    15A    -11.299408
      16A    -11.296592    17A    -11.290177    18A    -11.230335
      19A     -7.633238    20A     -5.531744    21A     -5.531374
      22A     -5.530161    23A     -1.461533    24A     -1.408759
      25A     -1.394755    26A     -1.389377    27A     -1.387496
      28A     -1.370158    29A     -1.361282    30A     -1.350538
      31A     -1.304310    32A     -1.124889    33A     -1.041057
      34A     -1.016918    35A     -1.003244    36A     -0.879757
      37A     -0.865071    38A     -0.859669    39A     -0.823096
      40A     -0.809354    41A     -0.752882    42A     -0.744793
      43A     -0.730404    44A     -0.728816    45A     -0.708660
      46A     -0.687076    47A     -0.674329    48A     -0.672837
      49A     -0.661624    50A     -0.656929    51A     -0.644221
      52A     -0.634533    53A     -0.627122    54A     -0.614421
      55A     -0.604244    56A     -0.598187    57A     -0.582112
      58A     -0.576293    59A     -0.570832    60A     -0.559590
      61A     -0.555284    62A     -0.547839    63A     -0.541052
      64A     -0.534739    65A     -0.527721    66A     -0.520824
      67A     -0.513452    68A     -0.504737    69A     -0.496519
      70A     -0.490859    71A     -0.480509    72A     -0.477461
      73A     -0.464658    74A     -0.455461    75A     -0.452984
      76A     -0.433701

  @DF-RHF Final Energy: -1327.85245016778572

   => Energetics <=

    Nuclear Repulsion Energy =           1772.7103249283072728
    One-Electron Energy =               -5357.5252187378928284
    Two-Electron Energy =                2256.9624436417998368
    Total Energy =                      -1327.8524501677857188
  Basis Set: (AUG-CC-PVTZ AUX)
    Blend: AUG-CC-PVTZ-RI
    Molecular point group: c1

    Geometry (in Angstrom), charge = 0, multiplicity = 1:

       Center              X                  Y                   Z               Mass
    ------------   -----------------  -----------------  -----------------  -----------------
         P           -2.291428423018    -0.943492659097     0.346581883773    30.973761998420
         O           -0.983485423018    -0.205011659097     0.940192883773    15.994914619570
         O            1.340917576982    -1.678932659097     1.232754883773    15.994914619570
         O            0.077372576982     2.356154340903     0.464071883773    15.994914619570
         O            3.101596776982    -2.165942659097    -0.832847616227    15.994914619570
         O            2.846002576982     2.499663340903     0.373438883773    15.994914619570
         O            4.194355576982     0.431947340903    -0.970970116227    15.994914619570
         O           -2.828195423018     0.029901340903    -0.805627116227    15.994914619570
         O           -3.260453423018    -0.726731659097     1.623574883773    15.994914619570
         O           -2.120325423018    -2.347093659097    -0.097764116227    15.994914619570
         C            0.116829576982     0.026559340903     0.018222883773    12.000000000000
         C            0.938074276982    -1.197606459097    -0.084653316227    12.000000000000
         C            0.897256576982     1.199194340903     0.566754883773    12.000000000000
         C            2.258327576982    -1.017756659097    -0.816133116227    12.000000000000
         C            2.175742576982     1.393022340903    -0.226137116227    12.000000000000
         C            3.024509576982     0.145255340903    -0.208418116227    12.000000000000
         C           -3.125545423018     1.428148340903    -0.486982116227    12.000000000000
         C           -3.537649423018     2.081715340903    -1.782215116227    12.000000000000
         H           -0.284424423018     0.295351340903    -0.968334116227     1.007825032230
         H            0.368936576982    -2.032813659097    -0.570128116227     1.007825032230
         H            1.155787576982     0.994427340903     1.614059883773     1.007825032230
         H            2.059601576982    -0.792109659097    -1.870852116227     1.007825032230
         H            1.915654576982     1.632837340903    -1.271679116227     1.007825032230
         H            3.294522576982    -0.097981659097     0.829549883773     1.007825032230
         H            0.520442576982    -1.891481659097     1.713413883773     1.007825032230
         H            0.664207576982     3.105861340903     0.685087883773     1.007825032230
         H            2.972210576982    -2.550823659097     0.096557883773     1.007825032230
         H            3.720096576982     2.545736340903    -0.056965116227     1.007825032230
         H            4.638394576982    -0.427283659097    -1.095183116227     1.007825032230
         H           -3.809727423018    -1.525787659097     1.736631883773     1.007825032230
         H           -3.931878423018     1.442091340903     0.251289883773     1.007825032230
         H           -2.231094423018     1.889430340903    -0.057192116227     1.007825032230
         H           -3.801853423018     3.127432340903    -1.600767116227     1.007825032230
         H           -2.718528423018     2.049873340903    -2.502971116227     1.007825032230
         H           -4.402276423018     1.570873340903    -2.210820116227     1.007825032230

  Basis Set: AUG-CC-PVTZ
    Blend: AUG-CC-PVTZ
  Basis Set: (AUG-CC-PVTZ AUX)
    Blend: AUG-CC-PVTZ-JKFIT
	 Reference Energy          =   -1327.8524501677857188 [Eh]
	 Singles Energy            =      -0.0000000000000000 [Eh]
	 Same-Spin Energy          =      -1.0158380894613972 [Eh]
	 Opposite-Spin Energy      =      -3.0786696640581854 [Eh]
	 Correlation Energy        =      -4.0945077535195828 [Eh]
	 Total Energy              =   -1331.9469579213052839 [Eh]

	 ================> DF-SCS-MP2 Energies <==================
	-----------------------------------------------------------
	 SCS Same-Spin Scale       =       0.3333333333333333 [-]
	 SCS Opposite-Spin Scale   =       1.2000000000000000 [-]
	 SCS Same-Spin Energy      =      -0.3386126964871324 [Eh]
	 SCS Opposite-Spin Energy  =      -3.6944035968698223 [Eh]
	 SCS Correlation Energy    =      -4.0330162933569547 [Eh]
	 SCS Total Energy          =   -1331.8854664611426415 [Eh]
	-----------------------------------------------------------

  Dipole Moment: [D]
     X:    -1.2288      Y:     1.8590      Z:     0.7025     Total:     2.3365

*** Psi4 exiting successfully. Buy a developer a beer!
