                               Psi4 1.3.2 release

  ==> Input File <==

--------------------------------------------------------------------------
#psi4
#
memory 32 gb

molecule  {
0 1
  P       -2.2900960    -0.9400430     0.3446780
  O       -0.9821530    -0.2015620     0.9382890
  O        1.3422500    -1.6754830     1.2308510
  O        0.0787050     2.3596040     0.4621680
  O        3.0685150    -2.1870720    -0.8085900
  O        2.8473350     2.5031130     0.3715350
  O        4.1956880     0.4353970    -0.9728740
  O       -2.8268630     0.0333510    -0.8075310
  O       -3.2591210    -0.7232820     1.6216710
  O       -2.1189930    -2.3436440    -0.0996680
  C        0.1181620     0.0300090     0.0163190
  C        0.9652957    -1.2425093    -0.0786791
  C        0.8985890     1.2026440     0.5648510
  C        2.2596600    -1.0143070    -0.8180370
  C        2.1770750     1.3964720    -0.2280410
  C        3.0258420     0.1487050    -0.2103220
  C       -3.1242130     1.4315980    -0.4888860
  C       -3.5363170     2.0851650    -1.7841190
  H       -0.2830920     0.2988010    -0.9702380
  H        0.3702690    -2.0293640    -0.5720320
  H        1.1571200     0.9978770     1.6121560
  H        2.0609340    -0.7886600    -1.8727560
  H        1.9169870     1.6362870    -1.2735830
  H        3.2958550    -0.0945320     0.8276460
  H        0.5263705    -1.8901449     1.7183449
  H        0.6655400     3.1093110     0.6831840
  H        2.9735430    -2.5473740     0.0946540
  H        3.7214290     2.5491860    -0.0588690
  H        4.6397270    -0.4238340    -1.0970870
  H       -3.8083950    -1.5223380     1.7347280
  H       -3.9305460     1.4455410     0.2493860
  H       -2.2297620     1.8928800    -0.0590960
  H       -3.8005210     3.1308820    -1.6026710
  H       -2.7171960     2.0533230    -2.5048750
  H       -4.4009440     1.5743230    -2.2127240
units angstrom
no_reorient  #important for SAPT in psi4, default
symmetry c1  #important for SAPT in psi4, default
}

set PROPERTIES_ORIGIN ["COM"]
properties('MP2/aug-cc-pvtz', properties = ['dipole'])
--------------------------------------------------------------------------

    Molecular point group: c1
  Charge       = 0
  Multiplicity = 1
  Basis Set: AUG-CC-PVTZ
    Blend: AUG-CC-PVTZ
  Basis Set: (AUG-CC-PVTZ AUX)
    Blend: AUG-CC-PVTZ-JKFIT

    Orbital Energies [Eh]
    ---------------------

    Doubly Occupied:

       1A    -80.116873     2A    -20.614693     3A    -20.607182
       4A    -20.598864     5A    -20.582642     6A    -20.576850
       7A    -20.574731     8A    -20.574213     9A    -20.573293
      10A    -20.523315    11A    -11.320870    12A    -11.303928
      13A    -11.299321    14A    -11.299155    15A    -11.298407
      16A    -11.296727    17A    -11.291577    18A    -11.229814
      19A     -7.632322    20A     -5.530827    21A     -5.530454
      22A     -5.529253    23A     -1.460163    24A     -1.410773
      25A     -1.394610    26A     -1.393073    27A     -1.386798
      28A     -1.372613    29A     -1.363863    30A     -1.353891
      31A     -1.303696    32A     -1.119630    33A     -1.040402
      34A     -1.011586    35A     -1.004751    36A     -0.880437
      37A     -0.864955    38A     -0.858655    39A     -0.822364
      40A     -0.811158    41A     -0.751626    42A     -0.745230
      43A     -0.731163    44A     -0.728557    45A     -0.707929
      46A     -0.687009    47A     -0.678902    48A     -0.673569
      49A     -0.662530    50A     -0.661080    51A     -0.642771
      52A     -0.634952    53A     -0.627467    54A     -0.615356
      55A     -0.603521    56A     -0.598428    57A     -0.581635
      58A     -0.575518    59A     -0.570779    60A     -0.559239
      61A     -0.556306    62A     -0.547930    63A     -0.541029
      64A     -0.536693    65A     -0.530113    66A     -0.521793
      67A     -0.513350    68A     -0.504922    69A     -0.496933
      70A     -0.485226    71A     -0.479636    72A     -0.476530
      73A     -0.462336    74A     -0.455948    75A     -0.449538
      76A     -0.436024

  @DF-RHF Final Energy: -1327.86132636303546

   => Energetics <=

    Nuclear Repulsion Energy =           1772.4190557929318857
    One-Electron Energy =               -5356.9801700707830605
    Two-Electron Energy =                2256.6997879148157153
    Total Energy =                      -1327.8613263630354595
  Basis Set: (AUG-CC-PVTZ AUX)
    Blend: AUG-CC-PVTZ-RI
    Molecular point group: c1

    Geometry (in Angstrom), charge = 0, multiplicity = 1:

       Center              X                  Y                   Z               Mass
    ------------   -----------------  -----------------  -----------------  -----------------
         P           -2.290612093438    -0.940106229226     0.344777139265    30.973761998420
         O           -0.982669093438    -0.201625229226     0.938388139265    15.994914619570
         O            1.341733906562    -1.675546229226     1.230950139265    15.994914619570
         O            0.078188906562     2.359540770774     0.462267139265    15.994914619570
         O            3.067998906562    -2.187135229226    -0.808490860735    15.994914619570
         O            2.846818906562     2.503049770774     0.371634139265    15.994914619570
         O            4.195171906562     0.435333770774    -0.972774860735    15.994914619570
         O           -2.827379093438     0.033287770774    -0.807431860735    15.994914619570
         O           -3.259637093438    -0.723345229226     1.621770139265    15.994914619570
         O           -2.119509093438    -2.343707229226    -0.099568860735    15.994914619570
         C            0.117645906562     0.029945770774     0.016418139265    12.000000000000
         C            0.964779606562    -1.242572529226    -0.078579960735    12.000000000000
         C            0.898072906562     1.202580770774     0.564950139265    12.000000000000
         C            2.259143906562    -1.014370229226    -0.817937860735    12.000000000000
         C            2.176558906562     1.396408770774    -0.227941860735    12.000000000000
         C            3.025325906562     0.148641770774    -0.210222860735    12.000000000000
         C           -3.124729093438     1.431534770774    -0.488786860735    12.000000000000
         C           -3.536833093438     2.085101770774    -1.784019860735    12.000000000000
         H           -0.283608093438     0.298737770774    -0.970138860735     1.007825032230
         H            0.369752906562    -2.029427229226    -0.571932860735     1.007825032230
         H            1.156603906562     0.997813770774     1.612255139265     1.007825032230
         H            2.060417906562    -0.788723229226    -1.872656860735     1.007825032230
         H            1.916470906562     1.636223770774    -1.273483860735     1.007825032230
         H            3.295338906562    -0.094595229226     0.827745139265     1.007825032230
         H            0.525854406562    -1.890208129226     1.718444039265     1.007825032230
         H            0.665023906562     3.109247770774     0.683283139265     1.007825032230
         H            2.973026906562    -2.547437229226     0.094753139265     1.007825032230
         H            3.720912906562     2.549122770774    -0.058769860735     1.007825032230
         H            4.639210906562    -0.423897229226    -1.096987860735     1.007825032230
         H           -3.808911093438    -1.522401229226     1.734827139265     1.007825032230
         H           -3.931062093438     1.445477770774     0.249485139265     1.007825032230
         H           -2.230278093438     1.892816770774    -0.058996860735     1.007825032230
         H           -3.801037093438     3.130818770774    -1.602571860735     1.007825032230
         H           -2.717712093438     2.053259770774    -2.504775860735     1.007825032230
         H           -4.401460093438     1.574259770774    -2.212624860735     1.007825032230

  Basis Set: AUG-CC-PVTZ
    Blend: AUG-CC-PVTZ
  Basis Set: (AUG-CC-PVTZ AUX)
    Blend: AUG-CC-PVTZ-JKFIT
	 Reference Energy          =   -1327.8613263630354595 [Eh]
	 Singles Energy            =      -0.0000000000000000 [Eh]
	 Same-Spin Energy          =      -1.0146129414302847 [Eh]
	 Opposite-Spin Energy      =      -3.0760469127408618 [Eh]
	 Correlation Energy        =      -4.0906598541711467 [Eh]
	 Total Energy              =   -1331.9519862172066951 [Eh]

	 ================> DF-SCS-MP2 Energies <==================
	-----------------------------------------------------------
	 SCS Same-Spin Scale       =       0.3333333333333333 [-]
	 SCS Opposite-Spin Scale   =       1.2000000000000000 [-]
	 SCS Same-Spin Energy      =      -0.3382043138100949 [Eh]
	 SCS Opposite-Spin Energy  =      -3.6912562952890342 [Eh]
	 SCS Correlation Energy    =      -4.0294606090991287 [Eh]
	 SCS Total Energy          =   -1331.8907869721344923 [Eh]
	-----------------------------------------------------------

  Dipole Moment: [D]
     X:    -1.1017      Y:     1.8595      Z:     0.7279     Total:     2.2807

*** Psi4 exiting successfully. Buy a developer a beer!
