                               Psi4 1.3.2 release

  ==> Input File <==

--------------------------------------------------------------------------
#psi4
#
memory 32 gb

molecule  {
0 1
  P       -2.2900960    -0.9400430     0.3446780
  O       -0.9821530    -0.2015620     0.9382890
  O        1.3422500    -1.6754830     1.2308510
  O        0.0787050     2.3596040     0.4621680
  O        3.0685150    -2.1870720    -0.8085900
  O        2.8473350     2.5031130     0.3715350
  O        4.1956880     0.4353970    -0.9728740
  O       -2.8268630     0.0333510    -0.8075310
  O       -3.2591210    -0.7232820     1.6216710
  O       -2.0959048    -2.5330427    -0.1596270
  C        0.1181620     0.0300090     0.0163190
  C        0.9532920    -1.2442050    -0.0757250
  C        0.8985890     1.2026440     0.5648510
  C        2.2596600    -1.0143070    -0.8180370
  C        2.1770750     1.3964720    -0.2280410
  C        3.0258420     0.1487050    -0.2103220
  C       -3.1242130     1.4315980    -0.4888860
  C       -3.5363170     2.0851650    -1.7841190
  H       -0.2830920     0.2988010    -0.9702380
  H        0.3702690    -2.0293640    -0.5720320
  H        1.1571200     0.9978770     1.6121560
  H        2.0609340    -0.7886600    -1.8727560
  H        1.9169870     1.6362870    -1.2735830
  H        3.2958550    -0.0945320     0.8276460
  H        0.5217750    -1.8880320     1.7115100
  H        0.6655400     3.1093110     0.6831840
  H        2.9735430    -2.5473740     0.0946540
  H        3.7214290     2.5491860    -0.0588690
  H        4.6397270    -0.4238340    -1.0970870
  H       -3.8083950    -1.5223380     1.7347280
  H       -3.9305460     1.4455410     0.2493860
  H       -2.2297620     1.8928800    -0.0590960
  H       -3.8005210     3.1308820    -1.6026710
  H       -2.7171960     2.0533230    -2.5048750
  H       -4.4009440     1.5743230    -2.2127240
units angstrom
no_reorient  #important for SAPT in psi4, default
symmetry c1  #important for SAPT in psi4, default
}

set PROPERTIES_ORIGIN ["COM"]
properties('MP2/aug-cc-pvtz', properties = ['dipole'])
--------------------------------------------------------------------------

    Molecular point group: c1
  Charge       = 0
  Multiplicity = 1
  Basis Set: AUG-CC-PVTZ
    Blend: AUG-CC-PVTZ
  Basis Set: (AUG-CC-PVTZ AUX)
    Blend: AUG-CC-PVTZ-JKFIT

    Orbital Energies [Eh]
    ---------------------

    Doubly Occupied:

       1A    -80.142805     2A    -20.627064     3A    -20.618069
       4A    -20.609359     5A    -20.583339     6A    -20.578343
       7A    -20.576320     8A    -20.574764     9A    -20.574604
      10A    -20.528143    11A    -11.324649    12A    -11.305768
      13A    -11.303548    14A    -11.301475    15A    -11.299766
      16A    -11.298533    17A    -11.292286    18A    -11.234047
      19A     -7.654107    20A     -5.552750    21A     -5.552381
      22A     -5.549933    23A     -1.465080    24A     -1.414385
      25A     -1.399536    26A     -1.395997    27A     -1.394425
      28A     -1.375516    29A     -1.365189    30A     -1.354888
      31A     -1.228329    32A     -1.121165    33A     -1.046349
      34A     -1.014879    35A     -1.004729    36A     -0.887066
      37A     -0.869720    38A     -0.860736    39A     -0.829834
      40A     -0.812647    41A     -0.754343    42A     -0.749171
      43A     -0.735383    44A     -0.732492    45A     -0.712110
      46A     -0.690662    47A     -0.679557    48A     -0.676997
      49A     -0.664264    50A     -0.662860    51A     -0.646308
      52A     -0.637224    53A     -0.630915    54A     -0.618554
      55A     -0.607097    56A     -0.599134    57A     -0.580897
      58A     -0.576908    59A     -0.573443    60A     -0.559155
      61A     -0.554728    62A     -0.549737    63A     -0.537795
      64A     -0.535892    65A     -0.528320    66A     -0.517337
      67A     -0.511784    68A     -0.505496    69A     -0.496808
      70A     -0.488038    71A     -0.472660    72A     -0.457453
      73A     -0.457305    74A     -0.445987    75A     -0.443059
      76A     -0.431307

  @DF-RHF Final Energy: -1327.81258753475140

   => Energetics <=

    Nuclear Repulsion Energy =           1763.0884342967708562
    One-Electron Energy =               -5337.9146364121443185
    Two-Electron Energy =                2247.0136145806218337
    Total Energy =                      -1327.8125875347514011
  Basis Set: (AUG-CC-PVTZ AUX)
    Blend: AUG-CC-PVTZ-RI
    Molecular point group: c1

    Geometry (in Angstrom), charge = 0, multiplicity = 1:

       Center              X                  Y                   Z               Mass
    ------------   -----------------  -----------------  -----------------  -----------------
         P           -2.291377965643    -0.929526404815     0.348007282212    30.973761998420
         O           -0.983434965643    -0.191045404815     0.941618282212    15.994914619570
         O            1.340968034357    -1.664966404815     1.234180282212    15.994914619570
         O            0.077423034357     2.370120595185     0.465497282212    15.994914619570
         O            3.067233034357    -2.176555404815    -0.805260717788    15.994914619570
         O            2.846053034357     2.513629595185     0.374864282212    15.994914619570
         O            4.194406034357     0.445913595185    -0.969544717788    15.994914619570
         O           -2.828144965643     0.043867595185    -0.804201717788    15.994914619570
         O           -3.260402965643    -0.712765404815     1.625000282212    15.994914619570
         O           -2.097186765643    -2.522526104815    -0.156297717788    15.994914619570
         C            0.116880034357     0.040525595185     0.019648282212    12.000000000000
         C            0.952010034357    -1.233688404815    -0.072395717788    12.000000000000
         C            0.897307034357     1.213160595185     0.568180282212    12.000000000000
         C            2.258378034357    -1.003790404815    -0.814707717788    12.000000000000
         C            2.175793034357     1.406988595185    -0.224711717788    12.000000000000
         C            3.024560034357     0.159221595185    -0.206992717788    12.000000000000
         C           -3.125494965643     1.442114595185    -0.485556717788    12.000000000000
         C           -3.537598965643     2.095681595185    -1.780789717788    12.000000000000
         H           -0.284373965643     0.309317595185    -0.966908717788     1.007825032230
         H            0.368987034357    -2.018847404815    -0.568702717788     1.007825032230
         H            1.155838034357     1.008393595185     1.615485282212     1.007825032230
         H            2.059652034357    -0.778143404815    -1.869426717788     1.007825032230
         H            1.915705034357     1.646803595185    -1.270253717788     1.007825032230
         H            3.294573034357    -0.084015404815     0.830975282212     1.007825032230
         H            0.520493034357    -1.877515404815     1.714839282212     1.007825032230
         H            0.664258034357     3.119827595185     0.686513282212     1.007825032230
         H            2.972261034357    -2.536857404815     0.097983282212     1.007825032230
         H            3.720147034357     2.559702595185    -0.055539717788     1.007825032230
         H            4.638445034357    -0.413317404815    -1.093757717788     1.007825032230
         H           -3.809676965643    -1.511821404815     1.738057282212     1.007825032230
         H           -3.931827965643     1.456057595185     0.252715282212     1.007825032230
         H           -2.231043965643     1.903396595185    -0.055766717788     1.007825032230
         H           -3.801802965643     3.141398595185    -1.599341717788     1.007825032230
         H           -2.718477965643     2.063839595185    -2.501545717788     1.007825032230
         H           -4.402225965643     1.584839595185    -2.209394717788     1.007825032230

  Basis Set: AUG-CC-PVTZ
    Blend: AUG-CC-PVTZ
  Basis Set: (AUG-CC-PVTZ AUX)
    Blend: AUG-CC-PVTZ-JKFIT
	 Reference Energy          =   -1327.8125875347514011 [Eh]
	 Singles Energy            =      -0.0000000000000000 [Eh]
	 Same-Spin Energy          =      -1.0184838082445302 [Eh]
	 Opposite-Spin Energy      =      -3.0860698014145891 [Eh]
	 Correlation Energy        =      -4.1045536096591189 [Eh]
	 Total Energy              =   -1331.9171411444106070 [Eh]

	 ================> DF-SCS-MP2 Energies <==================
	-----------------------------------------------------------
	 SCS Same-Spin Scale       =       0.3333333333333333 [-]
	 SCS Opposite-Spin Scale   =       1.2000000000000000 [-]
	 SCS Same-Spin Energy      =      -0.3394946027481767 [Eh]
	 SCS Opposite-Spin Energy  =      -3.7032837616975067 [Eh]
	 SCS Correlation Energy    =      -4.0427783644456836 [Eh]
	 SCS Total Energy          =   -1331.8553658991970678 [Eh]
	-----------------------------------------------------------

  Dipole Moment: [D]
     X:    -1.1624      Y:     2.8063      Z:     0.9378     Total:     3.1790

*** Psi4 exiting successfully. Buy a developer a beer!
