                               Psi4 1.3.2 release

  ==> Input File <==

--------------------------------------------------------------------------
#psi4
#
memory 32 gb

molecule  {
0 1
  P       -2.2900960    -0.9400430     0.3446780
  O       -0.9821530    -0.2015620     0.9382890
  O        1.3422500    -1.6754830     1.2308510
  O        0.0787050     2.3596040     0.4621680
  O        3.0685150    -2.1870720    -0.8085900
  O        2.8473350     2.5031130     0.3715350
  O        4.1956880     0.4353970    -0.9728740
  O       -2.8268630     0.0333510    -0.8075310
  O       -3.2591210    -0.7232820     1.6216710
  O       -2.1189930    -2.3436440    -0.0996680
  C        0.1181620     0.0300090     0.0163190
  C        0.9532920    -1.2442050    -0.0757250
  C        0.8985890     1.2026440     0.5648510
  C        2.2596600    -1.0143070    -0.8180370
  C        2.1770750     1.3964720    -0.2280410
  C        3.0242229     0.1731446    -0.2573665
  C       -3.1242130     1.4315980    -0.4888860
  C       -3.5363170     2.0851650    -1.7841190
  H       -0.2830920     0.2988010    -0.9702380
  H        0.3702690    -2.0293640    -0.5720320
  H        1.1571200     0.9978770     1.6121560
  H        2.0790846    -0.7552465    -1.8683326
  H        1.9169870     1.6362870    -1.2735830
  H        3.2958550    -0.0945320     0.8276460
  H        0.5217750    -1.8880320     1.7115100
  H        0.6655400     3.1093110     0.6831840
  H        2.9735430    -2.5473740     0.0946540
  H        3.7214290     2.5491860    -0.0588690
  H        4.6397270    -0.4238340    -1.0970870
  H       -3.8083950    -1.5223380     1.7347280
  H       -3.9305460     1.4455410     0.2493860
  H       -2.2297620     1.8928800    -0.0590960
  H       -3.8005210     3.1308820    -1.6026710
  H       -2.7171960     2.0533230    -2.5048750
  H       -4.4009440     1.5743230    -2.2127240
units angstrom
no_reorient  #important for SAPT in psi4, default
symmetry c1  #important for SAPT in psi4, default
}

set PROPERTIES_ORIGIN ["COM"]
properties('MP2/aug-cc-pvtz', properties = ['dipole'])
--------------------------------------------------------------------------

    Molecular point group: c1
  Charge       = 0
  Multiplicity = 1
  Basis Set: AUG-CC-PVTZ
    Blend: AUG-CC-PVTZ
  Basis Set: (AUG-CC-PVTZ AUX)
    Blend: AUG-CC-PVTZ-JKFIT

    Orbital Energies [Eh]
    ---------------------

    Doubly Occupied:

       1A    -80.116887     2A    -20.614670     3A    -20.606971
       4A    -20.598894     5A    -20.582625     6A    -20.577293
       7A    -20.577034     8A    -20.575800     9A    -20.573929
      10A    -20.523376    11A    -11.320763    12A    -11.304183
      13A    -11.299377    14A    -11.299376    15A    -11.299347
      16A    -11.296099    17A    -11.292929    18A    -11.229848
      19A     -7.632337    20A     -5.530843    21A     -5.530470
      22A     -5.529268    23A     -1.460230    24A     -1.412542
      25A     -1.398332    26A     -1.393245    27A     -1.386979
      28A     -1.376196    29A     -1.364316    30A     -1.356794
      31A     -1.303771    32A     -1.119966    33A     -1.040466
      34A     -1.013686    35A     -1.003679    36A     -0.879815
      37A     -0.864715    38A     -0.862248    39A     -0.821483
      40A     -0.808409    41A     -0.752429    42A     -0.746322
      43A     -0.732497    44A     -0.728420    45A     -0.708176
      46A     -0.687400    47A     -0.679078    48A     -0.675038
      49A     -0.666214    50A     -0.661283    51A     -0.643620
      52A     -0.636934    53A     -0.627640    54A     -0.615805
      55A     -0.604190    56A     -0.596901    57A     -0.582120
      58A     -0.575437    59A     -0.571045    60A     -0.559396
      61A     -0.557700    62A     -0.548536    63A     -0.541240
      64A     -0.538908    65A     -0.530279    66A     -0.522125
      67A     -0.513646    68A     -0.502609    69A     -0.497210
      70A     -0.484623    71A     -0.479824    72A     -0.476361
      73A     -0.463267    74A     -0.453050    75A     -0.450148
      76A     -0.431418

  @DF-RHF Final Energy: -1327.85822807798513

   => Energetics <=

    Nuclear Repulsion Energy =           1772.7257970425321218
    One-Electron Energy =               -5357.5278997427421928
    Two-Electron Energy =                2256.9438746222249392
    Total Energy =                      -1327.8582280779851317
  Basis Set: (AUG-CC-PVTZ AUX)
    Blend: AUG-CC-PVTZ-RI
    Molecular point group: c1

    Geometry (in Angstrom), charge = 0, multiplicity = 1:

       Center              X                  Y                   Z               Mass
    ------------   -----------------  -----------------  -----------------  -----------------
         P           -2.290092021575    -0.941177985468     0.346622287115    30.973761998420
         O           -0.982149021575    -0.202696985468     0.940233287115    15.994914619570
         O            1.342253978425    -1.676617985468     1.232795287115    15.994914619570
         O            0.078708978425     2.358469014532     0.464112287115    15.994914619570
         O            3.068518978425    -2.188206985468    -0.806645712885    15.994914619570
         O            2.847338978425     2.501978014532     0.373479287115    15.994914619570
         O            4.195691978425     0.434262014532    -0.970929712885    15.994914619570
         O           -2.826859021575     0.032216014532    -0.805586712885    15.994914619570
         O           -3.259117021575    -0.724416985468     1.623615287115    15.994914619570
         O           -2.118989021575    -2.344778985468    -0.097723712885    15.994914619570
         C            0.118165978425     0.028874014532     0.018263287115    12.000000000000
         C            0.953295978425    -1.245339985468    -0.073780712885    12.000000000000
         C            0.898592978425     1.201509014532     0.566795287115    12.000000000000
         C            2.259663978425    -1.015441985468    -0.816092712885    12.000000000000
         C            2.177078978425     1.395337014532    -0.226096712885    12.000000000000
         C            3.024226878425     0.172009614532    -0.255422212885    12.000000000000
         C           -3.124209021575     1.430463014532    -0.486941712885    12.000000000000
         C           -3.536313021575     2.084030014532    -1.782174712885    12.000000000000
         H           -0.283088021575     0.297666014532    -0.968293712885     1.007825032230
         H            0.370272978425    -2.030498985468    -0.570087712885     1.007825032230
         H            1.157123978425     0.996742014532     1.614100287115     1.007825032230
         H            2.079088578425    -0.756381485468    -1.866388312885     1.007825032230
         H            1.916990978425     1.635152014532    -1.271638712885     1.007825032230
         H            3.295858978425    -0.095666985468     0.829590287115     1.007825032230
         H            0.521778978425    -1.889166985468     1.713454287115     1.007825032230
         H            0.665543978425     3.108176014532     0.685128287115     1.007825032230
         H            2.973546978425    -2.548508985468     0.096598287115     1.007825032230
         H            3.721432978425     2.548051014532    -0.056924712885     1.007825032230
         H            4.639730978425    -0.424968985468    -1.095142712885     1.007825032230
         H           -3.808391021575    -1.523472985468     1.736672287115     1.007825032230
         H           -3.930542021575     1.444406014532     0.251330287115     1.007825032230
         H           -2.229758021575     1.891745014532    -0.057151712885     1.007825032230
         H           -3.800517021575     3.129747014532    -1.600726712885     1.007825032230
         H           -2.717192021575     2.052188014532    -2.502930712885     1.007825032230
         H           -4.400940021575     1.573188014532    -2.210779712885     1.007825032230

  Basis Set: AUG-CC-PVTZ
    Blend: AUG-CC-PVTZ
  Basis Set: (AUG-CC-PVTZ AUX)
    Blend: AUG-CC-PVTZ-JKFIT
	 Reference Energy          =   -1327.8582280779851317 [Eh]
	 Singles Energy            =      -0.0000000000000000 [Eh]
	 Same-Spin Energy          =      -1.0148349750627272 [Eh]
	 Opposite-Spin Energy      =      -3.0759749896593878 [Eh]
	 Correlation Energy        =      -4.0908099647221148 [Eh]
	 Total Energy              =   -1331.9490380427073433 [Eh]

	 ================> DF-SCS-MP2 Energies <==================
	-----------------------------------------------------------
	 SCS Same-Spin Scale       =       0.3333333333333333 [-]
	 SCS Opposite-Spin Scale   =       1.2000000000000000 [-]
	 SCS Same-Spin Energy      =      -0.3382783250209090 [Eh]
	 SCS Opposite-Spin Energy  =      -3.6911699875912651 [Eh]
	 SCS Correlation Energy    =      -4.0294483126121738 [Eh]
	 SCS Total Energy          =   -1331.8876763905973348 [Eh]
	-----------------------------------------------------------

  Dipole Moment: [D]
     X:    -1.0614      Y:     1.8904      Z:     0.6489     Total:     2.2630

*** Psi4 exiting successfully. Buy a developer a beer!
