                               Psi4 1.3.2 release

  ==> Input File <==

--------------------------------------------------------------------------
#psi4
#
memory 32 gb

molecule  {
0 1
  P       -2.2900960    -0.9400430     0.3446780
  O       -0.9821530    -0.2015620     0.9382890
  O        1.3422500    -1.6754830     1.2308510
  O        0.0787050     2.3596040     0.4621680
  O        3.0685150    -2.1870720    -0.8085900
  O        2.8473350     2.5031130     0.3715350
  O        4.1956880     0.4353970    -0.9728740
  O       -2.7653696     0.0051057    -0.8569913
  O       -3.2130469    -0.7806760     1.6635676
  O       -2.1189930    -2.3436440    -0.0996680
  C        0.1181620     0.0300090     0.0163190
  C        0.9532920    -1.2442050    -0.0757250
  C        0.8985890     1.2026440     0.5648510
  C        2.2596600    -1.0143070    -0.8180370
  C        2.1770750     1.3964720    -0.2280410
  C        3.0258420     0.1487050    -0.2103220
  C       -3.1242130     1.4315980    -0.4888860
  C       -3.5363170     2.0851650    -1.7841190
  H       -0.2830920     0.2988010    -0.9702380
  H        0.3702690    -2.0293640    -0.5720320
  H        1.1571200     0.9978770     1.6121560
  H        2.0609340    -0.7886600    -1.8727560
  H        1.9169870     1.6362870    -1.2735830
  H        3.2958550    -0.0945320     0.8276460
  H        0.5217750    -1.8880320     1.7115100
  H        0.6655400     3.1093110     0.6831840
  H        2.9735430    -2.5473740     0.0946540
  H        3.7214290     2.5491860    -0.0588690
  H        4.6397270    -0.4238340    -1.0970870
  H       -3.8083950    -1.5223380     1.7347280
  H       -3.9305460     1.4455410     0.2493860
  H       -2.2297620     1.8928800    -0.0590960
  H       -3.8005210     3.1308820    -1.6026710
  H       -2.7171960     2.0533230    -2.5048750
  H       -4.4009440     1.5743230    -2.2127240
units angstrom
no_reorient  #important for SAPT in psi4, default
symmetry c1  #important for SAPT in psi4, default
}

set PROPERTIES_ORIGIN ["COM"]
properties('MP2/aug-cc-pvtz', properties = ['dipole'])
--------------------------------------------------------------------------

    Molecular point group: c1
  Charge       = 0
  Multiplicity = 1
  Basis Set: AUG-CC-PVTZ
    Blend: AUG-CC-PVTZ
  Basis Set: (AUG-CC-PVTZ AUX)
    Blend: AUG-CC-PVTZ-JKFIT

    Orbital Energies [Eh]
    ---------------------

    Doubly Occupied:

       1A    -80.114512     2A    -20.615295     3A    -20.603845
       4A    -20.603815     5A    -20.581173     6A    -20.576111
       7A    -20.573353     8A    -20.573246     9A    -20.573217
      10A    -20.515291    11A    -11.318341    12A    -11.308381
      13A    -11.301547    14A    -11.297975    15A    -11.297486
      16A    -11.295788    17A    -11.290411    18A    -11.234214
      19A     -7.630085    20A     -5.528615    21A     -5.528052
      22A     -5.527059    23A     -1.458704    24A     -1.409764
      25A     -1.395203    26A     -1.392414    27A     -1.383881
      28A     -1.370334    29A     -1.362989    30A     -1.352812
      31A     -1.296873    32A     -1.117626    33A     -1.044415
      34A     -1.010808    35A     -1.002113    36A     -0.879146
      37A     -0.865252    38A     -0.857922    39A     -0.824652
      40A     -0.809198    41A     -0.750760    42A     -0.745784
      43A     -0.732203    44A     -0.724693    45A     -0.707700
      46A     -0.686057    47A     -0.676078    48A     -0.671533
      49A     -0.661599    50A     -0.660130    51A     -0.642391
      52A     -0.633162    53A     -0.627566    54A     -0.613858
      55A     -0.602154    56A     -0.597315    57A     -0.579686
      58A     -0.577040    59A     -0.569462    60A     -0.558783
      61A     -0.555928    62A     -0.547598    63A     -0.541118
      64A     -0.535433    65A     -0.531215    66A     -0.521713
      67A     -0.517380    68A     -0.504276    69A     -0.499763
      70A     -0.486525    71A     -0.478107    72A     -0.469912
      73A     -0.460146    74A     -0.455077    75A     -0.448189
      76A     -0.434693

  @DF-RHF Final Energy: -1327.85714774311373

   => Energetics <=

    Nuclear Repulsion Energy =           1772.2618426408082541
    One-Electron Energy =               -5356.7841028606790132
    Two-Electron Energy =                2256.6651124767572583
    Total Energy =                      -1327.8571477431137282
  Basis Set: (AUG-CC-PVTZ AUX)
    Blend: AUG-CC-PVTZ-RI
    Molecular point group: c1

    Geometry (in Angstrom), charge = 0, multiplicity = 1:

       Center              X                  Y                   Z               Mass
    ------------   -----------------  -----------------  -----------------  -----------------
         P           -2.296068774537    -0.935287763117     0.345097973786    30.973761998420
         O           -0.988125774537    -0.196806763117     0.938708973786    15.994914619570
         O            1.336277225463    -1.670727763117     1.231270973786    15.994914619570
         O            0.072732225463     2.364359236883     0.462587973786    15.994914619570
         O            3.062542225463    -2.182316763117    -0.808170026214    15.994914619570
         O            2.841362225463     2.507868236883     0.371954973786    15.994914619570
         O            4.189715225463     0.440152236883    -0.972454026214    15.994914619570
         O           -2.771342374537     0.009860936883    -0.856571326214    15.994914619570
         O           -3.219019674537    -0.775920763117     1.663987573786    15.994914619570
         O           -2.124965774537    -2.338888763117    -0.099248026214    15.994914619570
         C            0.112189225463     0.034764236883     0.016738973786    12.000000000000
         C            0.947319225463    -1.239449763117    -0.075305026214    12.000000000000
         C            0.892616225463     1.207399236883     0.565270973786    12.000000000000
         C            2.253687225463    -1.009551763117    -0.817617026214    12.000000000000
         C            2.171102225463     1.401227236883    -0.227621026214    12.000000000000
         C            3.019869225463     0.153460236883    -0.209902026214    12.000000000000
         C           -3.130185774537     1.436353236883    -0.488466026214    12.000000000000
         C           -3.542289774537     2.089920236883    -1.783699026214    12.000000000000
         H           -0.289064774537     0.303556236883    -0.969818026214     1.007825032230
         H            0.364296225463    -2.024608763117    -0.571612026214     1.007825032230
         H            1.151147225463     1.002632236883     1.612575973786     1.007825032230
         H            2.054961225463    -0.783904763117    -1.872336026214     1.007825032230
         H            1.911014225463     1.641042236883    -1.273163026214     1.007825032230
         H            3.289882225463    -0.089776763117     0.828065973786     1.007825032230
         H            0.515802225463    -1.883276763117     1.711929973786     1.007825032230
         H            0.659567225463     3.114066236883     0.683603973786     1.007825032230
         H            2.967570225463    -2.542618763117     0.095073973786     1.007825032230
         H            3.715456225463     2.553941236883    -0.058449026214     1.007825032230
         H            4.633754225463    -0.419078763117    -1.096667026214     1.007825032230
         H           -3.814367774537    -1.517582763117     1.735147973786     1.007825032230
         H           -3.936518774537     1.450296236883     0.249805973786     1.007825032230
         H           -2.235734774537     1.897635236883    -0.058676026214     1.007825032230
         H           -3.806493774537     3.135637236883    -1.602251026214     1.007825032230
         H           -2.723168774537     2.058078236883    -2.504455026214     1.007825032230
         H           -4.406916774537     1.579078236883    -2.212304026214     1.007825032230

  Basis Set: AUG-CC-PVTZ
    Blend: AUG-CC-PVTZ
  Basis Set: (AUG-CC-PVTZ AUX)
    Blend: AUG-CC-PVTZ-JKFIT
	 Reference Energy          =   -1327.8571477431137282 [Eh]
	 Singles Energy            =      -0.0000000000000000 [Eh]
	 Same-Spin Energy          =      -1.0145808560739471 [Eh]
	 Opposite-Spin Energy      =      -3.0766706936570465 [Eh]
	 Correlation Energy        =      -4.0912515497309938 [Eh]
	 Total Energy              =   -1331.9483992928446696 [Eh]

	 ================> DF-SCS-MP2 Energies <==================
	-----------------------------------------------------------
	 SCS Same-Spin Scale       =       0.3333333333333333 [-]
	 SCS Opposite-Spin Scale   =       1.2000000000000000 [-]
	 SCS Same-Spin Energy      =      -0.3381936186913157 [Eh]
	 SCS Opposite-Spin Energy  =      -3.6920048323884558 [Eh]
	 SCS Correlation Energy    =      -4.0301984510797713 [Eh]
	 SCS Total Energy          =   -1331.8873461941934693 [Eh]
	-----------------------------------------------------------

  Dipole Moment: [D]
     X:    -1.4681      Y:     2.2375      Z:     0.6611     Total:     2.7566

*** Psi4 exiting successfully. Buy a developer a beer!
