                               Psi4 1.3.2 release

  ==> Input File <==

--------------------------------------------------------------------------
#psi4
#
memory 32 gb

molecule  {
0 1
  P       -2.2900960    -0.9400430     0.3446780
  O       -0.9821530    -0.2015620     0.9382890
  O        1.3422500    -1.6754830     1.2308510
  O        0.0787050     2.3596040     0.4621680
  O        3.0685150    -2.1870720    -0.8085900
  O        2.8473350     2.5031130     0.3715350
  O        4.1956880     0.4353970    -0.9728740
  O       -2.8268630     0.0333510    -0.8075310
  O       -3.2591210    -0.7232820     1.6216710
  O       -2.1189930    -2.3436440    -0.0996680
  C        0.1181620     0.0300090     0.0163190
  C        0.9532920    -1.2442050    -0.0757250
  C        0.8985890     1.2026440     0.5648510
  C        2.2645189    -1.0403178    -0.7720704
  C        2.1770750     1.3964720    -0.2280410
  C        3.0258420     0.1487050    -0.2103220
  C       -3.1242130     1.4315980    -0.4888860
  C       -3.5363170     2.0851650    -1.7841190
  H       -0.2830920     0.2988010    -0.9702380
  H        0.3702690    -2.0293640    -0.5720320
  H        1.1571200     0.9978770     1.6121560
  H        2.0609340    -0.7886600    -1.8727560
  H        1.9169870     1.6362870    -1.2735830
  H        3.2784909    -0.1285135     0.8234900
  H        0.5217750    -1.8880320     1.7115100
  H        0.6655400     3.1093110     0.6831840
  H        2.9735430    -2.5473740     0.0946540
  H        3.7214290     2.5491860    -0.0588690
  H        4.6397270    -0.4238340    -1.0970870
  H       -3.8083950    -1.5223380     1.7347280
  H       -3.9305460     1.4455410     0.2493860
  H       -2.2297620     1.8928800    -0.0590960
  H       -3.8005210     3.1308820    -1.6026710
  H       -2.7171960     2.0533230    -2.5048750
  H       -4.4009440     1.5743230    -2.2127240
units angstrom
no_reorient  #important for SAPT in psi4, default
symmetry c1  #important for SAPT in psi4, default
}

set PROPERTIES_ORIGIN ["COM"]
properties('MP2/aug-cc-pvtz', properties = ['dipole'])
--------------------------------------------------------------------------

    Molecular point group: c1
  Charge       = 0
  Multiplicity = 1
  Basis Set: AUG-CC-PVTZ
    Blend: AUG-CC-PVTZ
  Basis Set: (AUG-CC-PVTZ AUX)
    Blend: AUG-CC-PVTZ-JKFIT

    Orbital Energies [Eh]
    ---------------------

    Doubly Occupied:

       1A    -80.117221     2A    -20.614946     3A    -20.607714
       4A    -20.599052     5A    -20.582949     6A    -20.578940
       7A    -20.576558     8A    -20.575239     9A    -20.573395
      10A    -20.523698    11A    -11.321492    12A    -11.302777
      13A    -11.300083    14A    -11.299419    15A    -11.298613
      16A    -11.296895    17A    -11.290964    18A    -11.229815
      19A     -7.632673    20A     -5.531179    21A     -5.530806
      22A     -5.529604    23A     -1.460642    24A     -1.414232
      25A     -1.396958    26A     -1.394584    27A     -1.387111
      28A     -1.373190    29A     -1.367960    30A     -1.355627
      31A     -1.304091    32A     -1.119290    33A     -1.040461
      34A     -1.011795    35A     -1.004741    36A     -0.881599
      37A     -0.865380    38A     -0.857547    39A     -0.822118
      40A     -0.809050    41A     -0.754097    42A     -0.746834
      43A     -0.732106    44A     -0.729067    45A     -0.708206
      46A     -0.687711    47A     -0.679748    48A     -0.674346
      49A     -0.662081    50A     -0.660613    51A     -0.643660
      52A     -0.634556    53A     -0.629323    54A     -0.616222
      55A     -0.603587    56A     -0.599479    57A     -0.581815
      58A     -0.575367    59A     -0.572178    60A     -0.559497
      61A     -0.556010    62A     -0.548857    63A     -0.542106
      64A     -0.537165    65A     -0.528079    66A     -0.519928
      67A     -0.512510    68A     -0.503887    69A     -0.496916
      70A     -0.485556    71A     -0.480060    72A     -0.476817
      73A     -0.462932    74A     -0.457092    75A     -0.450488
      76A     -0.433250

  @DF-RHF Final Energy: -1327.85697166015007

   => Energetics <=

    Nuclear Repulsion Energy =           1773.0030399435729578
    One-Electron Energy =               -5358.0749155823787078
    Two-Electron Energy =                2257.2149039786559115
    Total Energy =                      -1327.8569716601500659
  Basis Set: (AUG-CC-PVTZ AUX)
    Blend: AUG-CC-PVTZ-RI
    Molecular point group: c1

    Geometry (in Angstrom), charge = 0, multiplicity = 1:

       Center              X                  Y                   Z               Mass
    ------------   -----------------  -----------------  -----------------  -----------------
         P           -2.290237627518    -0.938840539151     0.342777661871    30.973761998420
         O           -0.982294627518    -0.200359539151     0.936388661871    15.994914619570
         O            1.342108372482    -1.674280539151     1.228950661871    15.994914619570
         O            0.078563372482     2.360806460849     0.460267661871    15.994914619570
         O            3.068373372482    -2.185869539151    -0.810490338129    15.994914619570
         O            2.847193372482     2.504315460849     0.369634661871    15.994914619570
         O            4.195546372482     0.436599460849    -0.974774338129    15.994914619570
         O           -2.827004627518     0.034553460849    -0.809431338129    15.994914619570
         O           -3.259262627518    -0.722079539151     1.619770661871    15.994914619570
         O           -2.119134627518    -2.342441539151    -0.101568338129    15.994914619570
         C            0.118020372482     0.031211460849     0.014418661871    12.000000000000
         C            0.953150372482    -1.243002539151    -0.077625338129    12.000000000000
         C            0.898447372482     1.203846460849     0.562950661871    12.000000000000
         C            2.264377272482    -1.039115339151    -0.773970738129    12.000000000000
         C            2.176933372482     1.397674460849    -0.229941338129    12.000000000000
         C            3.025700372482     0.149907460849    -0.212222338129    12.000000000000
         C           -3.124354627518     1.432800460849    -0.490786338129    12.000000000000
         C           -3.536458627518     2.086367460849    -1.786019338129    12.000000000000
         H           -0.283233627518     0.300003460849    -0.972138338129     1.007825032230
         H            0.370127372482    -2.028161539151    -0.573932338129     1.007825032230
         H            1.156978372482     0.999079460849     1.610255661871     1.007825032230
         H            2.060792372482    -0.787457539151    -1.874656338129     1.007825032230
         H            1.916845372482     1.637489460849    -1.275483338129     1.007825032230
         H            3.278349272482    -0.127311039151     0.821589661871     1.007825032230
         H            0.521633372482    -1.886829539151     1.709609661871     1.007825032230
         H            0.665398372482     3.110513460849     0.681283661871     1.007825032230
         H            2.973401372482    -2.546171539151     0.092753661871     1.007825032230
         H            3.721287372482     2.550388460849    -0.060769338129     1.007825032230
         H            4.639585372482    -0.422631539151    -1.098987338129     1.007825032230
         H           -3.808536627518    -1.521135539151     1.732827661871     1.007825032230
         H           -3.930687627518     1.446743460849     0.247485661871     1.007825032230
         H           -2.229903627518     1.894082460849    -0.060996338129     1.007825032230
         H           -3.800662627518     3.132084460849    -1.604571338129     1.007825032230
         H           -2.717337627518     2.054525460849    -2.506775338129     1.007825032230
         H           -4.401085627518     1.575525460849    -2.214624338129     1.007825032230

  Basis Set: AUG-CC-PVTZ
    Blend: AUG-CC-PVTZ
  Basis Set: (AUG-CC-PVTZ AUX)
    Blend: AUG-CC-PVTZ-JKFIT
	 Reference Energy          =   -1327.8569716601500659 [Eh]
	 Singles Energy            =      -0.0000000000000000 [Eh]
	 Same-Spin Energy          =      -1.0150612362726046 [Eh]
	 Opposite-Spin Energy      =      -3.0765641510061665 [Eh]
	 Correlation Energy        =      -4.0916253872787713 [Eh]
	 Total Energy              =   -1331.9485970474288479 [Eh]

	 ================> DF-SCS-MP2 Energies <==================
	-----------------------------------------------------------
	 SCS Same-Spin Scale       =       0.3333333333333333 [-]
	 SCS Opposite-Spin Scale   =       1.2000000000000000 [-]
	 SCS Same-Spin Energy      =      -0.3383537454242015 [Eh]
	 SCS Opposite-Spin Energy  =      -3.6918769812073995 [Eh]
	 SCS Correlation Energy    =      -4.0302307266316006 [Eh]
	 SCS Total Energy          =   -1331.8872023867816097 [Eh]
	-----------------------------------------------------------

  Dipole Moment: [D]
     X:    -1.0951      Y:     1.7770      Z:     0.7684     Total:     2.2243

*** Psi4 exiting successfully. Buy a developer a beer!
