                               Psi4 1.3.2 release

  ==> Input File <==

--------------------------------------------------------------------------
#psi4
#
memory 32 gb

molecule  {
0 1
  P       -2.2900960    -0.9400430     0.3446780
  O       -0.9821530    -0.2015620     0.9382890
  O        1.3422500    -1.6754830     1.2308510
  O        0.0787050     2.3596040     0.4621680
  O        3.0685150    -2.1870720    -0.8085900
  O        2.8473350     2.5031130     0.3715350
  O        4.1956880     0.4353970    -0.9728740
  O       -2.8268630     0.0333510    -0.8075310
  O       -3.2591210    -0.7232820     1.6216710
  O       -2.1189930    -2.3436440    -0.0996680
  C        0.1181620     0.0300090     0.0163190
  C        0.9532920    -1.2442050    -0.0757250
  C        0.8985890     1.2026440     0.5648510
  C        2.2596600    -1.0143070    -0.8180370
  C        2.1770750     1.3964720    -0.2280410
  C        3.0258420     0.1487050    -0.2103220
  C       -3.1242130     1.4315980    -0.4888860
  C       -3.5363170     2.0851650    -1.7841190
  H       -0.2830920     0.2988010    -0.9702380
  H        0.3702690    -2.0293640    -0.5720320
  H        1.1571200     0.9978770     1.6121560
  H        2.0609340    -0.7886600    -1.8727560
  H        1.9169870     1.6362870    -1.2735830
  H        3.2958550    -0.0945320     0.8276460
  H        0.5217750    -1.8880320     1.7115100
  H        0.6655400     3.1093110     0.6831840
  H        2.9735430    -2.5473740     0.0946540
  H        3.8110426     2.5539095    -0.1029948
  H        4.6397270    -0.4238340    -1.0970870
  H       -3.8083950    -1.5223380     1.7347280
  H       -3.9305460     1.4455410     0.2493860
  H       -2.2297620     1.8928800    -0.0590960
  H       -3.8005210     3.1308820    -1.6026710
  H       -2.7171960     2.0533230    -2.5048750
  H       -4.4009440     1.5743230    -2.2127240
units angstrom
no_reorient  #important for SAPT in psi4, default
symmetry c1  #important for SAPT in psi4, default
}

set PROPERTIES_ORIGIN ["COM"]
properties('MP2/aug-cc-pvtz', properties = ['dipole'])
--------------------------------------------------------------------------

    Molecular point group: c1
  Charge       = 0
  Multiplicity = 1
  Basis Set: AUG-CC-PVTZ
    Blend: AUG-CC-PVTZ
  Basis Set: (AUG-CC-PVTZ AUX)
    Blend: AUG-CC-PVTZ-JKFIT

    Orbital Energies [Eh]
    ---------------------

    Doubly Occupied:

       1A    -80.116706     2A    -20.614524     3A    -20.606724
       4A    -20.598706     5A    -20.582845     6A    -20.582786
       7A    -20.574599     8A    -20.574346     9A    -20.572868
      10A    -20.523218    11A    -11.320397    12A    -11.303240
      13A    -11.299153    14A    -11.298987    15A    -11.298016
      16A    -11.295371    17A    -11.290895    18A    -11.229667
      19A     -7.632157    20A     -5.530663    21A     -5.530289
      22A     -5.529088    23A     -1.460024    24A     -1.409723
      25A     -1.393443    26A     -1.388189    27A     -1.386634
      28A     -1.372339    29A     -1.360697    30A     -1.344478
      31A     -1.303613    32A     -1.117400    33A     -1.040225
      34A     -1.010826    35A     -1.000866    36A     -0.878569
      37A     -0.864033    38A     -0.857870    39A     -0.820249
      40A     -0.810026    41A     -0.749720    42A     -0.743012
      43A     -0.731064    44A     -0.727694    45A     -0.701654
      46A     -0.686583    47A     -0.677849    48A     -0.672744
      49A     -0.661721    50A     -0.658062    51A     -0.636330
      52A     -0.634209    53A     -0.626315    54A     -0.614766
      55A     -0.602417    56A     -0.597359    57A     -0.581232
      58A     -0.575310    59A     -0.570608    60A     -0.557949
      61A     -0.553876    62A     -0.547514    63A     -0.540814
      64A     -0.536180    65A     -0.529473    66A     -0.520880
      67A     -0.512002    68A     -0.503755    69A     -0.496243
      70A     -0.484308    71A     -0.479521    72A     -0.476386
      73A     -0.460896    74A     -0.454102    75A     -0.449307
      76A     -0.435894

  @DF-RHF Final Energy: -1327.84812351726418

   => Energetics <=

    Nuclear Repulsion Energy =           1771.8208698113635364
    One-Electron Energy =               -5355.9135854243522772
    Two-Electron Energy =                2256.2445920957243288
    Total Energy =                      -1327.8481235172644119
  Basis Set: (AUG-CC-PVTZ AUX)
    Blend: AUG-CC-PVTZ-RI
    Molecular point group: c1

    Geometry (in Angstrom), charge = 0, multiplicity = 1:

       Center              X                  Y                   Z               Mass
    ------------   -----------------  -----------------  -----------------  -----------------
         P           -2.290409493896    -0.940059508205     0.344832371553    30.973761998420
         O           -0.982466493896    -0.201578508205     0.938443371553    15.994914619570
         O            1.341936506104    -1.675499508205     1.231005371553    15.994914619570
         O            0.078391506104     2.359587491795     0.462322371553    15.994914619570
         O            3.068201506104    -2.187088508205    -0.808435628447    15.994914619570
         O            2.847021506104     2.503096491795     0.371689371553    15.994914619570
         O            4.195374506104     0.435380491795    -0.972719628447    15.994914619570
         O           -2.827176493896     0.033334491795    -0.807376628447    15.994914619570
         O           -3.259434493896    -0.723298508205     1.621825371553    15.994914619570
         O           -2.119306493896    -2.343660508205    -0.099513628447    15.994914619570
         C            0.117848506104     0.029992491795     0.016473371553    12.000000000000
         C            0.952978506104    -1.244221508205    -0.075570628447    12.000000000000
         C            0.898275506104     1.202627491795     0.565005371553    12.000000000000
         C            2.259346506104    -1.014323508205    -0.817882628447    12.000000000000
         C            2.176761506104     1.396455491795    -0.227886628447    12.000000000000
         C            3.025528506104     0.148688491795    -0.210167628447    12.000000000000
         C           -3.124526493896     1.431581491795    -0.488731628447    12.000000000000
         C           -3.536630493896     2.085148491795    -1.783964628447    12.000000000000
         H           -0.283405493896     0.298784491795    -0.970083628447     1.007825032230
         H            0.369955506104    -2.029380508205    -0.571877628447     1.007825032230
         H            1.156806506104     0.997860491795     1.612310371553     1.007825032230
         H            2.060620506104    -0.788676508205    -1.872601628447     1.007825032230
         H            1.916673506104     1.636270491795    -1.273428628447     1.007825032230
         H            3.295541506104    -0.094548508205     0.827800371553     1.007825032230
         H            0.521461506104    -1.888048508205     1.711664371553     1.007825032230
         H            0.665226506104     3.109294491795     0.683338371553     1.007825032230
         H            2.973229506104    -2.547390508205     0.094808371553     1.007825032230
         H            3.810729106104     2.553892991795    -0.102840428447     1.007825032230
         H            4.639413506104    -0.423850508205    -1.096932628447     1.007825032230
         H           -3.808708493896    -1.522354508205     1.734882371553     1.007825032230
         H           -3.930859493896     1.445524491795     0.249540371553     1.007825032230
         H           -2.230075493896     1.892863491795    -0.058941628447     1.007825032230
         H           -3.800834493896     3.130865491795    -1.602516628447     1.007825032230
         H           -2.717509493896     2.053306491795    -2.504720628447     1.007825032230
         H           -4.401257493896     1.574306491795    -2.212569628447     1.007825032230

  Basis Set: AUG-CC-PVTZ
    Blend: AUG-CC-PVTZ
  Basis Set: (AUG-CC-PVTZ AUX)
    Blend: AUG-CC-PVTZ-JKFIT
	 Reference Energy          =   -1327.8481235172641846 [Eh]
	 Singles Energy            =      -0.0000000000000000 [Eh]
	 Same-Spin Energy          =      -1.0158829926230051 [Eh]
	 Opposite-Spin Energy      =      -3.0793610457334726 [Eh]
	 Correlation Energy        =      -4.0952440383564781 [Eh]
	 Total Energy              =   -1331.9433675556206254 [Eh]

	 ================> DF-SCS-MP2 Energies <==================
	-----------------------------------------------------------
	 SCS Same-Spin Scale       =       0.3333333333333333 [-]
	 SCS Opposite-Spin Scale   =       1.2000000000000000 [-]
	 SCS Same-Spin Energy      =      -0.3386276642076683 [Eh]
	 SCS Opposite-Spin Energy  =      -3.6952332548801667 [Eh]
	 SCS Correlation Energy    =      -4.0338609190878350 [Eh]
	 SCS Total Energy          =   -1331.8819844363520133 [Eh]
	-----------------------------------------------------------

  Dipole Moment: [D]
     X:    -1.0041      Y:     1.8794      Z:     0.6826     Total:     2.2374

*** Psi4 exiting successfully. Buy a developer a beer!
