                               Psi4 1.3.2 release

  ==> Input File <==

--------------------------------------------------------------------------
#psi4
#
memory 32 gb

molecule  {
0 1
  P       -2.2900960    -0.9400430     0.3446780
  O       -0.9821530    -0.2015620     0.9382890
  O        1.3422500    -1.6754830     1.2308510
  O        0.0787050     2.3596040     0.4621680
  O        3.0685150    -2.1870720    -0.8085900
  O        2.8473350     2.5031130     0.3715350
  O        4.1956880     0.4353970    -0.9728740
  O       -2.8268630     0.0333510    -0.8075310
  O       -3.2591210    -0.7232820     1.6216710
  O       -2.1189930    -2.3436440    -0.0996680
  C        0.1181620     0.0300090     0.0163190
  C        0.9532920    -1.2442050    -0.0757250
  C        0.8985890     1.2026440     0.5648510
  C        2.2596600    -1.0143070    -0.8180370
  C        2.1770750     1.3964720    -0.2280410
  C        2.9696019     0.2313832    -0.2114961
  C       -3.1242130     1.4315980    -0.4888860
  C       -3.5363170     2.0851650    -1.7841190
  H       -0.2830920     0.2988010    -0.9702380
  H        0.3702690    -2.0293640    -0.5720320
  H        1.1571200     0.9978770     1.6121560
  H        2.0609340    -0.7886600    -1.8727560
  H        1.9169870     1.6362870    -1.2735830
  H        3.2958550    -0.0945320     0.8276460
  H        0.5217750    -1.8880320     1.7115100
  H        0.6655400     3.1093110     0.6831840
  H        2.9735430    -2.5473740     0.0946540
  H        3.7214290     2.5491860    -0.0588690
  H        4.6397270    -0.4238340    -1.0970870
  H       -3.8083950    -1.5223380     1.7347280
  H       -3.9305460     1.4455410     0.2493860
  H       -2.2297620     1.8928800    -0.0590960
  H       -3.8005210     3.1308820    -1.6026710
  H       -2.7171960     2.0533230    -2.5048750
  H       -4.4009440     1.5743230    -2.2127240
units angstrom
no_reorient  #important for SAPT in psi4, default
symmetry c1  #important for SAPT in psi4, default
}

set PROPERTIES_ORIGIN ["COM"]
properties('MP2/aug-cc-pvtz', properties = ['dipole'])
--------------------------------------------------------------------------

    Molecular point group: c1
  Charge       = 0
  Multiplicity = 1
  Basis Set: AUG-CC-PVTZ
    Blend: AUG-CC-PVTZ
  Basis Set: (AUG-CC-PVTZ AUX)
    Blend: AUG-CC-PVTZ-JKFIT

    Orbital Energies [Eh]
    ---------------------

    Doubly Occupied:

       1A    -80.117399     2A    -20.615122     3A    -20.607806
       4A    -20.599410     5A    -20.583033     6A    -20.578256
       7A    -20.578074     8A    -20.575476     9A    -20.568059
      10A    -20.523706    11A    -11.321813    12A    -11.303105
      13A    -11.302449    14A    -11.301769    15A    -11.299903
      16A    -11.294997    17A    -11.293719    18A    -11.230283
      19A     -7.632846    20A     -5.531352    21A     -5.530982
      22A     -5.529774    23A     -1.460842    24A     -1.410904
      25A     -1.395935    26A     -1.392317    27A     -1.387095
      28A     -1.369284    29A     -1.365608    30A     -1.347652
      31A     -1.304113    32A     -1.127452    33A     -1.041116
      34A     -1.023208    35A     -1.003089    36A     -0.878767
      37A     -0.866016    38A     -0.863404    39A     -0.821972
      40A     -0.810629    41A     -0.753209    42A     -0.745136
      43A     -0.731790    44A     -0.729219    45A     -0.709558
      46A     -0.686217    47A     -0.678874    48A     -0.673413
      49A     -0.665556    50A     -0.661684    51A     -0.644265
      52A     -0.635750    53A     -0.627331    54A     -0.616312
      55A     -0.604681    56A     -0.596359    57A     -0.579831
      58A     -0.575862    59A     -0.570109    60A     -0.560195
      61A     -0.555648    62A     -0.548151    63A     -0.541444
      64A     -0.536347    65A     -0.528416    66A     -0.521871
      67A     -0.513070    68A     -0.502323    69A     -0.497819
      70A     -0.485857    71A     -0.480343    72A     -0.476917
      73A     -0.468102    74A     -0.462363    75A     -0.450936
      76A     -0.428105

  @DF-RHF Final Energy: -1327.84828490730342

   => Energetics <=

    Nuclear Repulsion Energy =           1773.4044773426501251
    One-Electron Energy =               -5358.8419255388271267
    Two-Electron Energy =                2257.5891632888733511
    Total Energy =                      -1327.8482849073034231
  Basis Set: (AUG-CC-PVTZ AUX)
    Blend: AUG-CC-PVTZ-RI
    Molecular point group: c1

    Geometry (in Angstrom), charge = 0, multiplicity = 1:

       Center              X                  Y                   Z               Mass
    ------------   -----------------  -----------------  -----------------  -----------------
         P           -2.287753126048    -0.943487177597     0.344726901240    30.973761998420
         O           -0.979810126048    -0.205006177597     0.938337901240    15.994914619570
         O            1.344592873952    -1.678927177597     1.230899901240    15.994914619570
         O            0.081047873952     2.356159822403     0.462216901240    15.994914619570
         O            3.070857873952    -2.190516177597    -0.808541098760    15.994914619570
         O            2.849677873952     2.499668822403     0.371583901240    15.994914619570
         O            4.198030873952     0.431952822403    -0.972825098760    15.994914619570
         O           -2.824520126048     0.029906822403    -0.807482098760    15.994914619570
         O           -3.256778126048    -0.726726177597     1.621719901240    15.994914619570
         O           -2.116650126048    -2.347088177597    -0.099619098760    15.994914619570
         C            0.120504873952     0.026564822403     0.016367901240    12.000000000000
         C            0.955634873952    -1.247649177597    -0.075676098760    12.000000000000
         C            0.900931873952     1.199199822403     0.564899901240    12.000000000000
         C            2.262002873952    -1.017751177597    -0.817988098760    12.000000000000
         C            2.179417873952     1.393027822403    -0.227992098760    12.000000000000
         C            2.971944773952     0.227939022403    -0.211447198760    12.000000000000
         C           -3.121870126048     1.428153822403    -0.488837098760    12.000000000000
         C           -3.533974126048     2.081720822403    -1.784070098760    12.000000000000
         H           -0.280749126048     0.295356822403    -0.970189098760     1.007825032230
         H            0.372611873952    -2.032808177597    -0.571983098760     1.007825032230
         H            1.159462873952     0.994432822403     1.612204901240     1.007825032230
         H            2.063276873952    -0.792104177597    -1.872707098760     1.007825032230
         H            1.919329873952     1.632842822403    -1.273534098760     1.007825032230
         H            3.298197873952    -0.097976177597     0.827694901240     1.007825032230
         H            0.524117873952    -1.891476177597     1.711558901240     1.007825032230
         H            0.667882873952     3.105866822403     0.683232901240     1.007825032230
         H            2.975885873952    -2.550818177597     0.094702901240     1.007825032230
         H            3.723771873952     2.545741822403    -0.058820098760     1.007825032230
         H            4.642069873952    -0.427278177597    -1.097038098760     1.007825032230
         H           -3.806052126048    -1.525782177597     1.734776901240     1.007825032230
         H           -3.928203126048     1.442096822403     0.249434901240     1.007825032230
         H           -2.227419126048     1.889435822403    -0.059047098760     1.007825032230
         H           -3.798178126048     3.127437822403    -1.602622098760     1.007825032230
         H           -2.714853126048     2.049878822403    -2.504826098760     1.007825032230
         H           -4.398601126048     1.570878822403    -2.212675098760     1.007825032230

  Basis Set: AUG-CC-PVTZ
    Blend: AUG-CC-PVTZ
  Basis Set: (AUG-CC-PVTZ AUX)
    Blend: AUG-CC-PVTZ-JKFIT
	 Reference Energy          =   -1327.8482849073034231 [Eh]
	 Singles Energy            =      -0.0000000000000000 [Eh]
	 Same-Spin Energy          =      -1.0155921762782105 [Eh]
	 Opposite-Spin Energy      =      -3.0775946398079266 [Eh]
	 Correlation Energy        =      -4.0931868160861367 [Eh]
	 Total Energy              =   -1331.9414717233896681 [Eh]

	 ================> DF-SCS-MP2 Energies <==================
	-----------------------------------------------------------
	 SCS Same-Spin Scale       =       0.3333333333333333 [-]
	 SCS Opposite-Spin Scale   =       1.2000000000000000 [-]
	 SCS Same-Spin Energy      =      -0.3385307254260702 [Eh]
	 SCS Opposite-Spin Energy  =      -3.6931135677695117 [Eh]
	 SCS Correlation Energy    =      -4.0316442931955816 [Eh]
	 SCS Total Energy          =   -1331.8799292004989638 [Eh]
	-----------------------------------------------------------

  Dipole Moment: [D]
     X:    -1.2822      Y:     1.8675      Z:     0.7607     Total:     2.3896

*** Psi4 exiting successfully. Buy a developer a beer!
