                               Psi4 1.3.2 release

  ==> Input File <==

--------------------------------------------------------------------------
#psi4
#
memory 32 gb

molecule  {
0 1
  P       -2.2900960    -0.9400430     0.3446780
  O       -0.9821530    -0.2015620     0.9382890
  O        1.3181789    -1.6773132     1.2371744
  O        0.0787050     2.3596040     0.4621680
  O        3.0685150    -2.1870720    -0.8085900
  O        2.8473350     2.5031130     0.3715350
  O        4.1956880     0.4353970    -0.9728740
  O       -2.8268630     0.0333510    -0.8075310
  O       -3.2591210    -0.7232820     1.6216710
  O       -2.1189930    -2.3436440    -0.0996680
  C        0.1181620     0.0300090     0.0163190
  C        0.9532920    -1.2442050    -0.0757250
  C        0.8985890     1.2026440     0.5648510
  C        2.2459011    -1.0071316    -0.8395545
  C        2.1770750     1.3964720    -0.2280410
  C        3.0258420     0.1487050    -0.2103220
  C       -3.1242130     1.4315980    -0.4888860
  C       -3.5363170     2.0851650    -1.7841190
  H       -0.2830920     0.2988010    -0.9702380
  H        0.3702690    -2.0293640    -0.5720320
  H        1.1571200     0.9978770     1.6121560
  H        2.0609340    -0.7886600    -1.8727560
  H        1.9169870     1.6362870    -1.2735830
  H        3.2958550    -0.0945320     0.8276460
  H        0.5217750    -1.8880320     1.7115100
  H        0.6655400     3.1093110     0.6831840
  H        2.9735430    -2.5473740     0.0946540
  H        3.7214290     2.5491860    -0.0588690
  H        4.6397270    -0.4238340    -1.0970870
  H       -3.8083950    -1.5223380     1.7347280
  H       -3.9305460     1.4455410     0.2493860
  H       -2.2297620     1.8928800    -0.0590960
  H       -3.8005210     3.1308820    -1.6026710
  H       -2.7171960     2.0533230    -2.5048750
  H       -4.4009440     1.5743230    -2.2127240
units angstrom
no_reorient  #important for SAPT in psi4, default
symmetry c1  #important for SAPT in psi4, default
}

set PROPERTIES_ORIGIN ["COM"]
properties('MP2/aug-cc-pvtz', properties = ['dipole'])
--------------------------------------------------------------------------

    Molecular point group: c1
  Charge       = 0
  Multiplicity = 1
  Basis Set: AUG-CC-PVTZ
    Blend: AUG-CC-PVTZ
  Basis Set: (AUG-CC-PVTZ AUX)
    Blend: AUG-CC-PVTZ-JKFIT

    Orbital Energies [Eh]
    ---------------------

    Doubly Occupied:

       1A    -80.116642     2A    -20.614487     3A    -20.606497
       4A    -20.598752     5A    -20.580496     6A    -20.576832
       7A    -20.574385     8A    -20.573506     9A    -20.573324
      10A    -20.523111    11A    -11.320450    12A    -11.304310
      13A    -11.299940    14A    -11.299276    15A    -11.298647
      16A    -11.296679    17A    -11.292580    18A    -11.229824
      19A     -7.632090    20A     -5.530596    21A     -5.530223
      22A     -5.529021    23A     -1.460029    24A     -1.410791
      25A     -1.395202    26A     -1.391775    27A     -1.386580
      28A     -1.373492    29A     -1.362985    30A     -1.352832
      31A     -1.303515    32A     -1.120038    33A     -1.040369
      34A     -1.011655    35A     -1.005121    36A     -0.880117
      37A     -0.864831    38A     -0.860287    39A     -0.822586
      40A     -0.813287    41A     -0.751526    42A     -0.744670
      43A     -0.731414    44A     -0.728769    45A     -0.707804
      46A     -0.686886    47A     -0.680236    48A     -0.673318
      49A     -0.662559    50A     -0.660415    51A     -0.643155
      52A     -0.635261    53A     -0.626661    54A     -0.615786
      55A     -0.603754    56A     -0.598978    57A     -0.581874
      58A     -0.575682    59A     -0.570292    60A     -0.559394
      61A     -0.557396    62A     -0.548119    63A     -0.541441
      64A     -0.537035    65A     -0.531011    66A     -0.522048
      67A     -0.513161    68A     -0.505193    69A     -0.496946
      70A     -0.484729    71A     -0.479591    72A     -0.476354
      73A     -0.462321    74A     -0.455936    75A     -0.450063
      76A     -0.435440

  @DF-RHF Final Energy: -1327.86185715295051

   => Energetics <=

    Nuclear Repulsion Energy =           1772.3729703763565340
    One-Electron Energy =               -5356.8848939295812670
    Two-Electron Energy =                2256.6500664002742269
    Total Energy =                      -1327.8618571529505061
  Basis Set: (AUG-CC-PVTZ AUX)
    Blend: AUG-CC-PVTZ-RI
    Molecular point group: c1

    Geometry (in Angstrom), charge = 0, multiplicity = 1:

       Center              X                  Y                   Z               Mass
    ------------   -----------------  -----------------  -----------------  -----------------
         P           -2.288186225990    -0.940240270065     0.345223249401    30.973761998420
         O           -0.980243225990    -0.201759270065     0.938834249401    15.994914619570
         O            1.320088674010    -1.677510470065     1.237719649401    15.994914619570
         O            0.080614774010     2.359406729935     0.462713249401    15.994914619570
         O            3.070424774010    -2.187269270065    -0.808044750599    15.994914619570
         O            2.849244774010     2.502915729935     0.372080249401    15.994914619570
         O            4.197597774010     0.435199729935    -0.972328750599    15.994914619570
         O           -2.824953225990     0.033153729935    -0.806985750599    15.994914619570
         O           -3.257211225990    -0.723479270065     1.622216249401    15.994914619570
         O           -2.117083225990    -2.343841270065    -0.099122750599    15.994914619570
         C            0.120071774010     0.029811729935     0.016864249401    12.000000000000
         C            0.955201774010    -1.244402270065    -0.075179750599    12.000000000000
         C            0.900498774010     1.202446729935     0.565396249401    12.000000000000
         C            2.247810874010    -1.007328870065    -0.839009250599    12.000000000000
         C            2.178984774010     1.396274729935    -0.227495750599    12.000000000000
         C            3.027751774010     0.148507729935    -0.209776750599    12.000000000000
         C           -3.122303225990     1.431400729935    -0.488340750599    12.000000000000
         C           -3.534407225990     2.084967729935    -1.783573750599    12.000000000000
         H           -0.281182225990     0.298603729935    -0.969692750599     1.007825032230
         H            0.372178774010    -2.029561270065    -0.571486750599     1.007825032230
         H            1.159029774010     0.997679729935     1.612701249401     1.007825032230
         H            2.062843774010    -0.788857270065    -1.872210750599     1.007825032230
         H            1.918896774010     1.636089729935    -1.273037750599     1.007825032230
         H            3.297764774010    -0.094729270065     0.828191249401     1.007825032230
         H            0.523684774010    -1.888229270065     1.712055249401     1.007825032230
         H            0.667449774010     3.109113729935     0.683729249401     1.007825032230
         H            2.975452774010    -2.547571270065     0.095199249401     1.007825032230
         H            3.723338774010     2.548988729935    -0.058323750599     1.007825032230
         H            4.641636774010    -0.424031270065    -1.096541750599     1.007825032230
         H           -3.806485225990    -1.522535270065     1.735273249401     1.007825032230
         H           -3.928636225990     1.445343729935     0.249931249401     1.007825032230
         H           -2.227852225990     1.892682729935    -0.058550750599     1.007825032230
         H           -3.798611225990     3.130684729935    -1.602125750599     1.007825032230
         H           -2.715286225990     2.053125729935    -2.504329750599     1.007825032230
         H           -4.399034225990     1.574125729935    -2.212178750599     1.007825032230

  Basis Set: AUG-CC-PVTZ
    Blend: AUG-CC-PVTZ
  Basis Set: (AUG-CC-PVTZ AUX)
    Blend: AUG-CC-PVTZ-JKFIT
	 Reference Energy          =   -1327.8618571529505061 [Eh]
	 Singles Energy            =      -0.0000000000000000 [Eh]
	 Same-Spin Energy          =      -1.0140717388433127 [Eh]
	 Opposite-Spin Energy      =      -3.0751962085878155 [Eh]
	 Correlation Energy        =      -4.0892679474311286 [Eh]
	 Total Energy              =   -1331.9511251003816596 [Eh]

	 ================> DF-SCS-MP2 Energies <==================
	-----------------------------------------------------------
	 SCS Same-Spin Scale       =       0.3333333333333333 [-]
	 SCS Opposite-Spin Scale   =       1.2000000000000000 [-]
	 SCS Same-Spin Energy      =      -0.3380239129477709 [Eh]
	 SCS Opposite-Spin Energy  =      -3.6902354503053783 [Eh]
	 SCS Correlation Energy    =      -4.0282593632531487 [Eh]
	 SCS Total Energy          =   -1331.8901165162037614 [Eh]
	-----------------------------------------------------------

  Dipole Moment: [D]
     X:    -1.0847      Y:     1.8973      Z:     0.6748     Total:     2.2873

*** Psi4 exiting successfully. Buy a developer a beer!
