                               Psi4 1.4a3.dev225

  ==> Input File <==

--------------------------------------------------------------------------
#psi4
#
memory 32 gb

molecule  {
0 1
  P       -2.3219140    -1.0563120    -0.0968450
  O       -1.0285840    -0.5623410     0.7549430
  O        1.3695440    -1.8069540     1.2202350
  O       -0.1592450     2.1412630     0.5207450
  O        3.3269040    -2.0858120    -0.6453880
  O        2.5724350     2.5270130     0.6374560
  O        4.2203020     0.6406430    -0.6358120
  O       -2.8737010     0.2643620    -0.8096810
  O       -3.3065970    -1.3497020     1.1531960
  O       -2.1044560    -2.1814480    -1.0350500
  C        0.1200290    -0.1583450    -0.0432010
  C        1.0698050    -1.3527180    -0.1046720
  C        0.7441670     1.0454510     0.6308160
  C        2.3750113    -0.9986307    -0.6870686
  C        2.0603010     1.3853380    -0.0470020
  C        3.0180900     0.2181970     0.0056710
  C       -3.2473180     1.4231610     0.0025120
  C       -3.2076300     2.6262440    -0.9075720
  H       -0.2047330     0.1313700    -1.0514980
  H        0.5965010    -2.1549610    -0.6866410
  H        0.9371260     0.8063110     1.6860210
  H        2.3054700    -0.7437210    -1.7704410
  H        1.8633300     1.6367370    -1.1028410
  H        3.2142070    -0.0417910     1.0561650
  H        0.5126160    -2.0057500     1.6426110
  H        0.3598300     2.9232990     0.7925780
  H        3.1793900    -2.4823080     0.2360710
  H        3.4672560     2.6739710     0.2770410
  H        4.7639490    -0.1654590    -0.7244900
  H       -3.7873380    -2.1826420     0.9908450
  H       -4.2474700     1.2335250     0.4005830
  H       -2.5352900     1.5309660     0.8217280
  H       -3.5402110     3.5125760    -0.3587690
  H       -2.1856630     2.7912820    -1.2511950
  H       -3.8637180     2.4807570    -1.7684970
units angstrom
no_reorient  #important for SAPT in psi4, default
symmetry c1  #important for SAPT in psi4, default
}

set PROPERTIES_ORIGIN ["COM"]
properties('MP2/aug-cc-pvtz', properties = ['dipole'])
--------------------------------------------------------------------------

    Molecular point group: c1
  Charge       = 0
  Multiplicity = 1
  Basis Set: AUG-CC-PVTZ
    Blend: AUG-CC-PVTZ
  Basis Set: (AUG-CC-PVTZ AUX)
    Blend: AUG-CC-PVTZ-JKFIT

    Orbital Energies [Eh]
    ---------------------

    Doubly Occupied:

       1A    -80.117377     2A    -20.615450     3A    -20.608994
       4A    -20.596456     5A    -20.584976     6A    -20.577876
       7A    -20.576472     8A    -20.574955     9A    -20.574361
      10A    -20.523061    11A    -11.322823    12A    -11.304767
      13A    -11.301012    14A    -11.300876    15A    -11.297798
      16A    -11.296473    17A    -11.294050    18A    -11.223140
      19A     -7.632641    20A     -5.531175    21A     -5.530674
      22A     -5.529611    23A     -1.459147    24A     -1.411239
      25A     -1.395609    26A     -1.391854    27A     -1.385439
      28A     -1.373251    29A     -1.362432    30A     -1.352395
      31A     -1.303243    32A     -1.122238    33A     -1.035796
      34A     -1.011730    35A     -1.008517    36A     -0.879306
      37A     -0.863083    38A     -0.857263    39A     -0.822743
      40A     -0.809537    41A     -0.756097    42A     -0.745831
      43A     -0.730152    44A     -0.726802    45A     -0.706055
      46A     -0.686554    47A     -0.679663    48A     -0.674252
      49A     -0.661293    50A     -0.657366    51A     -0.642995
      52A     -0.637624    53A     -0.622689    54A     -0.613006
      55A     -0.604234    56A     -0.594502    57A     -0.581155
      58A     -0.578628    59A     -0.570030    60A     -0.559353
      61A     -0.554919    62A     -0.548106    63A     -0.538530
      64A     -0.536921    65A     -0.531567    66A     -0.517958
      67A     -0.508655    68A     -0.506930    69A     -0.495777
      70A     -0.490007    71A     -0.479555    72A     -0.476004
      73A     -0.463693    74A     -0.456901    75A     -0.451797
      76A     -0.434636

  @DF-RHF Final Energy: -1327.85700576693716

   => Energetics <=

    Nuclear Repulsion Energy =           1775.2189851269095016
    One-Electron Energy =               -5362.5918205342613874
    Two-Electron Energy =                2259.5158296404147222
    Total Energy =                      -1327.8570057669371636
  Basis Set: (AUG-CC-PVTZ AUX)
    Blend: AUG-CC-PVTZ-RI
    Molecular point group: c1

    Geometry (in Angstrom), charge = 0, multiplicity = 1:

       Center              X                  Y                   Z               Mass
    ------------   -----------------  -----------------  -----------------  -----------------
         P           -2.309306312426    -1.018032059769    -0.100113319765    30.973761998420
         O           -1.015976312426    -0.524061059769     0.751674680235    15.994914619570
         O            1.382151687574    -1.768674059769     1.216966680235    15.994914619570
         O           -0.146637312426     2.179542940231     0.517476680235    15.994914619570
         O            3.339511687574    -2.047532059769    -0.648656319765    15.994914619570
         O            2.585042687574     2.565292940231     0.634187680235    15.994914619570
         O            4.232909687574     0.678922940231    -0.639080319765    15.994914619570
         O           -2.861093312426     0.302641940231    -0.812949319765    15.994914619570
         O           -3.293989312426    -1.311422059769     1.149927680235    15.994914619570
         O           -2.091848312426    -2.143168059769    -1.038318319765    15.994914619570
         C            0.132636687574    -0.120065059769    -0.046469319765    12.000000000000
         C            1.082412687574    -1.314438059769    -0.107940319765    12.000000000000
         C            0.756774687574     1.083730940231     0.627547680235    12.000000000000
         C            2.387618987574    -0.960350759769    -0.690336919765    12.000000000000
         C            2.072908687574     1.423617940231    -0.050270319765    12.000000000000
         C            3.030697687574     0.256476940231     0.002402680235    12.000000000000
         C           -3.234710312426     1.461440940231    -0.000756319765    12.000000000000
         C           -3.195022312426     2.664523940231    -0.910840319765    12.000000000000
         H           -0.192125312426     0.169649940231    -1.054766319765     1.007825032230
         H            0.609108687574    -2.116681059769    -0.689909319765     1.007825032230
         H            0.949733687574     0.844590940231     1.682752680235     1.007825032230
         H            2.318077687574    -0.705441059769    -1.773709319765     1.007825032230
         H            1.875937687574     1.675016940231    -1.106109319765     1.007825032230
         H            3.226814687574    -0.003511059769     1.052896680235     1.007825032230
         H            0.525223687574    -1.967470059769     1.639342680235     1.007825032230
         H            0.372437687574     2.961578940231     0.789309680235     1.007825032230
         H            3.191997687574    -2.444028059769     0.232802680235     1.007825032230
         H            3.479863687574     2.712250940231     0.273772680235     1.007825032230
         H            4.776556687574    -0.127179059769    -0.727758319765     1.007825032230
         H           -3.774730312426    -2.144362059769     0.987576680235     1.007825032230
         H           -4.234862312426     1.271804940231     0.397314680235     1.007825032230
         H           -2.522682312426     1.569245940231     0.818459680235     1.007825032230
         H           -3.527603312426     3.550855940231    -0.362037319765     1.007825032230
         H           -2.173055312426     2.829561940231    -1.254463319765     1.007825032230
         H           -3.851110312426     2.519036940231    -1.771765319765     1.007825032230

  Basis Set: AUG-CC-PVTZ
    Blend: AUG-CC-PVTZ
  Basis Set: (AUG-CC-PVTZ AUX)
    Blend: AUG-CC-PVTZ-JKFIT
	 Reference Energy          =   -1327.8570057669371636 [Eh]
	 Singles Energy            =      -0.0000000000000000 [Eh]
	 Same-Spin Energy          =      -1.0152263587747654 [Eh]
	 Opposite-Spin Energy      =      -3.0775840440151603 [Eh]
	 Correlation Energy        =      -4.0928104027899259 [Eh]
	 Total Energy              =   -1331.9498161697270007 [Eh]

	 ================> DF-SCS-MP2 Energies <==================
	-----------------------------------------------------------
	 SCS Same-Spin Scale       =       0.3333333333333333 [-]
	 SCS Opposite-Spin Scale   =       1.2000000000000000 [-]
	 SCS Same-Spin Energy      =      -0.3384087862582551 [Eh]
	 SCS Opposite-Spin Energy  =      -3.6931008528181923 [Eh]
	 SCS Correlation Energy    =      -4.0315096390764475 [Eh]
	 SCS Total Energy          =   -1331.8885154060135392 [Eh]
	-----------------------------------------------------------

  Dipole Moment: [D]
     X:    -0.9352      Y:     1.4303      Z:     1.8914     Total:     2.5491

*** Psi4 exiting successfully. Buy a developer a beer!
