                               Psi4 1.3.2 release

  ==> Input File <==

--------------------------------------------------------------------------
#psi4
#
memory 32 gb

molecule  {
0 1
  P       -2.2900960    -0.9400430     0.3446780
  O       -0.9821530    -0.2015620     0.9382890
  O        1.3422500    -1.6754830     1.2308510
  O        0.1153653     2.3863067     0.4823086
  O        3.0685150    -2.1870720    -0.8085900
  O        2.8473350     2.5031130     0.3715350
  O        4.1956880     0.4353970    -0.9728740
  O       -2.8268630     0.0333510    -0.8075310
  O       -3.2591210    -0.7232820     1.6216710
  O       -2.1189930    -2.3436440    -0.0996680
  C        0.1594042    -0.0011734     0.0268399
  C        0.9532920    -1.2442050    -0.0757250
  C        0.8985890     1.2026440     0.5648510
  C        2.2596600    -1.0143070    -0.8180370
  C        2.1770750     1.3964720    -0.2280410
  C        3.0258420     0.1487050    -0.2103220
  C       -3.1242130     1.4315980    -0.4888860
  C       -3.5363170     2.0851650    -1.7841190
  H       -0.2830920     0.2988010    -0.9702380
  H        0.3702690    -2.0293640    -0.5720320
  H        1.1571200     0.9978770     1.6121560
  H        2.0609340    -0.7886600    -1.8727560
  H        1.9169870     1.6362870    -1.2735830
  H        3.2958550    -0.0945320     0.8276460
  H        0.5217750    -1.8880320     1.7115100
  H        0.6655400     3.1093110     0.6831840
  H        2.9735430    -2.5473740     0.0946540
  H        3.7214290     2.5491860    -0.0588690
  H        4.6397270    -0.4238340    -1.0970870
  H       -3.8083950    -1.5223380     1.7347280
  H       -3.9305460     1.4455410     0.2493860
  H       -2.2297620     1.8928800    -0.0590960
  H       -3.8005210     3.1308820    -1.6026710
  H       -2.7171960     2.0533230    -2.5048750
  H       -4.4009440     1.5743230    -2.2127240
units angstrom
no_reorient  #important for SAPT in psi4, default
symmetry c1  #important for SAPT in psi4, default
}

set PROPERTIES_ORIGIN ["COM"]
properties('MP2/aug-cc-pvtz', properties = ['dipole'])
--------------------------------------------------------------------------

    Molecular point group: c1
  Charge       = 0
  Multiplicity = 1
  Basis Set: AUG-CC-PVTZ
    Blend: AUG-CC-PVTZ
  Basis Set: (AUG-CC-PVTZ AUX)
    Blend: AUG-CC-PVTZ-JKFIT

    Orbital Energies [Eh]
    ---------------------

    Doubly Occupied:

       1A    -80.116056     2A    -20.614109     3A    -20.604878
       4A    -20.598377     5A    -20.584265     6A    -20.576094
       7A    -20.576075     8A    -20.574700     9A    -20.568912
      10A    -20.522904    11A    -11.325058    12A    -11.304368
      13A    -11.301320    14A    -11.300647    15A    -11.299386
      16A    -11.296538    17A    -11.292120    18A    -11.229755
      19A     -7.631470    20A     -5.529966    21A     -5.529597
      22A     -5.528432    23A     -1.457752    24A     -1.412363
      25A     -1.397103    26A     -1.392571    27A     -1.386399
      28A     -1.373820    29A     -1.366389    30A     -1.354955
      31A     -1.303223    32A     -1.125958    33A     -1.040285
      34A     -1.015673    35A     -1.008000    36A     -0.879095
      37A     -0.864710    38A     -0.864185    39A     -0.821593
      40A     -0.809046    41A     -0.756122    42A     -0.744559
      43A     -0.734716    44A     -0.726518    45A     -0.708818
      46A     -0.691602    47A     -0.680312    48A     -0.673270
      49A     -0.662351    50A     -0.660865    51A     -0.647127
      52A     -0.635048    53A     -0.626798    54A     -0.616529
      55A     -0.603539    56A     -0.600035    57A     -0.582429
      58A     -0.575160    59A     -0.570491    60A     -0.558590
      61A     -0.557363    62A     -0.548708    63A     -0.541011
      64A     -0.537771    65A     -0.526789    66A     -0.521114
      67A     -0.512884    68A     -0.504332    69A     -0.496500
      70A     -0.485009    71A     -0.480008    72A     -0.476712
      73A     -0.464076    74A     -0.456037    75A     -0.453690
      76A     -0.437895

  @DF-RHF Final Energy: -1327.85832299617209

   => Energetics <=

    Nuclear Repulsion Energy =           1772.1112942177321656
    One-Electron Energy =               -5356.2733911592431468
    Two-Electron Energy =                2256.3037739453384347
    Total Energy =                      -1327.8583229961723191
  Basis Set: (AUG-CC-PVTZ AUX)
    Blend: AUG-CC-PVTZ-RI
    Molecular point group: c1

    Geometry (in Angstrom), charge = 0, multiplicity = 1:

       Center              X                  Y                   Z               Mass
    ------------   -----------------  -----------------  -----------------  -----------------
         P           -2.293849632871    -0.940226688565     0.343121383150    30.973761998420
         O           -0.985906632871    -0.201745688565     0.936732383150    15.994914619570
         O            1.338496367129    -1.675666688565     1.229294383150    15.994914619570
         O            0.111611667129     2.386123011435     0.480751983150    15.994914619570
         O            3.064761367129    -2.187255688565    -0.810146616850    15.994914619570
         O            2.843581367129     2.502929311435     0.369978383150    15.994914619570
         O            4.191934367129     0.435213311435    -0.974430616850    15.994914619570
         O           -2.830616632871     0.033167311435    -0.809087616850    15.994914619570
         O           -3.262874632871    -0.723465688565     1.620114383150    15.994914619570
         O           -2.122746632871    -2.343827688565    -0.101224616850    15.994914619570
         C            0.155650567129    -0.001357088565     0.025283283150    12.000000000000
         C            0.949538367129    -1.244388688565    -0.077281616850    12.000000000000
         C            0.894835367129     1.202460311435     0.563294383150    12.000000000000
         C            2.255906367129    -1.014490688565    -0.819593616850    12.000000000000
         C            2.173321367129     1.396288311435    -0.229597616850    12.000000000000
         C            3.022088367129     0.148521311435    -0.211878616850    12.000000000000
         C           -3.127966632871     1.431414311435    -0.490442616850    12.000000000000
         C           -3.540070632871     2.084981311435    -1.785675616850    12.000000000000
         H           -0.286845632871     0.298617311435    -0.971794616850     1.007825032230
         H            0.366515367129    -2.029547688565    -0.573588616850     1.007825032230
         H            1.153366367129     0.997693311435     1.610599383150     1.007825032230
         H            2.057180367129    -0.788843688565    -1.874312616850     1.007825032230
         H            1.913233367129     1.636103311435    -1.275139616850     1.007825032230
         H            3.292101367129    -0.094715688565     0.826089383150     1.007825032230
         H            0.518021367129    -1.888215688565     1.709953383150     1.007825032230
         H            0.661786367129     3.109127311435     0.681627383150     1.007825032230
         H            2.969789367129    -2.547557688565     0.093097383150     1.007825032230
         H            3.717675367129     2.549002311435    -0.060425616850     1.007825032230
         H            4.635973367129    -0.424017688565    -1.098643616850     1.007825032230
         H           -3.812148632871    -1.522521688565     1.733171383150     1.007825032230
         H           -3.934299632871     1.445357311435     0.247829383150     1.007825032230
         H           -2.233515632871     1.892696311435    -0.060652616850     1.007825032230
         H           -3.804274632871     3.130698311435    -1.604227616850     1.007825032230
         H           -2.720949632871     2.053139311435    -2.506431616850     1.007825032230
         H           -4.404697632871     1.574139311435    -2.214280616850     1.007825032230

  Basis Set: AUG-CC-PVTZ
    Blend: AUG-CC-PVTZ
  Basis Set: (AUG-CC-PVTZ AUX)
    Blend: AUG-CC-PVTZ-JKFIT
	 Reference Energy          =   -1327.8583229961720917 [Eh]
	 Singles Energy            =      -0.0000000000000000 [Eh]
	 Same-Spin Energy          =      -1.0142606906695752 [Eh]
	 Opposite-Spin Energy      =      -3.0749174916335615 [Eh]
	 Correlation Energy        =      -4.0891781823031366 [Eh]
	 Total Energy              =   -1331.9475011784752496 [Eh]

	 ================> DF-SCS-MP2 Energies <==================
	-----------------------------------------------------------
	 SCS Same-Spin Scale       =       0.3333333333333333 [-]
	 SCS Opposite-Spin Scale   =       1.2000000000000000 [-]
	 SCS Same-Spin Energy      =      -0.3380868968898584 [Eh]
	 SCS Opposite-Spin Energy  =      -3.6899009899602735 [Eh]
	 SCS Correlation Energy    =      -4.0279878868501315 [Eh]
	 SCS Total Energy          =   -1331.8863108830221336 [Eh]
	-----------------------------------------------------------

  Dipole Moment: [D]
     X:    -1.0416      Y:     1.7707      Z:     0.6696     Total:     2.1607

*** Psi4 exiting successfully. Buy a developer a beer!
