                               Psi4 1.3.2 release

  ==> Input File <==

--------------------------------------------------------------------------
#psi4
#
memory 32 gb

molecule  {
0 1
  P       -2.2900960    -0.9400430     0.3446780
  O       -0.9821530    -0.2015620     0.9382890
  O        1.3422500    -1.6754830     1.2308510
  O        0.0787050     2.3596040     0.4621680
  O        3.0685150    -2.1870720    -0.8085900
  O        2.8473350     2.5031130     0.3715350
  O        4.1956880     0.4353970    -0.9728740
  O       -2.8268630     0.0333510    -0.8075310
  O       -3.2591210    -0.7232820     1.6216710
  O       -2.1189930    -2.3436440    -0.0996680
  C        0.1590464     0.0539301     0.0406999
  C        0.9532920    -1.2442050    -0.0757250
  C        0.8985890     1.2026440     0.5648510
  C        2.2596600    -1.0143070    -0.8180370
  C        2.1770750     1.3964720    -0.2280410
  C        3.0258420     0.1487050    -0.2103220
  C       -3.1242130     1.4315980    -0.4888860
  C       -3.5363170     2.0851650    -1.7841190
  H       -0.2830920     0.2988010    -0.9702380
  H        0.4000556    -2.0530733    -0.5680387
  H        1.1571200     0.9978770     1.6121560
  H        2.0609340    -0.7886600    -1.8727560
  H        1.9169870     1.6362870    -1.2735830
  H        3.2958550    -0.0945320     0.8276460
  H        0.5217750    -1.8880320     1.7115100
  H        0.6655400     3.1093110     0.6831840
  H        2.9735430    -2.5473740     0.0946540
  H        3.7214290     2.5491860    -0.0588690
  H        4.6397270    -0.4238340    -1.0970870
  H       -3.8083950    -1.5223380     1.7347280
  H       -3.9305460     1.4455410     0.2493860
  H       -2.2297620     1.8928800    -0.0590960
  H       -3.8005210     3.1308820    -1.6026710
  H       -2.7171960     2.0533230    -2.5048750
  H       -4.4009440     1.5743230    -2.2127240
units angstrom
no_reorient  #important for SAPT in psi4, default
symmetry c1  #important for SAPT in psi4, default
}

set PROPERTIES_ORIGIN ["COM"]
properties('MP2/aug-cc-pvtz', properties = ['dipole'])
--------------------------------------------------------------------------

    Molecular point group: c1
  Charge       = 0
  Multiplicity = 1
  Basis Set: AUG-CC-PVTZ
    Blend: AUG-CC-PVTZ
  Basis Set: (AUG-CC-PVTZ AUX)
    Blend: AUG-CC-PVTZ-JKFIT

    Orbital Energies [Eh]
    ---------------------

    Doubly Occupied:

       1A    -80.115535     2A    -20.613557     3A    -20.602758
       4A    -20.597538     5A    -20.582373     6A    -20.578008
       7A    -20.575289     8A    -20.575253     9A    -20.574954
      10A    -20.521783    11A    -11.323912    12A    -11.305306
      13A    -11.299569    14A    -11.298978    15A    -11.298449
      16A    -11.298269    17A    -11.292454    18A    -11.229194
      19A     -7.630822    20A     -5.529308    21A     -5.528998
      22A     -5.527785    23A     -1.456475    24A     -1.410996
      25A     -1.394962    26A     -1.391862    27A     -1.385578
      28A     -1.371235    29A     -1.365112    30A     -1.354561
      31A     -1.302059    32A     -1.125160    33A     -1.039612
      34A     -1.015274    35A     -1.006283    36A     -0.879889
      37A     -0.864580    38A     -0.860528    39A     -0.821828
      40A     -0.809194    41A     -0.753151    42A     -0.743572
      43A     -0.732062    44A     -0.725671    45A     -0.708935
      46A     -0.686768    47A     -0.678656    48A     -0.672430
      49A     -0.663007    50A     -0.660642    51A     -0.643496
      52A     -0.635318    53A     -0.626168    54A     -0.615618
      55A     -0.604114    56A     -0.599801    57A     -0.583069
      58A     -0.574024    59A     -0.569450    60A     -0.559416
      61A     -0.556218    62A     -0.547457    63A     -0.540252
      64A     -0.538081    65A     -0.526359    66A     -0.523977
      67A     -0.512660    68A     -0.503512    69A     -0.497840
      70A     -0.482994    71A     -0.479121    72A     -0.475127
      73A     -0.463841    74A     -0.456986    75A     -0.453171
      76A     -0.437546

  @DF-RHF Final Energy: -1327.85713948731109

   => Energetics <=

    Nuclear Repulsion Energy =           1772.4878173506779149
    One-Electron Energy =               -5357.1183370242179080
    Two-Electron Energy =                2256.7733801862291330
    Total Energy =                      -1327.8571394873110876
  Basis Set: (AUG-CC-PVTZ AUX)
    Blend: AUG-CC-PVTZ-RI
    Molecular point group: c1

    Geometry (in Angstrom), charge = 0, multiplicity = 1:

       Center              X                  Y                   Z               Mass
    ------------   -----------------  -----------------  -----------------  -----------------
         P           -2.291903335906    -0.940956533124     0.343648363962    30.973761998420
         O           -0.983960335906    -0.202475533124     0.937259363962    15.994914619570
         O            1.340442664094    -1.676396533124     1.229821363962    15.994914619570
         O            0.076897664094     2.358690466876     0.461138363962    15.994914619570
         O            3.066707664094    -2.187985533124    -0.809619636038    15.994914619570
         O            2.845527664094     2.502199466876     0.370505363962    15.994914619570
         O            4.193880664094     0.434483466876    -0.973903636038    15.994914619570
         O           -2.828670335906     0.032437466876    -0.808560636038    15.994914619570
         O           -3.260928335906    -0.724195533124     1.620641363962    15.994914619570
         O           -2.120800335906    -2.344557533124    -0.100697636038    15.994914619570
         C            0.157239064094     0.053016566876     0.039670263962    12.000000000000
         C            0.951484664094    -1.245118533124    -0.076754636038    12.000000000000
         C            0.896781664094     1.201730466876     0.563821363962    12.000000000000
         C            2.257852664094    -1.015220533124    -0.819066636038    12.000000000000
         C            2.175267664094     1.395558466876    -0.229070636038    12.000000000000
         C            3.024034664094     0.147791466876    -0.211351636038    12.000000000000
         C           -3.126020335906     1.430684466876    -0.489915636038    12.000000000000
         C           -3.538124335906     2.084251466876    -1.785148636038    12.000000000000
         H           -0.284899335906     0.297887466876    -0.971267636038     1.007825032230
         H            0.398248264094    -2.053986833124    -0.569068336038     1.007825032230
         H            1.155312664094     0.996963466876     1.611126363962     1.007825032230
         H            2.059126664094    -0.789573533124    -1.873785636038     1.007825032230
         H            1.915179664094     1.635373466876    -1.274612636038     1.007825032230
         H            3.294047664094    -0.095445533124     0.826616363962     1.007825032230
         H            0.519967664094    -1.888945533124     1.710480363962     1.007825032230
         H            0.663732664094     3.108397466876     0.682154363962     1.007825032230
         H            2.971735664094    -2.548287533124     0.093624363962     1.007825032230
         H            3.719621664094     2.548272466876    -0.059898636038     1.007825032230
         H            4.637919664094    -0.424747533124    -1.098116636038     1.007825032230
         H           -3.810202335906    -1.523251533124     1.733698363962     1.007825032230
         H           -3.932353335906     1.444627466876     0.248356363962     1.007825032230
         H           -2.231569335906     1.891966466876    -0.060125636038     1.007825032230
         H           -3.802328335906     3.129968466876    -1.603700636038     1.007825032230
         H           -2.719003335906     2.052409466876    -2.505904636038     1.007825032230
         H           -4.402751335906     1.573409466876    -2.213753636038     1.007825032230

  Basis Set: AUG-CC-PVTZ
    Blend: AUG-CC-PVTZ
  Basis Set: (AUG-CC-PVTZ AUX)
    Blend: AUG-CC-PVTZ-JKFIT
	 Reference Energy          =   -1327.8571394873110876 [Eh]
	 Singles Energy            =      -0.0000000000000000 [Eh]
	 Same-Spin Energy          =      -1.0149894653111970 [Eh]
	 Opposite-Spin Energy      =      -3.0765966732092731 [Eh]
	 Correlation Energy        =      -4.0915861385204702 [Eh]
	 Total Energy              =   -1331.9487256258314574 [Eh]

	 ================> DF-SCS-MP2 Energies <==================
	-----------------------------------------------------------
	 SCS Same-Spin Scale       =       0.3333333333333333 [-]
	 SCS Opposite-Spin Scale   =       1.2000000000000000 [-]
	 SCS Same-Spin Energy      =      -0.3383298217703990 [Eh]
	 SCS Opposite-Spin Energy  =      -3.6919160078511277 [Eh]
	 SCS Correlation Energy    =      -4.0302458296215269 [Eh]
	 SCS Total Energy          =   -1331.8873853169325230 [Eh]
	-----------------------------------------------------------

  Dipole Moment: [D]
     X:    -0.9392      Y:     1.9033      Z:     0.7138     Total:     2.2392

*** Psi4 exiting successfully. Buy a developer a beer!
