                               Psi4 1.3.2 release

  ==> Input File <==

--------------------------------------------------------------------------
#psi4
#
memory 32 gb

molecule  {
0 1
  P       -2.2900960    -0.9400430     0.3446780
  O       -0.9821530    -0.2015620     0.9382890
  O        1.3422500    -1.6754830     1.2308510
  O        0.0787050     2.3596040     0.4621680
  O        3.0685150    -2.1870720    -0.8085900
  O        2.8099969     2.5068944     0.4042297
  O        4.1956880     0.4353970    -0.9728740
  O       -2.8268630     0.0333510    -0.8075310
  O       -3.2591210    -0.7232820     1.6216710
  O       -2.1189930    -2.3436440    -0.0996680
  C        0.1181620     0.0300090     0.0163190
  C        0.9532920    -1.2442050    -0.0757250
  C        0.9124620     1.2435596     0.5954548
  C        2.2596600    -1.0143070    -0.8180370
  C        2.1770750     1.3964720    -0.2280410
  C        3.0258420     0.1487050    -0.2103220
  C       -3.1242130     1.4315980    -0.4888860
  C       -3.5363170     2.0851650    -1.7841190
  H       -0.2830920     0.2988010    -0.9702380
  H        0.3702690    -2.0293640    -0.5720320
  H        1.1571200     0.9978770     1.6121560
  H        2.0609340    -0.7886600    -1.8727560
  H        1.9169870     1.6362870    -1.2735830
  H        3.2958550    -0.0945320     0.8276460
  H        0.5217750    -1.8880320     1.7115100
  H        0.6655400     3.1093110     0.6831840
  H        2.9735430    -2.5473740     0.0946540
  H        3.7214290     2.5491860    -0.0588690
  H        4.6397270    -0.4238340    -1.0970870
  H       -3.8083950    -1.5223380     1.7347280
  H       -3.9305460     1.4455410     0.2493860
  H       -2.2297620     1.8928800    -0.0590960
  H       -3.8005210     3.1308820    -1.6026710
  H       -2.7171960     2.0533230    -2.5048750
  H       -4.4009440     1.5743230    -2.2127240
units angstrom
no_reorient  #important for SAPT in psi4, default
symmetry c1  #important for SAPT in psi4, default
}

set PROPERTIES_ORIGIN ["COM"]
properties('MP2/aug-cc-pvtz', properties = ['dipole'])
--------------------------------------------------------------------------

    Molecular point group: c1
  Charge       = 0
  Multiplicity = 1
  Basis Set: AUG-CC-PVTZ
    Blend: AUG-CC-PVTZ
  Basis Set: (AUG-CC-PVTZ AUX)
    Blend: AUG-CC-PVTZ-JKFIT

    Orbital Energies [Eh]
    ---------------------

    Doubly Occupied:

       1A    -80.115758     2A    -20.613892     3A    -20.605037
       4A    -20.598236     5A    -20.582084     6A    -20.581513
       7A    -20.576153     8A    -20.574993     9A    -20.574342
      10A    -20.522465    11A    -11.318978    12A    -11.301892
      13A    -11.299174    14A    -11.299013    15A    -11.296829
      16A    -11.295126    17A    -11.292028    18A    -11.229707
      19A     -7.631223    20A     -5.529730    21A     -5.529347
      22A     -5.528156    23A     -1.458881    24A     -1.410636
      25A     -1.395869    26A     -1.392825    27A     -1.386221
      28A     -1.374470    29A     -1.363118    30A     -1.352565
      31A     -1.302855    32A     -1.112671    33A     -1.040144
      34A     -1.007205    35A     -0.999990    36A     -0.878838
      37A     -0.864329    38A     -0.858362    39A     -0.819700
      40A     -0.810630    41A     -0.751839    42A     -0.744582
      43A     -0.731377    44A     -0.726638    45A     -0.702503
      46A     -0.689277    47A     -0.677233    48A     -0.673210
      49A     -0.663976    50A     -0.658674    51A     -0.639396
      52A     -0.634143    53A     -0.626615    54A     -0.615102
      55A     -0.604463    56A     -0.599065    57A     -0.581293
      58A     -0.575089    59A     -0.570697    60A     -0.560462
      61A     -0.557205    62A     -0.547789    63A     -0.540954
      64A     -0.537934    65A     -0.529339    66A     -0.517051
      67A     -0.513152    68A     -0.503998    69A     -0.494397
      70A     -0.483200    71A     -0.478650    72A     -0.475755
      73A     -0.461339    74A     -0.456557    75A     -0.448738
      76A     -0.434880

  @DF-RHF Final Energy: -1327.85252904647746

   => Energetics <=

    Nuclear Repulsion Energy =           1771.8407726138877933
    One-Electron Energy =               -5355.9235026853248200
    Two-Electron Energy =                2256.2302010249600244
    Total Energy =                      -1327.8525290464772297
  Basis Set: (AUG-CC-PVTZ AUX)
    Blend: AUG-CC-PVTZ-RI
    Molecular point group: c1

    Geometry (in Angstrom), charge = 0, multiplicity = 1:

       Center              X                  Y                   Z               Mass
    ------------   -----------------  -----------------  -----------------  -----------------
         P           -2.288600646060    -0.941957404388     0.341587692271    30.973761998420
         O           -0.980657646060    -0.203476404388     0.935198692271    15.994914619570
         O            1.343745353940    -1.677397404388     1.227760692271    15.994914619570
         O            0.080200353940     2.357689595612     0.459077692271    15.994914619570
         O            3.070010353940    -2.188986404388    -0.811680307729    15.994914619570
         O            2.811492253940     2.504979995612     0.401139392271    15.994914619570
         O            4.197183353940     0.433482595612    -0.975964307729    15.994914619570
         O           -2.825367646060     0.031436595612    -0.810621307729    15.994914619570
         O           -3.257625646060    -0.725196404388     1.618580692271    15.994914619570
         O           -2.117497646060    -2.345558404388    -0.102758307729    15.994914619570
         C            0.119657353940     0.028094595612     0.013228692271    12.000000000000
         C            0.954787353940    -1.246119404388    -0.078815307729    12.000000000000
         C            0.913957353940     1.241645195612     0.592364492271    12.000000000000
         C            2.261155353940    -1.016221404388    -0.821127307729    12.000000000000
         C            2.178570353940     1.394557595612    -0.231131307729    12.000000000000
         C            3.027337353940     0.146790595612    -0.213412307729    12.000000000000
         C           -3.122717646060     1.429683595612    -0.491976307729    12.000000000000
         C           -3.534821646060     2.083250595612    -1.787209307729    12.000000000000
         H           -0.281596646060     0.296886595612    -0.973328307729     1.007825032230
         H            0.371764353940    -2.031278404388    -0.575122307729     1.007825032230
         H            1.158615353940     0.995962595612     1.609065692271     1.007825032230
         H            2.062429353940    -0.790574404388    -1.875846307729     1.007825032230
         H            1.918482353940     1.634372595612    -1.276673307729     1.007825032230
         H            3.297350353940    -0.096446404388     0.824555692271     1.007825032230
         H            0.523270353940    -1.889946404388     1.708419692271     1.007825032230
         H            0.667035353940     3.107396595612     0.680093692271     1.007825032230
         H            2.975038353940    -2.549288404388     0.091563692271     1.007825032230
         H            3.722924353940     2.547271595612    -0.061959307729     1.007825032230
         H            4.641222353940    -0.425748404388    -1.100177307729     1.007825032230
         H           -3.806899646060    -1.524252404388     1.731637692271     1.007825032230
         H           -3.929050646060     1.443626595612     0.246295692271     1.007825032230
         H           -2.228266646060     1.890965595612    -0.062186307729     1.007825032230
         H           -3.799025646060     3.128967595612    -1.605761307729     1.007825032230
         H           -2.715700646060     2.051408595612    -2.507965307729     1.007825032230
         H           -4.399448646060     1.572408595612    -2.215814307729     1.007825032230

  Basis Set: AUG-CC-PVTZ
    Blend: AUG-CC-PVTZ
  Basis Set: (AUG-CC-PVTZ AUX)
    Blend: AUG-CC-PVTZ-JKFIT
	 Reference Energy          =   -1327.8525290464774571 [Eh]
	 Singles Energy            =      -0.0000000000000000 [Eh]
	 Same-Spin Energy          =      -1.0153319152683793 [Eh]
	 Opposite-Spin Energy      =      -3.0779196201409667 [Eh]
	 Correlation Energy        =      -4.0932515354093457 [Eh]
	 Total Energy              =   -1331.9457805818867655 [Eh]

	 ================> DF-SCS-MP2 Energies <==================
	-----------------------------------------------------------
	 SCS Same-Spin Scale       =       0.3333333333333333 [-]
	 SCS Opposite-Spin Scale   =       1.2000000000000000 [-]
	 SCS Same-Spin Energy      =      -0.3384439717561264 [Eh]
	 SCS Opposite-Spin Energy  =      -3.6935035441691597 [Eh]
	 SCS Correlation Energy    =      -4.0319475159252862 [Eh]
	 SCS Total Energy          =   -1331.8844765624028241 [Eh]
	-----------------------------------------------------------

  Dipole Moment: [D]
     X:    -1.0386      Y:     1.9781      Z:     0.7053     Total:     2.3429

*** Psi4 exiting successfully. Buy a developer a beer!
