                               Psi4 1.3.2 release

  ==> Input File <==

--------------------------------------------------------------------------
#psi4
#
memory 32 gb

molecule  {
0 1
  P       -2.2900960    -0.9400430     0.3446780
  O       -0.9821530    -0.2015620     0.9382890
  O        1.3422500    -1.6754830     1.2308510
  O        0.0787050     2.3596040     0.4621680
  O        3.0685150    -2.1870720    -0.8085900
  O        2.8473350     2.5031130     0.3715350
  O        4.1956880     0.4353970    -0.9728740
  O       -2.8268630     0.0333510    -0.8075310
  O       -3.2591210    -0.7232820     1.6216710
  O       -2.1189930    -2.3436440    -0.0996680
  C        0.1181620     0.0300090     0.0163190
  C        0.9532920    -1.2442050    -0.0757250
  C        0.8985890     1.2026440     0.5648510
  C        2.2596600    -1.0143070    -0.8180370
  C        2.1770750     1.3964720    -0.2280410
  C        3.0230639     0.1848237    -0.2811485
  C       -3.1242130     1.4315980    -0.4888860
  C       -3.5363170     2.0851650    -1.7841190
  H       -0.2830920     0.2988010    -0.9702380
  H        0.3702690    -2.0293640    -0.5720320
  H        1.1571200     0.9978770     1.6121560
  H        2.0882438    -0.7386555    -1.8656407
  H        1.9169870     1.6362870    -1.2735830
  H        3.2958550    -0.0945320     0.8276460
  H        0.5217750    -1.8880320     1.7115100
  H        0.6655400     3.1093110     0.6831840
  H        2.9735430    -2.5473740     0.0946540
  H        3.7214290     2.5491860    -0.0588690
  H        4.6397270    -0.4238340    -1.0970870
  H       -3.8083950    -1.5223380     1.7347280
  H       -3.9305460     1.4455410     0.2493860
  H       -2.2297620     1.8928800    -0.0590960
  H       -3.8005210     3.1308820    -1.6026710
  H       -2.7171960     2.0533230    -2.5048750
  H       -4.4009440     1.5743230    -2.2127240
units angstrom
no_reorient  #important for SAPT in psi4, default
symmetry c1  #important for SAPT in psi4, default
}

set PROPERTIES_ORIGIN ["COM"]
properties('MP2/aug-cc-pvtz', properties = ['dipole'])
--------------------------------------------------------------------------

    Molecular point group: c1
  Charge       = 0
  Multiplicity = 1
  Basis Set: AUG-CC-PVTZ
    Blend: AUG-CC-PVTZ
  Basis Set: (AUG-CC-PVTZ AUX)
    Blend: AUG-CC-PVTZ-JKFIT

    Orbital Energies [Eh]
    ---------------------

    Doubly Occupied:

       1A    -80.116861     2A    -20.614640     3A    -20.606945
       4A    -20.598874     5A    -20.582358     6A    -20.578608
       7A    -20.577577     8A    -20.576410     9A    -20.574153
      10A    -20.523349    11A    -11.320774    12A    -11.304538
      13A    -11.299771    14A    -11.299539    15A    -11.299375
      16A    -11.296006    17A    -11.294002    18A    -11.229842
      19A     -7.632311    20A     -5.530817    21A     -5.530444
      22A     -5.529242    23A     -1.460204    24A     -1.414158
      25A     -1.400241    26A     -1.393369    27A     -1.387035
      28A     -1.377679    29A     -1.364478    30A     -1.357796
      31A     -1.303744    32A     -1.120498    33A     -1.040476
      34A     -1.014700    35A     -1.003823    36A     -0.879785
      37A     -0.864705    38A     -0.863971    39A     -0.821322
      40A     -0.807326    41A     -0.752863    42A     -0.746759
      43A     -0.733092    44A     -0.728347    45A     -0.708546
      46A     -0.687583    47A     -0.679916    48A     -0.675730
      49A     -0.668066    50A     -0.661405    51A     -0.643926
      52A     -0.637721    53A     -0.627823    54A     -0.615996
      55A     -0.604555    56A     -0.596330    57A     -0.582369
      58A     -0.575366    59A     -0.571047    60A     -0.559498
      61A     -0.558161    62A     -0.548617    63A     -0.541392
      64A     -0.540074    65A     -0.530511    66A     -0.522279
      67A     -0.513839    68A     -0.501814    69A     -0.497260
      70A     -0.484672    71A     -0.479822    72A     -0.476269
      73A     -0.464017    74A     -0.451530    75A     -0.449999
      76A     -0.427199

  @DF-RHF Final Energy: -1327.85408785700952

   => Energetics <=

    Nuclear Repulsion Energy =           1772.8590680865283957
    One-Electron Energy =               -5357.7540286093681061
    Two-Electron Energy =                2257.0408726658306477
    Total Energy =                      -1327.8540878570092900
  Basis Set: (AUG-CC-PVTZ AUX)
    Blend: AUG-CC-PVTZ-RI
    Molecular point group: c1

    Geometry (in Angstrom), charge = 0, multiplicity = 1:

       Center              X                  Y                   Z               Mass
    ------------   -----------------  -----------------  -----------------  -----------------
         P           -2.290075784984    -0.941722557675     0.347603575860    30.973761998420
         O           -0.982132784984    -0.203241557675     0.941214575860    15.994914619570
         O            1.342270215016    -1.677162557675     1.233776575860    15.994914619570
         O            0.078725215016     2.357924442325     0.465093575860    15.994914619570
         O            3.068535215016    -2.188751557675    -0.805664424140    15.994914619570
         O            2.847355215016     2.501433442325     0.374460575860    15.994914619570
         O            4.195708215016     0.433717442325    -0.969948424140    15.994914619570
         O           -2.826842784984     0.031671442325    -0.804605424140    15.994914619570
         O           -3.259100784984    -0.724961557675     1.624596575860    15.994914619570
         O           -2.118972784984    -2.345323557675    -0.096742424140    15.994914619570
         C            0.118182215016     0.028329442325     0.019244575860    12.000000000000
         C            0.953312215016    -1.245884557675    -0.072799424140    12.000000000000
         C            0.898609215016     1.200964442325     0.567776575860    12.000000000000
         C            2.259680215016    -1.015986557675    -0.815111424140    12.000000000000
         C            2.177095215016     1.394792442325    -0.225115424140    12.000000000000
         C            3.023084115016     0.183144142325    -0.278222924140    12.000000000000
         C           -3.124192784984     1.429918442325    -0.485960424140    12.000000000000
         C           -3.536296784984     2.083485442325    -1.781193424140    12.000000000000
         H           -0.283071784984     0.297121442325    -0.967312424140     1.007825032230
         H            0.370289215016    -2.031043557675    -0.569106424140     1.007825032230
         H            1.157140215016     0.996197442325     1.615081575860     1.007825032230
         H            2.088264015016    -0.740335057675    -1.862715124140     1.007825032230
         H            1.917007215016     1.634607442325    -1.270657424140     1.007825032230
         H            3.295875215016    -0.096211557675     0.830571575860     1.007825032230
         H            0.521795215016    -1.889711557675     1.714435575860     1.007825032230
         H            0.665560215016     3.107631442325     0.686109575860     1.007825032230
         H            2.973563215016    -2.549053557675     0.097579575860     1.007825032230
         H            3.721449215016     2.547506442325    -0.055943424140     1.007825032230
         H            4.639747215016    -0.425513557675    -1.094161424140     1.007825032230
         H           -3.808374784984    -1.524017557675     1.737653575860     1.007825032230
         H           -3.930525784984     1.443861442325     0.252311575860     1.007825032230
         H           -2.229741784984     1.891200442325    -0.056170424140     1.007825032230
         H           -3.800500784984     3.129202442325    -1.599745424140     1.007825032230
         H           -2.717175784984     2.051643442325    -2.501949424140     1.007825032230
         H           -4.400923784984     1.572643442325    -2.209798424140     1.007825032230

  Basis Set: AUG-CC-PVTZ
    Blend: AUG-CC-PVTZ
  Basis Set: (AUG-CC-PVTZ AUX)
    Blend: AUG-CC-PVTZ-JKFIT
	 Reference Energy          =   -1327.8540878570095174 [Eh]
	 Singles Energy            =      -0.0000000000000000 [Eh]
	 Same-Spin Energy          =      -1.0150265116630608 [Eh]
	 Opposite-Spin Energy      =      -3.0761002286671602 [Eh]
	 Correlation Energy        =      -4.0911267403302212 [Eh]
	 Total Energy              =   -1331.9452145973398274 [Eh]

	 ================> DF-SCS-MP2 Energies <==================
	-----------------------------------------------------------
	 SCS Same-Spin Scale       =       0.3333333333333333 [-]
	 SCS Opposite-Spin Scale   =       1.2000000000000000 [-]
	 SCS Same-Spin Energy      =      -0.3383421705543536 [Eh]
	 SCS Opposite-Spin Energy  =      -3.6913202744005922 [Eh]
	 SCS Correlation Energy    =      -4.0296624449549459 [Eh]
	 SCS Total Energy          =   -1331.8837503019644828 [Eh]
	-----------------------------------------------------------

  Dipole Moment: [D]
     X:    -1.0363      Y:     1.9054      Z:     0.6076     Total:     2.2524

*** Psi4 exiting successfully. Buy a developer a beer!
