                               Psi4 1.4a3.dev225

  ==> Input File <==

--------------------------------------------------------------------------
#psi4
#
memory 32 gb

molecule  {
0 1
  P       -2.3219140    -1.0563120    -0.0968450
  O       -1.0285840    -0.5623410     0.7549430
  O        1.3695440    -1.8069540     1.2202350
  O       -0.1592450     2.1412630     0.5207450
  O        3.3269040    -2.0858120    -0.6453880
  O        2.5724350     2.5270130     0.6374560
  O        4.2203020     0.6406430    -0.6358120
  O       -2.8737010     0.2643620    -0.8096810
  O       -3.3065970    -1.3497020     1.1531960
  O       -2.1044560    -2.1814480    -1.0350500
  C        0.1200290    -0.1583450    -0.0432010
  C        1.0698050    -1.3527180    -0.1046720
  C        0.7441670     1.0454510     0.6308160
  C        2.4193320    -0.9866070    -0.7068450
  C        2.0603010     1.3853380    -0.0470020
  C        3.0180900     0.2181970     0.0056710
  C       -3.2473180     1.4231610     0.0025120
  C       -3.2076300     2.6262440    -0.9075720
  H       -0.2047330     0.1313700    -1.0514980
  H        0.5878823    -2.1695696    -0.6972385
  H        0.9371260     0.8063110     1.6860210
  H        2.3054700    -0.7437210    -1.7704410
  H        1.8633300     1.6367370    -1.1028410
  H        3.2142070    -0.0417910     1.0561650
  H        0.5126160    -2.0057500     1.6426110
  H        0.3598300     2.9232990     0.7925780
  H        3.1793900    -2.4823080     0.2360710
  H        3.4672560     2.6739710     0.2770410
  H        4.7639490    -0.1654590    -0.7244900
  H       -3.7873380    -2.1826420     0.9908450
  H       -4.2474700     1.2335250     0.4005830
  H       -2.5352900     1.5309660     0.8217280
  H       -3.5402110     3.5125760    -0.3587690
  H       -2.1856630     2.7912820    -1.2511950
  H       -3.8637180     2.4807570    -1.7684970
units angstrom
no_reorient  #important for SAPT in psi4, default
symmetry c1  #important for SAPT in psi4, default
}

set PROPERTIES_ORIGIN ["COM"]
properties('MP2/aug-cc-pvtz', properties = ['dipole'])
--------------------------------------------------------------------------

    Molecular point group: c1
  Charge       = 0
  Multiplicity = 1
  Basis Set: AUG-CC-PVTZ
    Blend: AUG-CC-PVTZ
  Basis Set: (AUG-CC-PVTZ AUX)
    Blend: AUG-CC-PVTZ-JKFIT

    Orbital Energies [Eh]
    ---------------------

    Doubly Occupied:

       1A    -80.116814     2A    -20.614999     3A    -20.608088
       4A    -20.596026     5A    -20.584358     6A    -20.578575
       7A    -20.575414     8A    -20.575148     9A    -20.574730
      10A    -20.522479    11A    -11.321566    12A    -11.307368
      13A    -11.300711    14A    -11.300414    15A    -11.298463
      16A    -11.296163    17A    -11.293111    18A    -11.222915
      19A     -7.632076    20A     -5.530611    21A     -5.530108
      22A     -5.529046    23A     -1.458493    24A     -1.410957
      25A     -1.395509    26A     -1.392732    27A     -1.385191
      28A     -1.372809    29A     -1.364294    30A     -1.354330
      31A     -1.302685    32A     -1.118748    33A     -1.035525
      34A     -1.011310    35A     -1.003022    36A     -0.877394
      37A     -0.862319    38A     -0.859078    39A     -0.822851
      40A     -0.810123    41A     -0.754583    42A     -0.745748
      43A     -0.728252    44A     -0.725987    45A     -0.705559
      46A     -0.686685    47A     -0.679069    48A     -0.674147
      49A     -0.662424    50A     -0.659396    51A     -0.641649
      52A     -0.637482    53A     -0.623690    54A     -0.612946
      55A     -0.604162    56A     -0.596989    57A     -0.580883
      58A     -0.577732    59A     -0.570259    60A     -0.559945
      61A     -0.555194    62A     -0.547976    63A     -0.538453
      64A     -0.537820    65A     -0.530007    66A     -0.517767
      67A     -0.508650    68A     -0.503380    69A     -0.494546
      70A     -0.487487    71A     -0.478659    72A     -0.475485
      73A     -0.462651    74A     -0.457338    75A     -0.450798
      76A     -0.436228

  @DF-RHF Final Energy: -1327.86025176088538

   => Energetics <=

    Nuclear Repulsion Energy =           1774.4962427677983214
    One-Electron Energy =               -5361.1998333874380478
    Two-Electron Energy =                2258.8433388587541231
    Total Energy =                      -1327.8602517608856033
  Basis Set: (AUG-CC-PVTZ AUX)
    Blend: AUG-CC-PVTZ-RI
    Molecular point group: c1

    Geometry (in Angstrom), charge = 0, multiplicity = 1:

       Center              X                  Y                   Z               Mass
    ------------   -----------------  -----------------  -----------------  -----------------
         P           -2.311122463254    -1.018481830750    -0.099252400692    30.973761998420
         O           -1.017792463254    -0.524510830750     0.752535599308    15.994914619570
         O            1.380335536746    -1.769123830750     1.217827599308    15.994914619570
         O           -0.148453463254     2.179093169250     0.518337599308    15.994914619570
         O            3.337695536746    -2.047981830750    -0.647795400692    15.994914619570
         O            2.583226536746     2.564843169250     0.635048599308    15.994914619570
         O            4.231093536746     0.678473169250    -0.638219400692    15.994914619570
         O           -2.862909463254     0.302192169250    -0.812088400692    15.994914619570
         O           -3.295805463254    -1.311871830750     1.150788599308    15.994914619570
         O           -2.093664463254    -2.143617830750    -1.037457400692    15.994914619570
         C            0.130820536746    -0.120514830750    -0.045608400692    12.000000000000
         C            1.080596536746    -1.314887830750    -0.107079400692    12.000000000000
         C            0.754958536746     1.083281169250     0.628408599308    12.000000000000
         C            2.430123536746    -0.948776830750    -0.709252400692    12.000000000000
         C            2.071092536746     1.423168169250    -0.049409400692    12.000000000000
         C            3.028881536746     0.256027169250     0.003263599308    12.000000000000
         C           -3.236526463254     1.460991169250     0.000104599308    12.000000000000
         C           -3.196838463254     2.664074169250    -0.909979400692    12.000000000000
         H           -0.193941463254     0.169200169250    -1.053905400692     1.007825032230
         H            0.598673836746    -2.131739430750    -0.699645900692     1.007825032230
         H            0.947917536746     0.844141169250     1.683613599308     1.007825032230
         H            2.316261536746    -0.705890830750    -1.772848400692     1.007825032230
         H            1.874121536746     1.674567169250    -1.105248400692     1.007825032230
         H            3.224998536746    -0.003960830750     1.053757599308     1.007825032230
         H            0.523407536746    -1.967919830750     1.640203599308     1.007825032230
         H            0.370621536746     2.961129169250     0.790170599308     1.007825032230
         H            3.190181536746    -2.444477830750     0.233663599308     1.007825032230
         H            3.478047536746     2.711801169250     0.274633599308     1.007825032230
         H            4.774740536746    -0.127628830750    -0.726897400692     1.007825032230
         H           -3.776546463254    -2.144811830750     0.988437599308     1.007825032230
         H           -4.236678463254     1.271355169250     0.398175599308     1.007825032230
         H           -2.524498463254     1.568796169250     0.819320599308     1.007825032230
         H           -3.529419463254     3.550406169250    -0.361176400692     1.007825032230
         H           -2.174871463254     2.829112169250    -1.253602400692     1.007825032230
         H           -3.852926463254     2.518587169250    -1.770904400692     1.007825032230

  Basis Set: AUG-CC-PVTZ
    Blend: AUG-CC-PVTZ
  Basis Set: (AUG-CC-PVTZ AUX)
    Blend: AUG-CC-PVTZ-JKFIT
	 Reference Energy          =   -1327.8602517608853759 [Eh]
	 Singles Energy            =      -0.0000000000000000 [Eh]
	 Same-Spin Energy          =      -1.0147810173722407 [Eh]
	 Opposite-Spin Energy      =      -3.0767884342258656 [Eh]
	 Correlation Energy        =      -4.0915694515981063 [Eh]
	 Total Energy              =   -1331.9518212124835372 [Eh]

	 ================> DF-SCS-MP2 Energies <==================
	-----------------------------------------------------------
	 SCS Same-Spin Scale       =       0.3333333333333333 [-]
	 SCS Opposite-Spin Scale   =       1.2000000000000000 [-]
	 SCS Same-Spin Energy      =      -0.3382603391240802 [Eh]
	 SCS Opposite-Spin Energy  =      -3.6921461210710387 [Eh]
	 SCS Correlation Energy    =      -4.0304064601951186 [Eh]
	 SCS Total Energy          =   -1331.8906582210804572 [Eh]
	-----------------------------------------------------------

  Dipole Moment: [D]
     X:    -0.8606      Y:     1.4220      Z:     1.8824     Total:     2.5112

*** Psi4 exiting successfully. Buy a developer a beer!
