                               Psi4 1.3.2 release

  ==> Input File <==

--------------------------------------------------------------------------
#psi4
#
memory 32 gb

molecule  {
0 1
  P       -2.2900960    -0.9400430     0.3446780
  O       -0.9821530    -0.2015620     0.9382890
  O        1.3422500    -1.6754830     1.2308510
  O        0.0787050     2.3596040     0.4621680
  O        3.0685150    -2.1870720    -0.8085900
  O        2.8473350     2.5031130     0.3715350
  O        4.1956880     0.4353970    -0.9728740
  O       -2.8268630     0.0333510    -0.8075310
  O       -3.2591210    -0.7232820     1.6216710
  O       -2.1189930    -2.3436440    -0.0996680
  C        0.1181620     0.0300090     0.0163190
  C        0.9532920    -1.2442050    -0.0757250
  C        0.8985890     1.2026440     0.5648510
  C        2.2596600    -1.0143070    -0.8180370
  C        2.1779282     1.3971692    -0.2149171
  C        3.0258420     0.1487050    -0.2103220
  C       -3.1242130     1.4315980    -0.4888860
  C       -3.5363170     2.0851650    -1.7841190
  H       -0.2830920     0.2988010    -0.9702380
  H        0.3702690    -2.0293640    -0.5720320
  H        1.1571200     0.9978770     1.6121560
  H        2.0609340    -0.7886600    -1.8727560
  H        1.9169870     1.6362870    -1.2735830
  H        3.2909522    -0.0868581     0.8306753
  H        0.5217750    -1.8880320     1.7115100
  H        0.6655400     3.1093110     0.6831840
  H        2.9735430    -2.5473740     0.0946540
  H        3.7214290     2.5491860    -0.0588690
  H        4.6397270    -0.4238340    -1.0970870
  H       -3.8083950    -1.5223380     1.7347280
  H       -3.9305460     1.4455410     0.2493860
  H       -2.2297620     1.8928800    -0.0590960
  H       -3.8005210     3.1308820    -1.6026710
  H       -2.7171960     2.0533230    -2.5048750
  H       -4.4009440     1.5743230    -2.2127240
units angstrom
no_reorient  #important for SAPT in psi4, default
symmetry c1  #important for SAPT in psi4, default
}

set PROPERTIES_ORIGIN ["COM"]
properties('MP2/aug-cc-pvtz', properties = ['dipole'])
--------------------------------------------------------------------------

    Molecular point group: c1
  Charge       = 0
  Multiplicity = 1
  Basis Set: AUG-CC-PVTZ
    Blend: AUG-CC-PVTZ
  Basis Set: (AUG-CC-PVTZ AUX)
    Blend: AUG-CC-PVTZ-JKFIT

    Orbital Energies [Eh]
    ---------------------

    Doubly Occupied:

       1A    -80.116989     2A    -20.614766     3A    -20.607135
       4A    -20.598948     5A    -20.583133     6A    -20.577429
       7A    -20.574612     8A    -20.574412     9A    -20.573617
      10A    -20.523461    11A    -11.320968    12A    -11.303557
      13A    -11.299484    14A    -11.299384    15A    -11.298466
      16A    -11.297063    17A    -11.291431    18A    -11.229837
      19A     -7.632438    20A     -5.530944    21A     -5.530572
      22A     -5.529369    23A     -1.460338    24A     -1.411132
      25A     -1.395639    26A     -1.393305    27A     -1.386878
      28A     -1.372891    29A     -1.364564    30A     -1.354502
      31A     -1.303857    32A     -1.119314    33A     -1.040447
      34A     -1.011972    35A     -1.004032    36A     -0.880637
      37A     -0.865023    38A     -0.859037    39A     -0.822420
      40A     -0.810055    41A     -0.751801    42A     -0.745361
      43A     -0.731350    44A     -0.728654    45A     -0.708682
      46A     -0.686972    47A     -0.678148    48A     -0.673705
      49A     -0.663189    50A     -0.661445    51A     -0.643803
      52A     -0.635226    53A     -0.627207    54A     -0.615305
      55A     -0.603972    56A     -0.598338    57A     -0.581688
      58A     -0.575591    59A     -0.571209    60A     -0.559430
      61A     -0.556741    62A     -0.548579    63A     -0.541157
      64A     -0.536597    65A     -0.529909    66A     -0.522179
      67A     -0.512982    68A     -0.504408    69A     -0.497287
      70A     -0.485036    71A     -0.479874    72A     -0.476652
      73A     -0.462265    74A     -0.454430    75A     -0.449516
      76A     -0.436765

  @DF-RHF Final Energy: -1327.86130210426427

   => Energetics <=

    Nuclear Repulsion Energy =           1772.5564543020932433
    One-Electron Energy =               -5357.2364868875301909
    Two-Electron Energy =                2256.8187304811726790
    Total Energy =                      -1327.8613021042642686
  Basis Set: (AUG-CC-PVTZ AUX)
    Blend: AUG-CC-PVTZ-RI
    Molecular point group: c1

    Geometry (in Angstrom), charge = 0, multiplicity = 1:

       Center              X                  Y                   Z               Mass
    ------------   -----------------  -----------------  -----------------  -----------------
         P           -2.290114356448    -0.940098874472     0.344120678972    30.973761998420
         O           -0.982171356448    -0.201617874472     0.937731678972    15.994914619570
         O            1.342231643552    -1.675538874472     1.230293678972    15.994914619570
         O            0.078686643552     2.359548125528     0.461610678972    15.994914619570
         O            3.068496643552    -2.187127874472    -0.809147321028    15.994914619570
         O            2.847316643552     2.503057125528     0.370977678972    15.994914619570
         O            4.195669643552     0.435341125528    -0.973431321028    15.994914619570
         O           -2.826881356448     0.033295125528    -0.808088321028    15.994914619570
         O           -3.259139356448    -0.723337874472     1.621113678972    15.994914619570
         O           -2.119011356448    -2.343699874472    -0.100225321028    15.994914619570
         C            0.118143643552     0.029953125528     0.015761678972    12.000000000000
         C            0.953273643552    -1.244260874472    -0.076282321028    12.000000000000
         C            0.898570643552     1.202588125528     0.564293678972    12.000000000000
         C            2.259641643552    -1.014362874472    -0.818594321028    12.000000000000
         C            2.177909843552     1.397113325528    -0.215474421028    12.000000000000
         C            3.025823643552     0.148649125528    -0.210879321028    12.000000000000
         C           -3.124231356448     1.431542125528    -0.489443321028    12.000000000000
         C           -3.536335356448     2.085109125528    -1.784676321028    12.000000000000
         H           -0.283110356448     0.298745125528    -0.970795321028     1.007825032230
         H            0.370250643552    -2.029419874472    -0.572589321028     1.007825032230
         H            1.157101643552     0.997821125528     1.611598678972     1.007825032230
         H            2.060915643552    -0.788715874472    -1.873313321028     1.007825032230
         H            1.916968643552     1.636231125528    -1.274140321028     1.007825032230
         H            3.290933843552    -0.086913974472     0.830117978972     1.007825032230
         H            0.521756643552    -1.888087874472     1.710952678972     1.007825032230
         H            0.665521643552     3.109255125528     0.682626678972     1.007825032230
         H            2.973524643552    -2.547429874472     0.094096678972     1.007825032230
         H            3.721410643552     2.549130125528    -0.059426321028     1.007825032230
         H            4.639708643552    -0.423889874472    -1.097644321028     1.007825032230
         H           -3.808413356448    -1.522393874472     1.734170678972     1.007825032230
         H           -3.930564356448     1.445485125528     0.248828678972     1.007825032230
         H           -2.229780356448     1.892824125528    -0.059653321028     1.007825032230
         H           -3.800539356448     3.130826125528    -1.603228321028     1.007825032230
         H           -2.717214356448     2.053267125528    -2.505432321028     1.007825032230
         H           -4.400962356448     1.574267125528    -2.213281321028     1.007825032230

  Basis Set: AUG-CC-PVTZ
    Blend: AUG-CC-PVTZ
  Basis Set: (AUG-CC-PVTZ AUX)
    Blend: AUG-CC-PVTZ-JKFIT
	 Reference Energy          =   -1327.8613021042642686 [Eh]
	 Singles Energy            =      -0.0000000000000000 [Eh]
	 Same-Spin Energy          =      -1.0146361337238381 [Eh]
	 Opposite-Spin Energy      =      -3.0760205030650112 [Eh]
	 Correlation Energy        =      -4.0906566367888493 [Eh]
	 Total Energy              =   -1331.9519587410532040 [Eh]

	 ================> DF-SCS-MP2 Energies <==================
	-----------------------------------------------------------
	 SCS Same-Spin Scale       =       0.3333333333333333 [-]
	 SCS Opposite-Spin Scale   =       1.2000000000000000 [-]
	 SCS Same-Spin Energy      =      -0.3382120445746127 [Eh]
	 SCS Opposite-Spin Energy  =      -3.6912246036780134 [Eh]
	 SCS Correlation Energy    =      -4.0294366482526263 [Eh]
	 SCS Total Energy          =   -1331.8907387525168815 [Eh]
	-----------------------------------------------------------

  Dipole Moment: [D]
     X:    -1.1040      Y:     1.8720      Z:     0.7393     Total:     2.2956

*** Psi4 exiting successfully. Buy a developer a beer!
