                               Psi4 1.3.2 release

  ==> Input File <==

--------------------------------------------------------------------------
#psi4
#
memory 32 gb

molecule  {
0 1
  P       -2.2900960    -0.9400430     0.3446780
  O       -0.9821530    -0.2015620     0.9382890
  O        1.3422500    -1.6754830     1.2308510
  O        0.0787050     2.3596040     0.4621680
  O        3.0685150    -2.1870720    -0.8085900
  O        2.8473350     2.5031130     0.3715350
  O        4.1956880     0.4353970    -0.9728740
  O       -2.8167118     0.0288267    -0.8159975
  O       -3.2516231    -0.7328106     1.6289000
  O       -2.1189930    -2.3436440    -0.0996680
  C        0.1181620     0.0300090     0.0163190
  C        0.9532920    -1.2442050    -0.0757250
  C        0.8985890     1.2026440     0.5648510
  C        2.2596600    -1.0143070    -0.8180370
  C        2.1770750     1.3964720    -0.2280410
  C        3.0258420     0.1487050    -0.2103220
  C       -3.1242130     1.4315980    -0.4888860
  C       -3.5363170     2.0851650    -1.7841190
  H       -0.2830920     0.2988010    -0.9702380
  H        0.3702690    -2.0293640    -0.5720320
  H        1.1571200     0.9978770     1.6121560
  H        2.0609340    -0.7886600    -1.8727560
  H        1.9169870     1.6362870    -1.2735830
  H        3.2958550    -0.0945320     0.8276460
  H        0.5217750    -1.8880320     1.7115100
  H        0.6655400     3.1093110     0.6831840
  H        2.9735430    -2.5473740     0.0946540
  H        3.7214290     2.5491860    -0.0588690
  H        4.6397270    -0.4238340    -1.0970870
  H       -3.8083950    -1.5223380     1.7347280
  H       -3.9305460     1.4455410     0.2493860
  H       -2.2297620     1.8928800    -0.0590960
  H       -3.8005210     3.1308820    -1.6026710
  H       -2.7171960     2.0533230    -2.5048750
  H       -4.4009440     1.5743230    -2.2127240
units angstrom
no_reorient  #important for SAPT in psi4, default
symmetry c1  #important for SAPT in psi4, default
}

set PROPERTIES_ORIGIN ["COM"]
properties('MP2/aug-cc-pvtz', properties = ['dipole'])
--------------------------------------------------------------------------

    Molecular point group: c1
  Charge       = 0
  Multiplicity = 1
  Basis Set: AUG-CC-PVTZ
    Blend: AUG-CC-PVTZ
  Basis Set: (AUG-CC-PVTZ AUX)
    Blend: AUG-CC-PVTZ-JKFIT

    Orbital Energies [Eh]
    ---------------------

    Doubly Occupied:

       1A    -80.116549     2A    -20.614823     3A    -20.606525
       4A    -20.599858     5A    -20.582829     6A    -20.576704
       7A    -20.574421     8A    -20.573972     9A    -20.573454
      10A    -20.522106    11A    -11.320386    12A    -11.303230
      13A    -11.300862    14A    -11.299147    15A    -11.298461
      16A    -11.296565    17A    -11.291292    18A    -11.230581
      19A     -7.632019    20A     -5.530522    21A     -5.530129
      22A     -5.528961    23A     -1.460002    24A     -1.410620
      25A     -1.394654    26A     -1.392961    27A     -1.386638
      28A     -1.372425    29A     -1.363821    30A     -1.353701
      31A     -1.302714    32A     -1.118852    33A     -1.041100
      34A     -1.011854    35A     -1.003255    36A     -0.880087
      37A     -0.864886    38A     -0.858914    39A     -0.822845
      40A     -0.810453    41A     -0.751588    42A     -0.745367
      43A     -0.731687    44A     -0.728003    45A     -0.708007
      46A     -0.686994    47A     -0.677819    48A     -0.673385
      49A     -0.662192    50A     -0.660838    51A     -0.643041
      52A     -0.634692    53A     -0.627365    54A     -0.615149
      55A     -0.603408    56A     -0.598315    57A     -0.581314
      58A     -0.575891    59A     -0.570879    60A     -0.559202
      61A     -0.556464    62A     -0.548418    63A     -0.541322
      64A     -0.536419    65A     -0.529964    66A     -0.521625
      67A     -0.513974    68A     -0.504338    69A     -0.497528
      70A     -0.484889    71A     -0.479744    72A     -0.475905
      73A     -0.462042    74A     -0.455772    75A     -0.449833
      76A     -0.436055

  @DF-RHF Final Energy: -1327.86131233331980

   => Energetics <=

    Nuclear Repulsion Energy =           1772.4089059737593743
    One-Electron Energy =               -5356.9752210018295955
    Two-Electron Energy =                2256.7050026947504193
    Total Energy =                      -1327.8613123333198018
  Basis Set: (AUG-CC-PVTZ AUX)
    Blend: AUG-CC-PVTZ-RI
    Molecular point group: c1

    Geometry (in Angstrom), charge = 0, multiplicity = 1:

       Center              X                  Y                   Z               Mass
    ------------   -----------------  -----------------  -----------------  -----------------
         P           -2.291075953450    -0.939262679124     0.344746704360    30.973761998420
         O           -0.983132953450    -0.200781679124     0.938357704360    15.994914619570
         O            1.341270046550    -1.674702679124     1.230919704360    15.994914619570
         O            0.077725046550     2.360384320876     0.462236704360    15.994914619570
         O            3.067535046550    -2.186291679124    -0.808521295640    15.994914619570
         O            2.846355046550     2.503893320876     0.371603704360    15.994914619570
         O            4.194708046550     0.436177320876    -0.972805295640    15.994914619570
         O           -2.817691753450     0.029607020876    -0.815928795640    15.994914619570
         O           -3.252603053450    -0.732030279124     1.628968704360    15.994914619570
         O           -2.119972953450    -2.342863679124    -0.099599295640    15.994914619570
         C            0.117182046550     0.030789320876     0.016387704360    12.000000000000
         C            0.952312046550    -1.243424679124    -0.075656295640    12.000000000000
         C            0.897609046550     1.203424320876     0.564919704360    12.000000000000
         C            2.258680046550    -1.013526679124    -0.817968295640    12.000000000000
         C            2.176095046550     1.397252320876    -0.227972295640    12.000000000000
         C            3.024862046550     0.149485320876    -0.210253295640    12.000000000000
         C           -3.125192953450     1.432378320876    -0.488817295640    12.000000000000
         C           -3.537296953450     2.085945320876    -1.784050295640    12.000000000000
         H           -0.284071953450     0.299581320876    -0.970169295640     1.007825032230
         H            0.369289046550    -2.028583679124    -0.571963295640     1.007825032230
         H            1.156140046550     0.998657320876     1.612224704360     1.007825032230
         H            2.059954046550    -0.787879679124    -1.872687295640     1.007825032230
         H            1.916007046550     1.637067320876    -1.273514295640     1.007825032230
         H            3.294875046550    -0.093751679124     0.827714704360     1.007825032230
         H            0.520795046550    -1.887251679124     1.711578704360     1.007825032230
         H            0.664560046550     3.110091320876     0.683252704360     1.007825032230
         H            2.972563046550    -2.546593679124     0.094722704360     1.007825032230
         H            3.720449046550     2.549966320876    -0.058800295640     1.007825032230
         H            4.638747046550    -0.423053679124    -1.097018295640     1.007825032230
         H           -3.809374953450    -1.521557679124     1.734796704360     1.007825032230
         H           -3.931525953450     1.446321320876     0.249454704360     1.007825032230
         H           -2.230741953450     1.893660320876    -0.059027295640     1.007825032230
         H           -3.801500953450     3.131662320876    -1.602602295640     1.007825032230
         H           -2.718175953450     2.054103320876    -2.504806295640     1.007825032230
         H           -4.401923953450     1.575103320876    -2.212655295640     1.007825032230

  Basis Set: AUG-CC-PVTZ
    Blend: AUG-CC-PVTZ
  Basis Set: (AUG-CC-PVTZ AUX)
    Blend: AUG-CC-PVTZ-JKFIT
	 Reference Energy          =   -1327.8613123333198018 [Eh]
	 Singles Energy            =      -0.0000000000000000 [Eh]
	 Same-Spin Energy          =      -1.0145709191509658 [Eh]
	 Opposite-Spin Energy      =      -3.0761271753062305 [Eh]
	 Correlation Energy        =      -4.0906980944571965 [Eh]
	 Total Energy              =   -1331.9520104277769406 [Eh]

	 ================> DF-SCS-MP2 Energies <==================
	-----------------------------------------------------------
	 SCS Same-Spin Scale       =       0.3333333333333333 [-]
	 SCS Opposite-Spin Scale   =       1.2000000000000000 [-]
	 SCS Same-Spin Energy      =      -0.3381903063836552 [Eh]
	 SCS Opposite-Spin Energy  =      -3.6913526103674763 [Eh]
	 SCS Correlation Energy    =      -4.0295429167511312 [Eh]
	 SCS Total Energy          =   -1331.8908552500708993 [Eh]
	-----------------------------------------------------------

  Dipole Moment: [D]
     X:    -1.1723      Y:     1.9249      Z:     0.7115     Total:     2.3634

*** Psi4 exiting successfully. Buy a developer a beer!
