                               Psi4 1.3.2 release

  ==> Input File <==

--------------------------------------------------------------------------
#psi4
#
memory 32 gb

molecule  {
0 1
  P       -2.2900960    -0.9400430     0.3446780
  O       -0.9821530    -0.2015620     0.9382890
  O        1.3422500    -1.6754830     1.2308510
  O        0.0787050     2.3596040     0.4621680
  O        3.0685150    -2.1870720    -0.8085900
  O        2.8473350     2.5031130     0.3715350
  O        4.1956880     0.4353970    -0.9728740
  O       -2.8268630     0.0333510    -0.8075310
  O       -3.2591210    -0.7232820     1.6216710
  O       -2.1189930    -2.3436440    -0.0996680
  C        0.1275997     0.0366083     0.0096271
  C        0.9532920    -1.2442050    -0.0757250
  C        0.8985890     1.2026440     0.5648510
  C        2.2563755    -1.0015706    -0.8197541
  C        2.1770750     1.3964720    -0.2280410
  C        3.0258420     0.1487050    -0.2103220
  C       -3.1242130     1.4315980    -0.4888860
  C       -3.5363170     2.0851650    -1.7841190
  H       -0.2830920     0.2988010    -0.9702380
  H        0.3702690    -2.0293640    -0.5720320
  H        1.1571200     0.9978770     1.6121560
  H        2.0609340    -0.7886600    -1.8727560
  H        1.9169870     1.6362870    -1.2735830
  H        3.2958550    -0.0945320     0.8276460
  H        0.5217750    -1.8880320     1.7115100
  H        0.6655400     3.1093110     0.6831840
  H        2.9735430    -2.5473740     0.0946540
  H        3.7214290     2.5491860    -0.0588690
  H        4.6397270    -0.4238340    -1.0970870
  H       -3.8083950    -1.5223380     1.7347280
  H       -3.9305460     1.4455410     0.2493860
  H       -2.2297620     1.8928800    -0.0590960
  H       -3.8005210     3.1308820    -1.6026710
  H       -2.7171960     2.0533230    -2.5048750
  H       -4.4009440     1.5743230    -2.2127240
units angstrom
no_reorient  #important for SAPT in psi4, default
symmetry c1  #important for SAPT in psi4, default
}

set PROPERTIES_ORIGIN ["COM"]
properties('MP2/aug-cc-pvtz', properties = ['dipole'])
--------------------------------------------------------------------------

    Molecular point group: c1
  Charge       = 0
  Multiplicity = 1
  Basis Set: AUG-CC-PVTZ
    Blend: AUG-CC-PVTZ
  Basis Set: (AUG-CC-PVTZ AUX)
    Blend: AUG-CC-PVTZ-JKFIT

    Orbital Energies [Eh]
    ---------------------

    Doubly Occupied:

       1A    -80.116114     2A    -20.614153     3A    -20.605367
       4A    -20.598515     5A    -20.583638     6A    -20.577284
       7A    -20.574682     8A    -20.574083     9A    -20.573281
      10A    -20.522870    11A    -11.321208    12A    -11.304612
      13A    -11.299478    14A    -11.299181    15A    -11.299178
      16A    -11.297361    17A    -11.292142    18A    -11.229781
      19A     -7.631553    20A     -5.530057    21A     -5.529688
      22A     -5.528492    23A     -1.458448    24A     -1.409967
      25A     -1.394455    26A     -1.391322    27A     -1.386322
      28A     -1.372193    29A     -1.362866    30A     -1.352665
      31A     -1.303202    32A     -1.121740    33A     -1.040295
      34A     -1.013622    35A     -1.004762    36A     -0.879843
      37A     -0.864847    38A     -0.859398    39A     -0.821921
      40A     -0.811534    41A     -0.751574    42A     -0.745161
      43A     -0.731605    44A     -0.727242    45A     -0.708080
      46A     -0.687400    47A     -0.677102    48A     -0.673584
      49A     -0.662573    50A     -0.660274    51A     -0.642866
      52A     -0.634945    53A     -0.626161    54A     -0.615231
      55A     -0.602942    56A     -0.597992    57A     -0.582187
      58A     -0.574915    59A     -0.570638    60A     -0.559474
      61A     -0.557086    62A     -0.548511    63A     -0.540920
      64A     -0.536203    65A     -0.530154    66A     -0.522266
      67A     -0.513021    68A     -0.504852    69A     -0.497281
      70A     -0.485186    71A     -0.479566    72A     -0.476267
      73A     -0.462694    74A     -0.456402    75A     -0.450936
      76A     -0.438861

  @DF-RHF Final Energy: -1327.86056106340652

   => Energetics <=

    Nuclear Repulsion Energy =           1772.4360811302165075
    One-Electron Energy =               -5357.0247355099008928
    Two-Electron Energy =                2256.7280933162778638
    Total Energy =                      -1327.8605610634062941
  Basis Set: (AUG-CC-PVTZ AUX)
    Blend: AUG-CC-PVTZ-RI
    Molecular point group: c1

    Geometry (in Angstrom), charge = 0, multiplicity = 1:

       Center              X                  Y                   Z               Mass
    ------------   -----------------  -----------------  -----------------  -----------------
         P           -2.290352296190    -0.940848465833     0.345028291551    30.973761998420
         O           -0.982409296190    -0.202367465833     0.938639291551    15.994914619570
         O            1.341993703810    -1.676288465833     1.231201291551    15.994914619570
         O            0.078448703810     2.358798534167     0.462518291551    15.994914619570
         O            3.068258703810    -2.187877465833    -0.808239708449    15.994914619570
         O            2.847078703810     2.502307534167     0.371885291551    15.994914619570
         O            4.195431703810     0.434591534167    -0.972523708449    15.994914619570
         O           -2.827119296190     0.032545534167    -0.807180708449    15.994914619570
         O           -3.259377296190    -0.724087465833     1.622021291551    15.994914619570
         O           -2.119249296190    -2.344449465833    -0.099317708449    15.994914619570
         C            0.127343403810     0.035802834167     0.009977391551    12.000000000000
         C            0.953035703810    -1.245010465833    -0.075374708449    12.000000000000
         C            0.898332703810     1.201838534167     0.565201291551    12.000000000000
         C            2.256119203810    -1.002376065833    -0.819403808449    12.000000000000
         C            2.176818703810     1.395666534167    -0.227690708449    12.000000000000
         C            3.025585703810     0.147899534167    -0.209971708449    12.000000000000
         C           -3.124469296190     1.430792534167    -0.488535708449    12.000000000000
         C           -3.536573296190     2.084359534167    -1.783768708449    12.000000000000
         H           -0.283348296190     0.297995534167    -0.969887708449     1.007825032230
         H            0.370012703810    -2.030169465833    -0.571681708449     1.007825032230
         H            1.156863703810     0.997071534167     1.612506291551     1.007825032230
         H            2.060677703810    -0.789465465833    -1.872405708449     1.007825032230
         H            1.916730703810     1.635481534167    -1.273232708449     1.007825032230
         H            3.295598703810    -0.095337465833     0.827996291551     1.007825032230
         H            0.521518703810    -1.888837465833     1.711860291551     1.007825032230
         H            0.665283703810     3.108505534167     0.683534291551     1.007825032230
         H            2.973286703810    -2.548179465833     0.095004291551     1.007825032230
         H            3.721172703810     2.548380534167    -0.058518708449     1.007825032230
         H            4.639470703810    -0.424639465833    -1.096736708449     1.007825032230
         H           -3.808651296190    -1.523143465833     1.735078291551     1.007825032230
         H           -3.930802296190     1.444735534167     0.249736291551     1.007825032230
         H           -2.230018296190     1.892074534167    -0.058745708449     1.007825032230
         H           -3.800777296190     3.130076534167    -1.602320708449     1.007825032230
         H           -2.717452296190     2.052517534167    -2.504524708449     1.007825032230
         H           -4.401200296190     1.573517534167    -2.212373708449     1.007825032230

  Basis Set: AUG-CC-PVTZ
    Blend: AUG-CC-PVTZ
  Basis Set: (AUG-CC-PVTZ AUX)
    Blend: AUG-CC-PVTZ-JKFIT
	 Reference Energy          =   -1327.8605610634065215 [Eh]
	 Singles Energy            =      -0.0000000000000000 [Eh]
	 Same-Spin Energy          =      -1.0147244573066023 [Eh]
	 Opposite-Spin Energy      =      -3.0764610376332846 [Eh]
	 Correlation Energy        =      -4.0911854949398867 [Eh]
	 Total Energy              =   -1331.9517465583464855 [Eh]

	 ================> DF-SCS-MP2 Energies <==================
	-----------------------------------------------------------
	 SCS Same-Spin Scale       =       0.3333333333333333 [-]
	 SCS Opposite-Spin Scale   =       1.2000000000000000 [-]
	 SCS Same-Spin Energy      =      -0.3382414857688674 [Eh]
	 SCS Opposite-Spin Energy  =      -3.6917532451599415 [Eh]
	 SCS Correlation Energy    =      -4.0299947309288093 [Eh]
	 SCS Total Energy          =   -1331.8905557943353415 [Eh]
	-----------------------------------------------------------

  Dipole Moment: [D]
     X:    -1.0728      Y:     1.9198      Z:     0.7088     Total:     2.3106

*** Psi4 exiting successfully. Buy a developer a beer!
