                               Psi4 1.3.2 release

  ==> Input File <==

--------------------------------------------------------------------------
#psi4
#
memory 32 gb

molecule  {
0 1
  P       -2.2900960    -0.9400430     0.3446780
  O       -0.9821530    -0.2015620     0.9382890
  O        1.3422500    -1.6754830     1.2308510
  O        0.0787050     2.3596040     0.4621680
  O        3.0331153    -2.2102222    -0.7824400
  O        2.8473350     2.5031130     0.3715350
  O        4.1956880     0.4353970    -0.9728740
  O       -2.8268630     0.0333510    -0.8075310
  O       -3.2591210    -0.7232820     1.6216710
  O       -2.1189930    -2.3436440    -0.0996680
  C        0.1181620     0.0300090     0.0163190
  C        0.9687690    -1.2939731    -0.0657972
  C        0.8985890     1.2026440     0.5648510
  C        2.2596600    -1.0143070    -0.8180370
  C        2.1770750     1.3964720    -0.2280410
  C        3.0258420     0.1487050    -0.2103220
  C       -3.1242130     1.4315980    -0.4888860
  C       -3.5363170     2.0851650    -1.7841190
  H       -0.2830920     0.2988010    -0.9702380
  H        0.3702690    -2.0293640    -0.5720320
  H        1.1571200     0.9978770     1.6121560
  H        2.0609340    -0.7886600    -1.8727560
  H        1.9169870     1.6362870    -1.2735830
  H        3.2958550    -0.0945320     0.8276460
  H        0.5217750    -1.8880320     1.7115100
  H        0.6655400     3.1093110     0.6831840
  H        2.9735430    -2.5473740     0.0946540
  H        3.7214290     2.5491860    -0.0588690
  H        4.6397270    -0.4238340    -1.0970870
  H       -3.8083950    -1.5223380     1.7347280
  H       -3.9305460     1.4455410     0.2493860
  H       -2.2297620     1.8928800    -0.0590960
  H       -3.8005210     3.1308820    -1.6026710
  H       -2.7171960     2.0533230    -2.5048750
  H       -4.4009440     1.5743230    -2.2127240
units angstrom
no_reorient  #important for SAPT in psi4, default
symmetry c1  #important for SAPT in psi4, default
}

set PROPERTIES_ORIGIN ["COM"]
properties('MP2/aug-cc-pvtz', properties = ['dipole'])
--------------------------------------------------------------------------

    Molecular point group: c1
  Charge       = 0
  Multiplicity = 1
  Basis Set: AUG-CC-PVTZ
    Blend: AUG-CC-PVTZ
  Basis Set: (AUG-CC-PVTZ AUX)
    Blend: AUG-CC-PVTZ-JKFIT

    Orbital Energies [Eh]
    ---------------------

    Doubly Occupied:

       1A    -80.116024     2A    -20.614046     3A    -20.605048
       4A    -20.598079     5A    -20.585270     6A    -20.576992
       7A    -20.575841     8A    -20.572812     9A    -20.568811
      10A    -20.522934    11A    -11.318745    12A    -11.302058
      13A    -11.299249    14A    -11.298707    15A    -11.297792
      16A    -11.296778    17A    -11.292840    18A    -11.229342
      19A     -7.631470    20A     -5.529977    21A     -5.529600
      22A     -5.528409    23A     -1.459002    24A     -1.415443
      25A     -1.396630    26A     -1.394170    27A     -1.386164
      28A     -1.374906    29A     -1.367473    30A     -1.355861
      31A     -1.303280    32A     -1.114391    33A     -1.039813
      34A     -1.008428    35A     -1.002920    36A     -0.880993
      37A     -0.864805    38A     -0.859071    39A     -0.821875
      40A     -0.811618    41A     -0.751086    42A     -0.746646
      43A     -0.732517    44A     -0.727813    45A     -0.707603
      46A     -0.687804    47A     -0.683272    48A     -0.673722
      49A     -0.665196    50A     -0.661707    51A     -0.642458
      52A     -0.634958    53A     -0.627772    54A     -0.616180
      55A     -0.602962    56A     -0.598909    57A     -0.581537
      58A     -0.574787    59A     -0.571397    60A     -0.560881
      61A     -0.556802    62A     -0.549409    63A     -0.540923
      64A     -0.539769    65A     -0.530411    66A     -0.522159
      67A     -0.512647    68A     -0.503441    69A     -0.497226
      70A     -0.481437    71A     -0.478440    72A     -0.475108
      73A     -0.459911    74A     -0.456321    75A     -0.443169
      76A     -0.438496

  @DF-RHF Final Energy: -1327.86073338444044

   => Energetics <=

    Nuclear Repulsion Energy =           1772.2441299447132224
    One-Electron Energy =               -5356.6446369329960362
    Two-Electron Energy =                2256.5397736038421499
    Total Energy =                      -1327.8607333844406639
  Basis Set: (AUG-CC-PVTZ AUX)
    Blend: AUG-CC-PVTZ-RI
    Molecular point group: c1

    Geometry (in Angstrom), charge = 0, multiplicity = 1:

       Center              X                  Y                   Z               Mass
    ------------   -----------------  -----------------  -----------------  -----------------
         P           -2.288775097094    -0.936684309655     0.342812411668    30.973761998420
         O           -0.980832097094    -0.198203309655     0.936423411668    15.994914619570
         O            1.343570902906    -1.672124309655     1.228985411668    15.994914619570
         O            0.080025902906     2.362962690345     0.460302411668    15.994914619570
         O            3.034436202906    -2.206863509655    -0.784305588332    15.994914619570
         O            2.848655902906     2.506471690345     0.369669411668    15.994914619570
         O            4.197008902906     0.438755690345    -0.974739588332    15.994914619570
         O           -2.825542097094     0.036709690345    -0.809396588332    15.994914619570
         O           -3.257800097094    -0.719923309655     1.619805411668    15.994914619570
         O           -2.117672097094    -2.340285309655    -0.101533588332    15.994914619570
         C            0.119482902906     0.033367690345     0.014453411668    12.000000000000
         C            0.970089902906    -1.290614409655    -0.067662788332    12.000000000000
         C            0.899909902906     1.206002690345     0.562985411668    12.000000000000
         C            2.260980902906    -1.010948309655    -0.819902588332    12.000000000000
         C            2.178395902906     1.399830690345    -0.229906588332    12.000000000000
         C            3.027162902906     0.152063690345    -0.212187588332    12.000000000000
         C           -3.122892097094     1.434956690345    -0.490751588332    12.000000000000
         C           -3.534996097094     2.088523690345    -1.785984588332    12.000000000000
         H           -0.281771097094     0.302159690345    -0.972103588332     1.007825032230
         H            0.371589902906    -2.026005309655    -0.573897588332     1.007825032230
         H            1.158440902906     1.001235690345     1.610290411668     1.007825032230
         H            2.062254902906    -0.785301309655    -1.874621588332     1.007825032230
         H            1.918307902906     1.639645690345    -1.275448588332     1.007825032230
         H            3.297175902906    -0.091173309655     0.825780411668     1.007825032230
         H            0.523095902906    -1.884673309655     1.709644411668     1.007825032230
         H            0.666860902906     3.112669690345     0.681318411668     1.007825032230
         H            2.974863902906    -2.544015309655     0.092788411668     1.007825032230
         H            3.722749902906     2.552544690345    -0.060734588332     1.007825032230
         H            4.641047902906    -0.420475309655    -1.098952588332     1.007825032230
         H           -3.807074097094    -1.518979309655     1.732862411668     1.007825032230
         H           -3.929225097094     1.448899690345     0.247520411668     1.007825032230
         H           -2.228441097094     1.896238690345    -0.060961588332     1.007825032230
         H           -3.799200097094     3.134240690345    -1.604536588332     1.007825032230
         H           -2.715875097094     2.056681690345    -2.506740588332     1.007825032230
         H           -4.399623097094     1.577681690345    -2.214589588332     1.007825032230

  Basis Set: AUG-CC-PVTZ
    Blend: AUG-CC-PVTZ
  Basis Set: (AUG-CC-PVTZ AUX)
    Blend: AUG-CC-PVTZ-JKFIT
	 Reference Energy          =   -1327.8607333844404366 [Eh]
	 Singles Energy            =      -0.0000000000000000 [Eh]
	 Same-Spin Energy          =      -1.0137523986934740 [Eh]
	 Opposite-Spin Energy      =      -3.0742329835900497 [Eh]
	 Correlation Energy        =      -4.0879853822835237 [Eh]
	 Total Energy              =   -1331.9487187667239141 [Eh]

	 ================> DF-SCS-MP2 Energies <==================
	-----------------------------------------------------------
	 SCS Same-Spin Scale       =       0.3333333333333333 [-]
	 SCS Opposite-Spin Scale   =       1.2000000000000000 [-]
	 SCS Same-Spin Energy      =      -0.3379174662311580 [Eh]
	 SCS Opposite-Spin Energy  =      -3.6890795803080594 [Eh]
	 SCS Correlation Energy    =      -4.0269970465392175 [Eh]
	 SCS Total Energy          =   -1331.8877304309796727 [Eh]
	-----------------------------------------------------------

  Dipole Moment: [D]
     X:    -0.9803      Y:     1.8556      Z:     0.7378     Total:     2.2245

*** Psi4 exiting successfully. Buy a developer a beer!
