                               Psi4 1.3.2 release

  ==> Input File <==

--------------------------------------------------------------------------
#psi4
#
memory 32 gb

molecule  {
0 1
  P       -2.2900960    -0.9400430     0.3446780
  O       -0.9821530    -0.2015620     0.9382890
  O        1.3422500    -1.6754830     1.2308510
  O        0.0787050     2.3596040     0.4621680
  O        3.0685150    -2.1870720    -0.8085900
  O        2.8473350     2.5031130     0.3715350
  O        4.1956880     0.4353970    -0.9728740
  O       -2.8268630     0.0333510    -0.8075310
  O       -3.2591210    -0.7232820     1.6216710
  O       -2.1189930    -2.3436440    -0.0996680
  C        0.1181620     0.0300090     0.0163190
  C        0.9532920    -1.2442050    -0.0757250
  C        0.8985890     1.2026440     0.5648510
  C        2.2596600    -1.0143070    -0.8180370
  C        2.1733154     1.3902957    -0.3067212
  C        3.0258420     0.1487050    -0.2103220
  C       -3.1242130     1.4315980    -0.4888860
  C       -3.5363170     2.0851650    -1.7841190
  H       -0.2830920     0.2988010    -0.9702380
  H        0.3702690    -2.0293640    -0.5720320
  H        1.1571200     0.9978770     1.6121560
  H        2.0609340    -0.7886600    -1.8727560
  H        1.9169870     1.6362870    -1.2735830
  H        3.3248273    -0.1401663     0.8078185
  H        0.5217750    -1.8880320     1.7115100
  H        0.6655400     3.1093110     0.6831840
  H        2.9735430    -2.5473740     0.0946540
  H        3.7214290     2.5491860    -0.0588690
  H        4.6397270    -0.4238340    -1.0970870
  H       -3.8083950    -1.5223380     1.7347280
  H       -3.9305460     1.4455410     0.2493860
  H       -2.2297620     1.8928800    -0.0590960
  H       -3.8005210     3.1308820    -1.6026710
  H       -2.7171960     2.0533230    -2.5048750
  H       -4.4009440     1.5743230    -2.2127240
units angstrom
no_reorient  #important for SAPT in psi4, default
symmetry c1  #important for SAPT in psi4, default
}

set PROPERTIES_ORIGIN ["COM"]
properties('MP2/aug-cc-pvtz', properties = ['dipole'])
--------------------------------------------------------------------------

    Molecular point group: c1
  Charge       = 0
  Multiplicity = 1
  Basis Set: AUG-CC-PVTZ
    Blend: AUG-CC-PVTZ
  Basis Set: (AUG-CC-PVTZ AUX)
    Blend: AUG-CC-PVTZ-JKFIT

    Orbital Energies [Eh]
    ---------------------

    Doubly Occupied:

       1A    -80.116775     2A    -20.614620     3A    -20.606555
       4A    -20.598958     5A    -20.583351     6A    -20.574851
       7A    -20.573447     8A    -20.572913     9A    -20.572498
      10A    -20.523383    11A    -11.319774    12A    -11.303654
      13A    -11.300493    14A    -11.299451    15A    -11.298868
      16A    -11.295583    17A    -11.292375    18A    -11.230059
      19A     -7.632234    20A     -5.530741    21A     -5.530362
      22A     -5.529167    23A     -1.460100    24A     -1.409949
      25A     -1.393591    26A     -1.388301    27A     -1.386813
      28A     -1.372035    29A     -1.361537    30A     -1.347642
      31A     -1.303780    32A     -1.118130    33A     -1.040597
      34A     -1.013015    35A     -1.000663    36A     -0.879444
      37A     -0.865374    38A     -0.859397    39A     -0.823568
      40A     -0.813511    41A     -0.751425    42A     -0.744596
      43A     -0.732733    44A     -0.728425    45A     -0.703898
      46A     -0.688991    47A     -0.678496    48A     -0.673809
      49A     -0.660114    50A     -0.656187    51A     -0.640171
      52A     -0.633689    53A     -0.628130    54A     -0.615924
      55A     -0.602352    56A     -0.599158    57A     -0.582012
      58A     -0.575468    59A     -0.570867    60A     -0.559015
      61A     -0.555867    62A     -0.548222    63A     -0.541410
      64A     -0.536391    65A     -0.530246    66A     -0.519386
      67A     -0.513364    68A     -0.503782    69A     -0.495893
      70A     -0.483837    71A     -0.479617    72A     -0.476533
      73A     -0.468795    74A     -0.456958    75A     -0.450885
      76A     -0.433526

  @DF-RHF Final Energy: -1327.85246807545423

   => Energetics <=

    Nuclear Repulsion Energy =           1771.7567718026618877
    One-Electron Energy =               -5355.7030220143305996
    Two-Electron Energy =                2256.0937821362140312
    Total Energy =                      -1327.8524680754544534
  Basis Set: (AUG-CC-PVTZ AUX)
    Blend: AUG-CC-PVTZ-RI
    Molecular point group: c1

    Geometry (in Angstrom), charge = 0, multiplicity = 1:

       Center              X                  Y                   Z               Mass
    ------------   -----------------  -----------------  -----------------  -----------------
         P           -2.290040714321    -0.939626032507     0.348025007502    30.973761998420
         O           -0.982097714321    -0.201145032507     0.941636007502    15.994914619570
         O            1.342305285679    -1.675066032507     1.234198007502    15.994914619570
         O            0.078760285679     2.360020967493     0.465515007502    15.994914619570
         O            3.068570285679    -2.186655032507    -0.805242992498    15.994914619570
         O            2.847390285679     2.503529967493     0.374882007502    15.994914619570
         O            4.195743285679     0.435813967493    -0.969526992498    15.994914619570
         O           -2.826807714321     0.033767967493    -0.804183992498    15.994914619570
         O           -3.259065714321    -0.722865032507     1.625018007502    15.994914619570
         O           -2.118937714321    -2.343227032507    -0.096320992498    15.994914619570
         C            0.118217285679     0.030425967493     0.019666007502    12.000000000000
         C            0.953347285679    -1.243788032507    -0.072377992498    12.000000000000
         C            0.898644285679     1.203060967493     0.568198007502    12.000000000000
         C            2.259715285679    -1.013890032507    -0.814689992498    12.000000000000
         C            2.173370685679     1.390712667493    -0.303374192498    12.000000000000
         C            3.025897285679     0.149121967493    -0.206974992498    12.000000000000
         C           -3.124157714321     1.432014967493    -0.485538992498    12.000000000000
         C           -3.536261714321     2.085581967493    -1.780771992498    12.000000000000
         H           -0.283036714321     0.299217967493    -0.966890992498     1.007825032230
         H            0.370324285679    -2.028947032507    -0.568684992498     1.007825032230
         H            1.157175285679     0.998293967493     1.615503007502     1.007825032230
         H            2.060989285679    -0.788243032507    -1.869408992498     1.007825032230
         H            1.917042285679     1.636703967493    -1.270235992498     1.007825032230
         H            3.324882585679    -0.139749332507     0.811165507502     1.007825032230
         H            0.521830285679    -1.887615032507     1.714857007502     1.007825032230
         H            0.665595285679     3.109727967493     0.686531007502     1.007825032230
         H            2.973598285679    -2.546957032507     0.098001007502     1.007825032230
         H            3.721484285679     2.549602967493    -0.055521992498     1.007825032230
         H            4.639782285679    -0.423417032507    -1.093739992498     1.007825032230
         H           -3.808339714321    -1.521921032507     1.738075007502     1.007825032230
         H           -3.930490714321     1.445957967493     0.252733007502     1.007825032230
         H           -2.229706714321     1.893296967493    -0.055748992498     1.007825032230
         H           -3.800465714321     3.131298967493    -1.599323992498     1.007825032230
         H           -2.717140714321     2.053739967493    -2.501527992498     1.007825032230
         H           -4.400888714321     1.574739967493    -2.209376992498     1.007825032230

  Basis Set: AUG-CC-PVTZ
    Blend: AUG-CC-PVTZ
  Basis Set: (AUG-CC-PVTZ AUX)
    Blend: AUG-CC-PVTZ-JKFIT
	 Reference Energy          =   -1327.8524680754542260 [Eh]
	 Singles Energy            =      -0.0000000000000000 [Eh]
	 Same-Spin Energy          =      -1.0147005849504149 [Eh]
	 Opposite-Spin Energy      =      -3.0772231776114389 [Eh]
	 Correlation Energy        =      -4.0919237625618541 [Eh]
	 Total Energy              =   -1331.9443918380161449 [Eh]

	 ================> DF-SCS-MP2 Energies <==================
	-----------------------------------------------------------
	 SCS Same-Spin Scale       =       0.3333333333333333 [-]
	 SCS Opposite-Spin Scale   =       1.2000000000000000 [-]
	 SCS Same-Spin Energy      =      -0.3382335283168050 [Eh]
	 SCS Opposite-Spin Energy  =      -3.6926678131337267 [Eh]
	 SCS Correlation Energy    =      -4.0309013414505319 [Eh]
	 SCS Total Energy          =   -1331.8833694169047703 [Eh]
	-----------------------------------------------------------

  Dipole Moment: [D]
     X:    -1.1649      Y:     1.8036      Z:     0.6312     Total:     2.2379

*** Psi4 exiting successfully. Buy a developer a beer!
