                               Psi4 1.3.2 release

  ==> Input File <==

--------------------------------------------------------------------------
#psi4
#
memory 32 gb

molecule  {
0 1
  P       -2.2900960    -0.9400430     0.3446780
  O       -0.9821530    -0.2015620     0.9382890
  O        1.3422500    -1.6754830     1.2308510
  O        0.0787050     2.3596040     0.4621680
  O        3.0685150    -2.1870720    -0.8085900
  O        2.8473350     2.5031130     0.3715350
  O        4.1956880     0.4353970    -0.9728740
  O       -2.8268630     0.0333510    -0.8075310
  O       -3.2442916    -0.6400950     1.6159954
  O       -2.0719821    -2.3179914    -0.1558217
  C        0.1181620     0.0300090     0.0163190
  C        0.9532920    -1.2442050    -0.0757250
  C        0.8985890     1.2026440     0.5648510
  C        2.2596600    -1.0143070    -0.8180370
  C        2.1770750     1.3964720    -0.2280410
  C        3.0258420     0.1487050    -0.2103220
  C       -3.1242130     1.4315980    -0.4888860
  C       -3.5363170     2.0851650    -1.7841190
  H       -0.2830920     0.2988010    -0.9702380
  H        0.3702690    -2.0293640    -0.5720320
  H        1.1571200     0.9978770     1.6121560
  H        2.0609340    -0.7886600    -1.8727560
  H        1.9169870     1.6362870    -1.2735830
  H        3.2958550    -0.0945320     0.8276460
  H        0.5217750    -1.8880320     1.7115100
  H        0.6655400     3.1093110     0.6831840
  H        2.9735430    -2.5473740     0.0946540
  H        3.7214290     2.5491860    -0.0588690
  H        4.6397270    -0.4238340    -1.0970870
  H       -3.8083950    -1.5223380     1.7347280
  H       -3.9305460     1.4455410     0.2493860
  H       -2.2297620     1.8928800    -0.0590960
  H       -3.8005210     3.1308820    -1.6026710
  H       -2.7171960     2.0533230    -2.5048750
  H       -4.4009440     1.5743230    -2.2127240
units angstrom
no_reorient  #important for SAPT in psi4, default
symmetry c1  #important for SAPT in psi4, default
}

set PROPERTIES_ORIGIN ["COM"]
properties('MP2/aug-cc-pvtz', properties = ['dipole'])
--------------------------------------------------------------------------

    Molecular point group: c1
  Charge       = 0
  Multiplicity = 1
  Basis Set: AUG-CC-PVTZ
    Blend: AUG-CC-PVTZ
  Basis Set: (AUG-CC-PVTZ AUX)
    Blend: AUG-CC-PVTZ-JKFIT

    Orbital Energies [Eh]
    ---------------------

    Doubly Occupied:

       1A    -80.116351     2A    -20.627504     3A    -20.602751
       4A    -20.594346     5A    -20.581871     6A    -20.575588
       7A    -20.573434     8A    -20.573004     9A    -20.571824
      10A    -20.528382    11A    -11.317835    12A    -11.301310
      13A    -11.297822    14A    -11.296813    15A    -11.296448
      16A    -11.295233    17A    -11.290156    18A    -11.227930
      19A     -7.632046    20A     -5.530651    21A     -5.530115
      22A     -5.528901    23A     -1.457913    24A     -1.408573
      25A     -1.392618    26A     -1.390115    27A     -1.379796
      28A     -1.370506    29A     -1.362612    30A     -1.352527
      31A     -1.307463    32A     -1.117187    33A     -1.037950
      34A     -1.009927    35A     -1.001760    36A     -0.876671
      37A     -0.862638    38A     -0.857188    39A     -0.814593
      40A     -0.808379    41A     -0.749718    42A     -0.741116
      43A     -0.727212    44A     -0.724960    45A     -0.701932
      46A     -0.685832    47A     -0.677817    48A     -0.673608
      49A     -0.662040    50A     -0.659393    51A     -0.641538
      52A     -0.633233    53A     -0.624286    54A     -0.613510
      55A     -0.602170    56A     -0.597164    57A     -0.582434
      58A     -0.573582    59A     -0.569623    60A     -0.559146
      61A     -0.555475    62A     -0.547170    63A     -0.539602
      64A     -0.535437    65A     -0.527773    66A     -0.520168
      67A     -0.510940    68A     -0.502682    69A     -0.497325
      70A     -0.483535    71A     -0.482005    72A     -0.476542
      73A     -0.461421    74A     -0.454587    75A     -0.448524
      76A     -0.434893

  @DF-RHF Final Energy: -1327.84885515732230

   => Energetics <=

    Nuclear Repulsion Energy =           1773.8593591701001060
    One-Electron Energy =               -5360.0621799470936821
    Two-Electron Energy =                2258.3539656196712713
    Total Energy =                      -1327.8488551573223049
  Basis Set: (AUG-CC-PVTZ AUX)
    Blend: AUG-CC-PVTZ-RI
    Molecular point group: c1

    Geometry (in Angstrom), charge = 0, multiplicity = 1:

       Center              X                  Y                   Z               Mass
    ------------   -----------------  -----------------  -----------------  -----------------
         P           -2.293529719923    -0.946086424491     0.348111132739    30.973761998420
         O           -0.985586719923    -0.207605424491     0.941722132739    15.994914619570
         O            1.338816280077    -1.681526424491     1.234284132739    15.994914619570
         O            0.075271280077     2.353560575509     0.465601132739    15.994914619570
         O            3.065081280077    -2.193115424491    -0.805156867261    15.994914619570
         O            2.843901280077     2.497069575509     0.374968132739    15.994914619570
         O            4.192254280077     0.429353575509    -0.969440867261    15.994914619570
         O           -2.830296719923     0.027307575509    -0.804097867261    15.994914619570
         O           -3.247725319923    -0.646138424491     1.619428532739    15.994914619570
         O           -2.075415819923    -2.324034824491    -0.152388567261    15.994914619570
         C            0.114728280077     0.023965575509     0.019752132739    12.000000000000
         C            0.949858280077    -1.250248424491    -0.072291867261    12.000000000000
         C            0.895155280077     1.196600575509     0.568284132739    12.000000000000
         C            2.256226280077    -1.020350424491    -0.814603867261    12.000000000000
         C            2.173641280077     1.390428575509    -0.224607867261    12.000000000000
         C            3.022408280077     0.142661575509    -0.206888867261    12.000000000000
         C           -3.127646719923     1.425554575509    -0.485452867261    12.000000000000
         C           -3.539750719923     2.079121575509    -1.780685867261    12.000000000000
         H           -0.286525719923     0.292757575509    -0.966804867261     1.007825032230
         H            0.366835280077    -2.035407424491    -0.568598867261     1.007825032230
         H            1.153686280077     0.991833575509     1.615589132739     1.007825032230
         H            2.057500280077    -0.794703424491    -1.869322867261     1.007825032230
         H            1.913553280077     1.630243575509    -1.270149867261     1.007825032230
         H            3.292421280077    -0.100575424491     0.831079132739     1.007825032230
         H            0.518341280077    -1.894075424491     1.714943132739     1.007825032230
         H            0.662106280077     3.103267575509     0.686617132739     1.007825032230
         H            2.970109280077    -2.553417424491     0.098087132739     1.007825032230
         H            3.717995280077     2.543142575509    -0.055435867261     1.007825032230
         H            4.636293280077    -0.429877424491    -1.093653867261     1.007825032230
         H           -3.811828719923    -1.528381424491     1.738161132739     1.007825032230
         H           -3.933979719923     1.439497575509     0.252819132739     1.007825032230
         H           -2.233195719923     1.886836575509    -0.055662867261     1.007825032230
         H           -3.803954719923     3.124838575509    -1.599237867261     1.007825032230
         H           -2.720629719923     2.047279575509    -2.501441867261     1.007825032230
         H           -4.404377719923     1.568279575509    -2.209290867261     1.007825032230

  Basis Set: AUG-CC-PVTZ
    Blend: AUG-CC-PVTZ
  Basis Set: (AUG-CC-PVTZ AUX)
    Blend: AUG-CC-PVTZ-JKFIT
	 Reference Energy          =   -1327.8488551573223049 [Eh]
	 Singles Energy            =      -0.0000000000000000 [Eh]
	 Same-Spin Energy          =      -1.0161488259531302 [Eh]
	 Opposite-Spin Energy      =      -3.0795350459353279 [Eh]
	 Correlation Energy        =      -4.0956838718884576 [Eh]
	 Total Energy              =   -1331.9445390292107732 [Eh]

	 ================> DF-SCS-MP2 Energies <==================
	-----------------------------------------------------------
	 SCS Same-Spin Scale       =       0.3333333333333333 [-]
	 SCS Opposite-Spin Scale   =       1.2000000000000000 [-]
	 SCS Same-Spin Energy      =      -0.3387162753177100 [Eh]
	 SCS Opposite-Spin Energy  =      -3.6954420551223932 [Eh]
	 SCS Correlation Energy    =      -4.0341583304401034 [Eh]
	 SCS Total Energy          =   -1331.8830134877623550 [Eh]
	-----------------------------------------------------------

  Dipole Moment: [D]
     X:    -1.3741      Y:     1.5374      Z:     0.9534     Total:     2.2717

*** Psi4 exiting successfully. Buy a developer a beer!
