                               Psi4 1.3.2 release

  ==> Input File <==

--------------------------------------------------------------------------
#psi4
#
memory 32 gb

molecule  {
0 1
  P       -2.2900960    -0.9400430     0.3446780
  O       -0.9821530    -0.2015620     0.9382890
  O        1.3422500    -1.6754830     1.2308510
  O        0.0787050     2.3596040     0.4621680
  O        3.0685150    -2.1870720    -0.8085900
  O        2.8473350     2.5031130     0.3715350
  O        4.1956880     0.4353970    -0.9728740
  O       -2.8268630     0.0333510    -0.8075310
  O       -3.2591210    -0.7232820     1.6216710
  O       -2.1189930    -2.3436440    -0.0996680
  C        0.1181620     0.0300090     0.0163190
  C        0.9532920    -1.2442050    -0.0757250
  C        0.8985890     1.2026440     0.5648510
  C        2.2596600    -1.0143070    -0.8180370
  C        2.1770750     1.3964720    -0.2280410
  C        3.0258420     0.1487050    -0.2103220
  C       -3.1242130     1.4315980    -0.4888860
  C       -3.5363170     2.0851650    -1.7841190
  H       -0.2830920     0.2988010    -0.9702380
  H        0.3702690    -2.0293640    -0.5720320
  H        1.1571200     0.9978770     1.6121560
  H        2.0609340    -0.7886600    -1.8727560
  H        1.9169870     1.6362870    -1.2735830
  H        3.2958550    -0.0945320     0.8276460
  H        0.3533629    -1.9316602     1.8101709
  H        0.6655400     3.1093110     0.6831840
  H        2.9735430    -2.5473740     0.0946540
  H        3.7214290     2.5491860    -0.0588690
  H        4.6397270    -0.4238340    -1.0970870
  H       -3.8083950    -1.5223380     1.7347280
  H       -3.9305460     1.4455410     0.2493860
  H       -2.2297620     1.8928800    -0.0590960
  H       -3.8005210     3.1308820    -1.6026710
  H       -2.7171960     2.0533230    -2.5048750
  H       -4.4009440     1.5743230    -2.2127240
units angstrom
no_reorient  #important for SAPT in psi4, default
symmetry c1  #important for SAPT in psi4, default
}

set PROPERTIES_ORIGIN ["COM"]
properties('MP2/aug-cc-pvtz', properties = ['dipole'])
--------------------------------------------------------------------------

    Molecular point group: c1
  Charge       = 0
  Multiplicity = 1
  Basis Set: AUG-CC-PVTZ
    Blend: AUG-CC-PVTZ
  Basis Set: (AUG-CC-PVTZ AUX)
    Blend: AUG-CC-PVTZ-JKFIT

    Orbital Energies [Eh]
    ---------------------

    Doubly Occupied:

       1A    -80.117616     2A    -20.615788     3A    -20.607415
       4A    -20.599238     5A    -20.593383     6A    -20.576136
       7A    -20.573400     8A    -20.573293     9A    -20.572828
      10A    -20.524408    11A    -11.319537    12A    -11.300917
      13A    -11.299549    14A    -11.298377    15A    -11.297676
      16A    -11.295908    17A    -11.290506    18A    -11.229938
      19A     -7.633084    20A     -5.531589    21A     -5.531219
      22A     -5.530014    23A     -1.460634    24A     -1.406343
      25A     -1.394191    26A     -1.387627    27A     -1.387211
      28A     -1.368157    29A     -1.356470    30A     -1.341072
      31A     -1.304735    32A     -1.114777    33A     -1.040586
      34A     -1.010774    35A     -0.998222    36A     -0.878440
      37A     -0.864215    38A     -0.857309    39A     -0.822395
      40A     -0.801624    41A     -0.747656    42A     -0.741427
      43A     -0.729972    44A     -0.723456    45A     -0.707024
      46A     -0.686049    47A     -0.673124    48A     -0.668313
      49A     -0.660713    50A     -0.655677    51A     -0.641916
      52A     -0.633207    53A     -0.626796    54A     -0.611859
      55A     -0.602848    56A     -0.594205    57A     -0.581379
      58A     -0.575791    59A     -0.563021    60A     -0.559012
      61A     -0.554850    62A     -0.544251    63A     -0.540342
      64A     -0.534782    65A     -0.527890    66A     -0.520518
      67A     -0.511796    68A     -0.501917    69A     -0.495569
      70A     -0.483777    71A     -0.479831    72A     -0.476931
      73A     -0.461619    74A     -0.454929    75A     -0.448142
      76A     -0.434034

  @DF-RHF Final Energy: -1327.82556367903680

   => Energetics <=

    Nuclear Repulsion Energy =           1771.4253239822739943
    One-Electron Energy =               -5355.1793195439449846
    Two-Electron Energy =                2255.9284318826344133
    Total Energy =                      -1327.8255636790368044
  Basis Set: (AUG-CC-PVTZ AUX)
    Blend: AUG-CC-PVTZ-RI
    Molecular point group: c1

    Geometry (in Angstrom), charge = 0, multiplicity = 1:

       Center              X                  Y                   Z               Mass
    ------------   -----------------  -----------------  -----------------  -----------------
         P           -2.289506751969    -0.939890342471     0.344332810693    30.973761998420
         O           -0.981563751969    -0.201409342471     0.937943810693    15.994914619570
         O            1.342839248031    -1.675330342471     1.230505810693    15.994914619570
         O            0.079294248031     2.359756657529     0.461822810693    15.994914619570
         O            3.069104248031    -2.186919342471    -0.808935189307    15.994914619570
         O            2.847924248031     2.503265657529     0.371189810693    15.994914619570
         O            4.196277248031     0.435549657529    -0.973219189307    15.994914619570
         O           -2.826273751969     0.033503657529    -0.807876189307    15.994914619570
         O           -3.258531751969    -0.723129342471     1.621325810693    15.994914619570
         O           -2.118403751969    -2.343491342471    -0.100013189307    15.994914619570
         C            0.118751248031     0.030161657529     0.015973810693    12.000000000000
         C            0.953881248031    -1.244052342471    -0.076070189307    12.000000000000
         C            0.899178248031     1.202796657529     0.564505810693    12.000000000000
         C            2.260249248031    -1.014154342471    -0.818382189307    12.000000000000
         C            2.177664248031     1.396624657529    -0.228386189307    12.000000000000
         C            3.026431248031     0.148857657529    -0.210667189307    12.000000000000
         C           -3.123623751969     1.431750657529    -0.489231189307    12.000000000000
         C           -3.535727751969     2.085317657529    -1.784464189307    12.000000000000
         H           -0.282502751969     0.298953657529    -0.970583189307     1.007825032230
         H            0.370858248031    -2.029211342471    -0.572377189307     1.007825032230
         H            1.157709248031     0.998029657529     1.611810810693     1.007825032230
         H            2.061523248031    -0.788507342471    -1.873101189307     1.007825032230
         H            1.917576248031     1.636439657529    -1.273928189307     1.007825032230
         H            3.296444248031    -0.094379342471     0.827300810693     1.007825032230
         H            0.353952148031    -1.931507542471     1.809825710693     1.007825032230
         H            0.666129248031     3.109463657529     0.682838810693     1.007825032230
         H            2.974132248031    -2.547221342471     0.094308810693     1.007825032230
         H            3.722018248031     2.549338657529    -0.059214189307     1.007825032230
         H            4.640316248031    -0.423681342471    -1.097432189307     1.007825032230
         H           -3.807805751969    -1.522185342471     1.734382810693     1.007825032230
         H           -3.929956751969     1.445693657529     0.249040810693     1.007825032230
         H           -2.229172751969     1.893032657529    -0.059441189307     1.007825032230
         H           -3.799931751969     3.131034657529    -1.603016189307     1.007825032230
         H           -2.716606751969     2.053475657529    -2.505220189307     1.007825032230
         H           -4.400354751969     1.574475657529    -2.213069189307     1.007825032230

  Basis Set: AUG-CC-PVTZ
    Blend: AUG-CC-PVTZ
  Basis Set: (AUG-CC-PVTZ AUX)
    Blend: AUG-CC-PVTZ-JKFIT
	 Reference Energy          =   -1327.8255636790368044 [Eh]
	 Singles Energy            =      -0.0000000000000000 [Eh]
	 Same-Spin Energy          =      -1.0172589988034928 [Eh]
	 Opposite-Spin Energy      =      -3.0831382434202710 [Eh]
	 Correlation Energy        =      -4.1003972422237638 [Eh]
	 Total Energy              =   -1331.9259609212606392 [Eh]

	 ================> DF-SCS-MP2 Energies <==================
	-----------------------------------------------------------
	 SCS Same-Spin Scale       =       0.3333333333333333 [-]
	 SCS Opposite-Spin Scale   =       1.2000000000000000 [-]
	 SCS Same-Spin Energy      =      -0.3390863329344976 [Eh]
	 SCS Opposite-Spin Energy  =      -3.6997658921043248 [Eh]
	 SCS Correlation Energy    =      -4.0388522250388226 [Eh]
	 SCS Total Energy          =   -1331.8644159040757131 [Eh]
	-----------------------------------------------------------

  Dipole Moment: [D]
     X:    -1.2868      Y:     1.8188      Z:     0.8267     Total:     2.3764

*** Psi4 exiting successfully. Buy a developer a beer!
