                               Psi4 1.3.2 release

  ==> Input File <==

--------------------------------------------------------------------------
#psi4
#
memory 32 gb

molecule  {
0 1
  P       -2.2900960    -0.9400430     0.3446780
  O       -0.9651216    -0.2488506     0.9453404
  O        1.3422500    -1.6754830     1.2308510
  O        0.0787050     2.3596040     0.4621680
  O        3.0685150    -2.1870720    -0.8085900
  O        2.8473350     2.5031130     0.3715350
  O        4.1956880     0.4353970    -0.9728740
  O       -2.8268630     0.0333510    -0.8075310
  O       -3.2591210    -0.7232820     1.6216710
  O       -2.1189930    -2.3436440    -0.0996680
  C        0.1181620     0.0300090     0.0163190
  C        0.9200704    -1.2673654    -0.0411114
  C        0.8985890     1.2026440     0.5648510
  C        2.2596600    -1.0143070    -0.8180370
  C        2.1770750     1.3964720    -0.2280410
  C        3.0258420     0.1487050    -0.2103220
  C       -3.1242130     1.4315980    -0.4888860
  C       -3.5363170     2.0851650    -1.7841190
  H       -0.2830920     0.2988010    -0.9702380
  H        0.3702690    -2.0293640    -0.5720320
  H        1.1571200     0.9978770     1.6121560
  H        2.0609340    -0.7886600    -1.8727560
  H        1.9169870     1.6362870    -1.2735830
  H        3.2958550    -0.0945320     0.8276460
  H        0.5217750    -1.8880320     1.7115100
  H        0.6655400     3.1093110     0.6831840
  H        2.9735430    -2.5473740     0.0946540
  H        3.7214290     2.5491860    -0.0588690
  H        4.6397270    -0.4238340    -1.0970870
  H       -3.8083950    -1.5223380     1.7347280
  H       -3.9305460     1.4455410     0.2493860
  H       -2.2297620     1.8928800    -0.0590960
  H       -3.8005210     3.1308820    -1.6026710
  H       -2.7171960     2.0533230    -2.5048750
  H       -4.4009440     1.5743230    -2.2127240
units angstrom
no_reorient  #important for SAPT in psi4, default
symmetry c1  #important for SAPT in psi4, default
}

set PROPERTIES_ORIGIN ["COM"]
properties('MP2/aug-cc-pvtz', properties = ['dipole'])
--------------------------------------------------------------------------

    Molecular point group: c1
  Charge       = 0
  Multiplicity = 1
  Basis Set: AUG-CC-PVTZ
    Blend: AUG-CC-PVTZ
  Basis Set: (AUG-CC-PVTZ AUX)
    Blend: AUG-CC-PVTZ-JKFIT

    Orbital Energies [Eh]
    ---------------------

    Doubly Occupied:

       1A    -80.116124     2A    -20.614397     3A    -20.605575
       4A    -20.600722     5A    -20.586584     6A    -20.576712
       7A    -20.574459     8A    -20.573381     9A    -20.572672
      10A    -20.520386    11A    -11.320017    12A    -11.301409
      13A    -11.300572    14A    -11.299464    15A    -11.298174
      16A    -11.296644    17A    -11.290457    18A    -11.230634
      19A     -7.631635    20A     -5.530134    21A     -5.529767
      22A     -5.528567    23A     -1.460844    24A     -1.415058
      25A     -1.396779    26A     -1.393329    27A     -1.387666
      28A     -1.375560    29A     -1.364940    30A     -1.353792
      31A     -1.301531    32A     -1.114924    33A     -1.041347
      34A     -1.011804    35A     -0.997128    36A     -0.879405
      37A     -0.865474    38A     -0.859135    39A     -0.822234
      40A     -0.810683    41A     -0.753020    42A     -0.745536
      43A     -0.733129    44A     -0.729999    45A     -0.707429
      46A     -0.688470    47A     -0.678658    48A     -0.674430
      49A     -0.661464    50A     -0.660397    51A     -0.643825
      52A     -0.635455    53A     -0.626864    54A     -0.616817
      55A     -0.604588    56A     -0.598463    57A     -0.581202
      58A     -0.575201    59A     -0.573367    60A     -0.560892
      61A     -0.556752    62A     -0.551389    63A     -0.541662
      64A     -0.536489    65A     -0.532567    66A     -0.521234
      67A     -0.512319    68A     -0.502610    69A     -0.497000
      70A     -0.482098    71A     -0.478041    72A     -0.474251
      73A     -0.460374    74A     -0.455502    75A     -0.448739
      76A     -0.433694

  @DF-RHF Final Energy: -1327.85893030552938

   => Energetics <=

    Nuclear Repulsion Energy =           1772.4519792812616288
    One-Electron Energy =               -5357.0537337410578402
    Two-Electron Energy =                2256.7428241542670548
    Total Energy =                      -1327.8589303055291566
  Basis Set: (AUG-CC-PVTZ AUX)
    Blend: AUG-CC-PVTZ-RI
    Molecular point group: c1

    Geometry (in Angstrom), charge = 0, multiplicity = 1:

       Center              X                  Y                   Z               Mass
    ------------   -----------------  -----------------  -----------------  -----------------
         P           -2.289657714842    -0.936452416957     0.342844525962    30.973761998420
         O           -0.964683314842    -0.245260016957     0.943506925962    15.994914619570
         O            1.342688285158    -1.671892416957     1.229017525962    15.994914619570
         O            0.079143285158     2.363194583043     0.460334525962    15.994914619570
         O            3.068953285158    -2.183481416957    -0.810423474038    15.994914619570
         O            2.847773285158     2.506703583043     0.369701525962    15.994914619570
         O            4.196126285158     0.438987583043    -0.974707474038    15.994914619570
         O           -2.826424714842     0.036941583043    -0.809364474038    15.994914619570
         O           -3.258682714842    -0.719691416957     1.619837525962    15.994914619570
         O           -2.118554714842    -2.340053416957    -0.101501474038    15.994914619570
         C            0.118600285158     0.033599583043     0.014485525962    12.000000000000
         C            0.920508685158    -1.263774816957    -0.042944874038    12.000000000000
         C            0.899027285158     1.206234583043     0.563017525962    12.000000000000
         C            2.260098285158    -1.010716416957    -0.819870474038    12.000000000000
         C            2.177513285158     1.400062583043    -0.229874474038    12.000000000000
         C            3.026280285158     0.152295583043    -0.212155474038    12.000000000000
         C           -3.123774714842     1.435188583043    -0.490719474038    12.000000000000
         C           -3.535878714842     2.088755583043    -1.785952474038    12.000000000000
         H           -0.282653714842     0.302391583043    -0.972071474038     1.007825032230
         H            0.370707285158    -2.025773416957    -0.573865474038     1.007825032230
         H            1.157558285158     1.001467583043     1.610322525962     1.007825032230
         H            2.061372285158    -0.785069416957    -1.874589474038     1.007825032230
         H            1.917425285158     1.639877583043    -1.275416474038     1.007825032230
         H            3.296293285158    -0.090941416957     0.825812525962     1.007825032230
         H            0.522213285158    -1.884441416957     1.709676525962     1.007825032230
         H            0.665978285158     3.112901583043     0.681350525962     1.007825032230
         H            2.973981285158    -2.543783416957     0.092820525962     1.007825032230
         H            3.721867285158     2.552776583043    -0.060702474038     1.007825032230
         H            4.640165285158    -0.420243416957    -1.098920474038     1.007825032230
         H           -3.807956714842    -1.518747416957     1.732894525962     1.007825032230
         H           -3.930107714842     1.449131583043     0.247552525962     1.007825032230
         H           -2.229323714842     1.896470583043    -0.060929474038     1.007825032230
         H           -3.800082714842     3.134472583043    -1.604504474038     1.007825032230
         H           -2.716757714842     2.056913583043    -2.506708474038     1.007825032230
         H           -4.400505714842     1.577913583043    -2.214557474038     1.007825032230

  Basis Set: AUG-CC-PVTZ
    Blend: AUG-CC-PVTZ
  Basis Set: (AUG-CC-PVTZ AUX)
    Blend: AUG-CC-PVTZ-JKFIT
	 Reference Energy          =   -1327.8589303055293840 [Eh]
	 Singles Energy            =      -0.0000000000000000 [Eh]
	 Same-Spin Energy          =      -1.0144113664856480 [Eh]
	 Opposite-Spin Energy      =      -3.0755740827147640 [Eh]
	 Correlation Energy        =      -4.0899854492004124 [Eh]
	 Total Energy              =   -1331.9489157547297964 [Eh]

	 ================> DF-SCS-MP2 Energies <==================
	-----------------------------------------------------------
	 SCS Same-Spin Scale       =       0.3333333333333333 [-]
	 SCS Opposite-Spin Scale   =       1.2000000000000000 [-]
	 SCS Same-Spin Energy      =      -0.3381371221618826 [Eh]
	 SCS Opposite-Spin Energy  =      -3.6906888992577165 [Eh]
	 SCS Correlation Energy    =      -4.0288260214195990 [Eh]
	 SCS Total Energy          =   -1331.8877563269488746 [Eh]
	-----------------------------------------------------------

  Dipole Moment: [D]
     X:    -1.1534      Y:     1.9512      Z:     0.7879     Total:     2.3997

*** Psi4 exiting successfully. Buy a developer a beer!
