                               Psi4 1.3.2 release

  ==> Input File <==

--------------------------------------------------------------------------
#psi4
#
memory 32 gb

molecule  {
0 1
  P       -2.2900960    -0.9400430     0.3446780
  O       -0.9821530    -0.2015620     0.9382890
  O        1.3422500    -1.6754830     1.2308510
  O        0.0787050     2.3596040     0.4621680
  O        3.0685150    -2.1870720    -0.8085900
  O        2.8473350     2.5031130     0.3715350
  O        4.1956880     0.4353970    -0.9728740
  O       -2.8268630     0.0333510    -0.8075310
  O       -3.2591210    -0.7232820     1.6216710
  O       -2.1189930    -2.3436440    -0.0996680
  C        0.1181620     0.0300090     0.0163190
  C        0.9532920    -1.2442050    -0.0757250
  C        0.8845399     1.2075940     0.5429659
  C        2.2596600    -1.0143070    -0.8180370
  C        2.1770750     1.3964720    -0.2280410
  C        3.0258420     0.1487050    -0.2103220
  C       -3.1242130     1.4315980    -0.4888860
  C       -3.5363170     2.0851650    -1.7841190
  H       -0.2830920     0.2988010    -0.9702380
  H        0.3702690    -2.0293640    -0.5720320
  H        1.1571200     0.9978770     1.6121560
  H        2.0609340    -0.7886600    -1.8727560
  H        1.8983062     1.6350831    -1.2690346
  H        3.2958550    -0.0945320     0.8276460
  H        0.5217750    -1.8880320     1.7115100
  H        0.6655400     3.1093110     0.6831840
  H        2.9735430    -2.5473740     0.0946540
  H        3.7214290     2.5491860    -0.0588690
  H        4.6397270    -0.4238340    -1.0970870
  H       -3.8083950    -1.5223380     1.7347280
  H       -3.9305460     1.4455410     0.2493860
  H       -2.2297620     1.8928800    -0.0590960
  H       -3.8005210     3.1308820    -1.6026710
  H       -2.7171960     2.0533230    -2.5048750
  H       -4.4009440     1.5743230    -2.2127240
units angstrom
no_reorient  #important for SAPT in psi4, default
symmetry c1  #important for SAPT in psi4, default
}

set PROPERTIES_ORIGIN ["COM"]
properties('MP2/aug-cc-pvtz', properties = ['dipole'])
--------------------------------------------------------------------------

    Molecular point group: c1
  Charge       = 0
  Multiplicity = 1
  Basis Set: AUG-CC-PVTZ
    Blend: AUG-CC-PVTZ
  Basis Set: (AUG-CC-PVTZ AUX)
    Blend: AUG-CC-PVTZ-JKFIT

    Orbital Energies [Eh]
    ---------------------

    Doubly Occupied:

       1A    -80.117065     2A    -20.614823     3A    -20.607217
       4A    -20.599053     5A    -20.582924     6A    -20.577344
       7A    -20.574707     8A    -20.574598     9A    -20.574049
      10A    -20.523512    11A    -11.320447    12A    -11.303958
      13A    -11.299640    14A    -11.299361    15A    -11.299149
      16A    -11.296674    17A    -11.291701    18A    -11.230061
      19A     -7.632513    20A     -5.531018    21A     -5.530648
      22A     -5.529444    23A     -1.460476    24A     -1.411378
      25A     -1.395200    26A     -1.394269    27A     -1.387034
      28A     -1.373912    29A     -1.365373    30A     -1.354369
      31A     -1.303920    32A     -1.119771    33A     -1.040675
      34A     -1.012874    35A     -1.003472    36A     -0.880792
      37A     -0.865278    38A     -0.858607    39A     -0.822957
      40A     -0.809332    41A     -0.752672    42A     -0.745079
      43A     -0.731625    44A     -0.728995    45A     -0.708214
      46A     -0.688180    47A     -0.678098    48A     -0.673840
      49A     -0.662676    50A     -0.661156    51A     -0.643801
      52A     -0.635779    53A     -0.627518    54A     -0.615722
      55A     -0.603499    56A     -0.598950    57A     -0.582828
      58A     -0.575663    59A     -0.571200    60A     -0.559784
      61A     -0.556883    62A     -0.548784    63A     -0.541313
      64A     -0.536942    65A     -0.530036    66A     -0.522026
      67A     -0.513061    68A     -0.503986    69A     -0.497032
      70A     -0.484079    71A     -0.480059    72A     -0.476744
      73A     -0.460904    74A     -0.456699    75A     -0.447514
      76A     -0.436468

  @DF-RHF Final Energy: -1327.86063497390683

   => Energetics <=

    Nuclear Repulsion Energy =           1772.7443253899859883
    One-Electron Energy =               -5357.5951099775966213
    Two-Electron Energy =                2256.9901496137040340
    Total Energy =                      -1327.8606349739065990
  Basis Set: (AUG-CC-PVTZ AUX)
    Blend: AUG-CC-PVTZ-RI
    Molecular point group: c1

    Geometry (in Angstrom), charge = 0, multiplicity = 1:

       Center              X                  Y                   Z               Mass
    ------------   -----------------  -----------------  -----------------  -----------------
         P           -2.289445354395    -0.940244976610     0.345573763511    30.973761998420
         O           -0.981502354395    -0.201763976610     0.939184763511    15.994914619570
         O            1.342900645605    -1.675684976610     1.231746763511    15.994914619570
         O            0.079355645605     2.359402023390     0.463063763511    15.994914619570
         O            3.069165645605    -2.187273976610    -0.807694236489    15.994914619570
         O            2.847985645605     2.502911023390     0.372430763511    15.994914619570
         O            4.196338645605     0.435195023390    -0.971978236489    15.994914619570
         O           -2.826212354395     0.033149023390    -0.806635236489    15.994914619570
         O           -3.258470354395    -0.723483976610     1.622566763511    15.994914619570
         O           -2.118342354395    -2.343845976610    -0.098772236489    15.994914619570
         C            0.118812645605     0.029807023390     0.017214763511    12.000000000000
         C            0.953942645605    -1.244406976610    -0.074829236489    12.000000000000
         C            0.885190545605     1.207392023390     0.543861663511    12.000000000000
         C            2.260310645605    -1.014508976610    -0.817141236489    12.000000000000
         C            2.177725645605     1.396270023390    -0.227145236489    12.000000000000
         C            3.026492645605     0.148503023390    -0.209426236489    12.000000000000
         C           -3.123562354395     1.431396023390    -0.487990236489    12.000000000000
         C           -3.535666354395     2.084963023390    -1.783223236489    12.000000000000
         H           -0.282441354395     0.298599023390    -0.969342236489     1.007825032230
         H            0.370919645605    -2.029565976610    -0.571136236489     1.007825032230
         H            1.157770645605     0.997675023390     1.613051763511     1.007825032230
         H            2.061584645605    -0.788861976610    -1.871860236489     1.007825032230
         H            1.898956845605     1.634881123390    -1.268138836489     1.007825032230
         H            3.296505645605    -0.094733976610     0.828541763511     1.007825032230
         H            0.522425645605    -1.888233976610     1.712405763511     1.007825032230
         H            0.666190645605     3.109109023390     0.684079763511     1.007825032230
         H            2.974193645605    -2.547575976610     0.095549763511     1.007825032230
         H            3.722079645605     2.548984023390    -0.057973236489     1.007825032230
         H            4.640377645605    -0.424035976610    -1.096191236489     1.007825032230
         H           -3.807744354395    -1.522539976610     1.735623763511     1.007825032230
         H           -3.929895354395     1.445339023390     0.250281763511     1.007825032230
         H           -2.229111354395     1.892678023390    -0.058200236489     1.007825032230
         H           -3.799870354395     3.130680023390    -1.601775236489     1.007825032230
         H           -2.716545354395     2.053121023390    -2.503979236489     1.007825032230
         H           -4.400293354395     1.574121023390    -2.211828236489     1.007825032230

  Basis Set: AUG-CC-PVTZ
    Blend: AUG-CC-PVTZ
  Basis Set: (AUG-CC-PVTZ AUX)
    Blend: AUG-CC-PVTZ-JKFIT
	 Reference Energy          =   -1327.8606349739068264 [Eh]
	 Singles Energy            =      -0.0000000000000000 [Eh]
	 Same-Spin Energy          =      -1.0147139856411533 [Eh]
	 Opposite-Spin Energy      =      -3.0760106789907184 [Eh]
	 Correlation Energy        =      -4.0907246646318720 [Eh]
	 Total Energy              =   -1331.9513596385386336 [Eh]

	 ================> DF-SCS-MP2 Energies <==================
	-----------------------------------------------------------
	 SCS Same-Spin Scale       =       0.3333333333333333 [-]
	 SCS Opposite-Spin Scale   =       1.2000000000000000 [-]
	 SCS Same-Spin Energy      =      -0.3382379952137178 [Eh]
	 SCS Opposite-Spin Energy  =      -3.6912128147888619 [Eh]
	 SCS Correlation Energy    =      -4.0294508100025794 [Eh]
	 SCS Total Energy          =   -1331.8900857839093987 [Eh]
	-----------------------------------------------------------

  Dipole Moment: [D]
     X:    -1.1409      Y:     1.8918      Z:     0.7020     Total:     2.3181

*** Psi4 exiting successfully. Buy a developer a beer!
