                               Psi4 1.3.2 release

  ==> Input File <==

--------------------------------------------------------------------------
#psi4
#
memory 32 gb

molecule  {
0 1
  P       -2.2900960    -0.9400430     0.3446780
  O       -0.9821530    -0.2015620     0.9382890
  O        1.3422500    -1.6754830     1.2308510
  O        0.0787050     2.3596040     0.4621680
  O        3.0685150    -2.1870720    -0.8085900
  O        2.8473350     2.5031130     0.3715350
  O        4.1956880     0.4353970    -0.9728740
  O       -2.8268630     0.0333510    -0.8075310
  O       -3.2591210    -0.7232820     1.6216710
  O       -2.1189930    -2.3436440    -0.0996680
  C        0.1181620     0.0300090     0.0163190
  C        0.9532920    -1.2442050    -0.0757250
  C        0.8985890     1.2026440     0.5648510
  C        2.3732090    -1.1789426    -0.8167108
  C        2.1770750     1.3964720    -0.2280410
  C        3.0258420     0.1487050    -0.2103220
  C       -3.1242130     1.4315980    -0.4888860
  C       -3.5363170     2.0851650    -1.7841190
  H       -0.2830920     0.2988010    -0.9702380
  H        0.3702690    -2.0293640    -0.5720320
  H        1.1571200     0.9978770     1.6121560
  H        2.0609340    -0.7886600    -1.8727560
  H        1.9169870     1.6362870    -1.2735830
  H        3.2958550    -0.0945320     0.8276460
  H        0.5217750    -1.8880320     1.7115100
  H        0.6655400     3.1093110     0.6831840
  H        2.9735430    -2.5473740     0.0946540
  H        3.7214290     2.5491860    -0.0588690
  H        4.6397270    -0.4238340    -1.0970870
  H       -3.8083950    -1.5223380     1.7347280
  H       -3.9305460     1.4455410     0.2493860
  H       -2.2297620     1.8928800    -0.0590960
  H       -3.8005210     3.1308820    -1.6026710
  H       -2.7171960     2.0533230    -2.5048750
  H       -4.4009440     1.5743230    -2.2127240
units angstrom
no_reorient  #important for SAPT in psi4, default
symmetry c1  #important for SAPT in psi4, default
}

set PROPERTIES_ORIGIN ["COM"]
properties('MP2/aug-cc-pvtz', properties = ['dipole'])
--------------------------------------------------------------------------

    Molecular point group: c1
  Charge       = 0
  Multiplicity = 1
  Basis Set: AUG-CC-PVTZ
    Blend: AUG-CC-PVTZ
  Basis Set: (AUG-CC-PVTZ AUX)
    Blend: AUG-CC-PVTZ-JKFIT

    Orbital Energies [Eh]
    ---------------------

    Doubly Occupied:

       1A    -80.115271     2A    -20.613373     3A    -20.605704
       4A    -20.598633     5A    -20.597264     6A    -20.579949
       7A    -20.575063     8A    -20.570179     9A    -20.568942
      10A    -20.521479    11A    -11.318820    12A    -11.307549
      13A    -11.297815    14A    -11.297095    15A    -11.294906
      16A    -11.294037    17A    -11.284066    18A    -11.228454
      19A     -7.630721    20A     -5.529228    21A     -5.528854
      22A     -5.527649    23A     -1.486822    24A     -1.458463
      25A     -1.402431    26A     -1.391557    27A     -1.385566
      28A     -1.374904    29A     -1.369035    30A     -1.354225
      31A     -1.301927    32A     -1.101903    33A     -1.038804
      34A     -1.001115    35A     -0.985989    36A     -0.875827
      37A     -0.869686    38A     -0.861734    39A     -0.824680
      40A     -0.813577    41A     -0.757047    42A     -0.746520
      43A     -0.731994    44A     -0.727092    45A     -0.710559
      46A     -0.695435    47A     -0.688209    48A     -0.677829
      49A     -0.665219    50A     -0.661567    51A     -0.659827
      52A     -0.636914    53A     -0.630980    54A     -0.620282
      55A     -0.608317    56A     -0.597499    57A     -0.585275
      58A     -0.574347    59A     -0.568405    60A     -0.565100
      61A     -0.555128    62A     -0.547962    63A     -0.546654
      64A     -0.538119    65A     -0.525329    66A     -0.516750
      67A     -0.508414    68A     -0.497293    69A     -0.490521
      70A     -0.477961    71A     -0.475581    72A     -0.462186
      73A     -0.456544    74A     -0.453502    75A     -0.446481
      76A     -0.398240

  @DF-RHF Final Energy: -1327.81579741739370

   => Energetics <=

    Nuclear Repulsion Energy =           1770.9326272058117411
    One-Electron Energy =               -5353.9200974754612616
    Two-Electron Energy =                2255.1716728522560516
    Total Energy =                      -1327.8157974173936964
  Basis Set: (AUG-CC-PVTZ AUX)
    Blend: AUG-CC-PVTZ-RI
    Molecular point group: c1

    Geometry (in Angstrom), charge = 0, multiplicity = 1:

       Center              X                  Y                   Z               Mass
    ------------   -----------------  -----------------  -----------------  -----------------
         P           -2.294826173301    -0.933184618754     0.344622744142    30.973761998420
         O           -0.986883173301    -0.194703618754     0.938233744142    15.994914619570
         O            1.337519826699    -1.668624618754     1.230795744142    15.994914619570
         O            0.073974826699     2.366462381246     0.462112744142    15.994914619570
         O            3.063784826699    -2.180213618754    -0.808645255858    15.994914619570
         O            2.842604826699     2.509971381246     0.371479744142    15.994914619570
         O            4.190957826699     0.442255381246    -0.972929255858    15.994914619570
         O           -2.831593173301     0.040209381246    -0.807586255858    15.994914619570
         O           -3.263851173301    -0.716423618754     1.621615744142    15.994914619570
         O           -2.123723173301    -2.336785618754    -0.099723255858    15.994914619570
         C            0.113431826699     0.036867381246     0.016263744142    12.000000000000
         C            0.948561826699    -1.237346618754    -0.075780255858    12.000000000000
         C            0.893858826699     1.209502381246     0.564795744142    12.000000000000
         C            2.368478826699    -1.172084218754    -0.816766055858    12.000000000000
         C            2.172344826699     1.403330381246    -0.228096255858    12.000000000000
         C            3.021111826699     0.155563381246    -0.210377255858    12.000000000000
         C           -3.128943173301     1.438456381246    -0.488941255858    12.000000000000
         C           -3.541047173301     2.092023381246    -1.784174255858    12.000000000000
         H           -0.287822173301     0.305659381246    -0.970293255858     1.007825032230
         H            0.365538826699    -2.022505618754    -0.572087255858     1.007825032230
         H            1.152389826699     1.004735381246     1.612100744142     1.007825032230
         H            2.056203826699    -0.781801618754    -1.872811255858     1.007825032230
         H            1.912256826699     1.643145381246    -1.273638255858     1.007825032230
         H            3.291124826699    -0.087673618754     0.827590744142     1.007825032230
         H            0.517044826699    -1.881173618754     1.711454744142     1.007825032230
         H            0.660809826699     3.116169381246     0.683128744142     1.007825032230
         H            2.968812826699    -2.540515618754     0.094598744142     1.007825032230
         H            3.716698826699     2.556044381246    -0.058924255858     1.007825032230
         H            4.634996826699    -0.416975618754    -1.097142255858     1.007825032230
         H           -3.813125173301    -1.515479618754     1.734672744142     1.007825032230
         H           -3.935276173301     1.452399381246     0.249330744142     1.007825032230
         H           -2.234492173301     1.899738381246    -0.059151255858     1.007825032230
         H           -3.805251173301     3.137740381246    -1.602726255858     1.007825032230
         H           -2.721926173301     2.060181381246    -2.504930255858     1.007825032230
         H           -4.405674173301     1.581181381246    -2.212779255858     1.007825032230

  Basis Set: AUG-CC-PVTZ
    Blend: AUG-CC-PVTZ
  Basis Set: (AUG-CC-PVTZ AUX)
    Blend: AUG-CC-PVTZ-JKFIT
	 Reference Energy          =   -1327.8157974173936964 [Eh]
	 Singles Energy            =      -0.0000000000000000 [Eh]
	 Same-Spin Energy          =      -1.0153510491606286 [Eh]
	 Opposite-Spin Energy      =      -3.0754502338777190 [Eh]
	 Correlation Energy        =      -4.0908012830383473 [Eh]
	 Total Energy              =   -1331.9065987004321414 [Eh]

	 ================> DF-SCS-MP2 Energies <==================
	-----------------------------------------------------------
	 SCS Same-Spin Scale       =       0.3333333333333333 [-]
	 SCS Opposite-Spin Scale   =       1.2000000000000000 [-]
	 SCS Same-Spin Energy      =      -0.3384503497202095 [Eh]
	 SCS Opposite-Spin Energy  =      -3.6905402806532628 [Eh]
	 SCS Correlation Energy    =      -4.0289906303734719 [Eh]
	 SCS Total Energy          =   -1331.8447880477672243 [Eh]
	-----------------------------------------------------------

  Dipole Moment: [D]
     X:    -0.6594      Y:     1.1464      Z:     0.7139     Total:     1.5030

*** Psi4 exiting successfully. Buy a developer a beer!
