                               Psi4 1.3.2 release

  ==> Input File <==

--------------------------------------------------------------------------
#psi4
#
memory 32 gb

molecule  {
0 1
  P       -2.2900960    -0.9400430     0.3446780
  O       -0.9821530    -0.2015620     0.9382890
  O        1.3422500    -1.6754830     1.2308510
  O        0.0787050     2.3596040     0.4621680
  O        3.0685150    -2.1870720    -0.8085900
  O        2.8473350     2.5031130     0.3715350
  O        4.1956880     0.4353970    -0.9728740
  O       -2.8268630     0.0333510    -0.8075310
  O       -3.2591210    -0.7232820     1.6216710
  O       -2.1189930    -2.3436440    -0.0996680
  C        0.1181620     0.0300090     0.0163190
  C        0.9532920    -1.2442050    -0.0757250
  C        0.8791500     1.1885741     0.5585362
  C        2.2596600    -1.0143070    -0.8180370
  C        2.1770750     1.3964720    -0.2280410
  C        3.0258420     0.1487050    -0.2103220
  C       -3.1242130     1.4315980    -0.4888860
  C       -3.5363170     2.0851650    -1.7841190
  H       -0.2830920     0.2988010    -0.9702380
  H        0.3702690    -2.0293640    -0.5720320
  H        1.1571200     0.9978770     1.6121560
  H        2.0609340    -0.7886600    -1.8727560
  H        1.9169870     1.6362870    -1.2735830
  H        3.2958550    -0.0945320     0.8276460
  H        0.5217750    -1.8880320     1.7115100
  H        0.6524826     3.1200321     0.6808283
  H        2.9735430    -2.5473740     0.0946540
  H        3.7214290     2.5491860    -0.0588690
  H        4.6397270    -0.4238340    -1.0970870
  H       -3.8083950    -1.5223380     1.7347280
  H       -3.9305460     1.4455410     0.2493860
  H       -2.2297620     1.8928800    -0.0590960
  H       -3.8005210     3.1308820    -1.6026710
  H       -2.7171960     2.0533230    -2.5048750
  H       -4.4009440     1.5743230    -2.2127240
units angstrom
no_reorient  #important for SAPT in psi4, default
symmetry c1  #important for SAPT in psi4, default
}

set PROPERTIES_ORIGIN ["COM"]
properties('MP2/aug-cc-pvtz', properties = ['dipole'])
--------------------------------------------------------------------------

    Molecular point group: c1
  Charge       = 0
  Multiplicity = 1
  Basis Set: AUG-CC-PVTZ
    Blend: AUG-CC-PVTZ
  Basis Set: (AUG-CC-PVTZ AUX)
    Blend: AUG-CC-PVTZ-JKFIT

    Orbital Energies [Eh]
    ---------------------

    Doubly Occupied:

       1A    -80.117082     2A    -20.614852     3A    -20.607200
       4A    -20.599089     5A    -20.583403     6A    -20.576610
       7A    -20.574645     8A    -20.573688     9A    -20.572526
      10A    -20.523620    11A    -11.320533    12A    -11.304290
      13A    -11.299451    14A    -11.299401    15A    -11.299058
      16A    -11.297033    17A    -11.290930    18A    -11.229947
      19A     -7.632541    20A     -5.531048    21A     -5.530672
      22A     -5.529472    23A     -1.460647    24A     -1.410896
      25A     -1.394512    26A     -1.392538    27A     -1.386989
      28A     -1.372359    29A     -1.363608    30A     -1.353491
      31A     -1.304033    32A     -1.120275    33A     -1.040576
      34A     -1.014139    35A     -1.002566    36A     -0.879827
      37A     -0.864906    38A     -0.859617    39A     -0.822468
      40A     -0.810408    41A     -0.751935    42A     -0.745096
      43A     -0.731822    44A     -0.729208    45A     -0.708370
      46A     -0.687237    47A     -0.678370    48A     -0.673705
      49A     -0.661776    50A     -0.660815    51A     -0.642909
      52A     -0.635456    53A     -0.627317    54A     -0.615460
      55A     -0.602957    56A     -0.598400    57A     -0.582780
      58A     -0.575619    59A     -0.571124    60A     -0.558621
      61A     -0.556821    62A     -0.548451    63A     -0.541258
      64A     -0.536929    65A     -0.530018    66A     -0.521950
      67A     -0.512910    68A     -0.504137    69A     -0.497488
      70A     -0.484833    71A     -0.480073    72A     -0.476807
      73A     -0.461173    74A     -0.455000    75A     -0.449088
      76A     -0.436493

  @DF-RHF Final Energy: -1327.86080909114753

   => Energetics <=

    Nuclear Repulsion Energy =           1772.6973987213164037
    One-Electron Energy =               -5357.5297079152551305
    Two-Electron Energy =                2256.9715001027911967
    Total Energy =                      -1327.8608090911475301
  Basis Set: (AUG-CC-PVTZ AUX)
    Blend: AUG-CC-PVTZ-RI
    Molecular point group: c1

    Geometry (in Angstrom), charge = 0, multiplicity = 1:

       Center              X                  Y                   Z               Mass
    ------------   -----------------  -----------------  -----------------  -----------------
         P           -2.289240497115    -0.939494370065     0.344949293474    30.973761998420
         O           -0.981297497115    -0.201013370065     0.938560293474    15.994914619570
         O            1.343105502885    -1.674934370065     1.231122293474    15.994914619570
         O            0.079560502885     2.360152629935     0.462439293474    15.994914619570
         O            3.069370502885    -2.186523370065    -0.808318706526    15.994914619570
         O            2.848190502885     2.503661629935     0.371806293474    15.994914619570
         O            4.196543502885     0.435945629935    -0.972602706526    15.994914619570
         O           -2.826007497115     0.033899629935    -0.807259706526    15.994914619570
         O           -3.258265497115    -0.722733370065     1.621942293474    15.994914619570
         O           -2.118137497115    -2.343095370065    -0.099396706526    15.994914619570
         C            0.119017502885     0.030557629935     0.016590293474    12.000000000000
         C            0.954147502885    -1.243656370065    -0.075453706526    12.000000000000
         C            0.880005502885     1.189122729935     0.558807493474    12.000000000000
         C            2.260515502885    -1.013758370065    -0.817765706526    12.000000000000
         C            2.177930502885     1.397020629935    -0.227769706526    12.000000000000
         C            3.026697502885     0.149253629935    -0.210050706526    12.000000000000
         C           -3.123357497115     1.432146629935    -0.488614706526    12.000000000000
         C           -3.535461497115     2.085713629935    -1.783847706526    12.000000000000
         H           -0.282236497115     0.299349629935    -0.969966706526     1.007825032230
         H            0.371124502885    -2.028815370065    -0.571760706526     1.007825032230
         H            1.157975502885     0.998425629935     1.612427293474     1.007825032230
         H            2.061789502885    -0.788111370065    -1.872484706526     1.007825032230
         H            1.917842502885     1.636835629935    -1.273311706526     1.007825032230
         H            3.296710502885    -0.093983370065     0.827917293474     1.007825032230
         H            0.522630502885    -1.887483370065     1.711781293474     1.007825032230
         H            0.653338102885     3.120580729935     0.681099593474     1.007825032230
         H            2.974398502885    -2.546825370065     0.094925293474     1.007825032230
         H            3.722284502885     2.549734629935    -0.058597706526     1.007825032230
         H            4.640582502885    -0.423285370065    -1.096815706526     1.007825032230
         H           -3.807539497115    -1.521789370065     1.734999293474     1.007825032230
         H           -3.929690497115     1.446089629935     0.249657293474     1.007825032230
         H           -2.228906497115     1.893428629935    -0.058824706526     1.007825032230
         H           -3.799665497115     3.131430629935    -1.602399706526     1.007825032230
         H           -2.716340497115     2.053871629935    -2.504603706526     1.007825032230
         H           -4.400088497115     1.574871629935    -2.212452706526     1.007825032230

  Basis Set: AUG-CC-PVTZ
    Blend: AUG-CC-PVTZ
  Basis Set: (AUG-CC-PVTZ AUX)
    Blend: AUG-CC-PVTZ-JKFIT
	 Reference Energy          =   -1327.8608090911475301 [Eh]
	 Singles Energy            =      -0.0000000000000000 [Eh]
	 Same-Spin Energy          =      -1.0146308847014396 [Eh]
	 Opposite-Spin Energy      =      -3.0760299777743376 [Eh]
	 Correlation Energy        =      -4.0906608624757776 [Eh]
	 Total Energy              =   -1331.9514699536232456 [Eh]

	 ================> DF-SCS-MP2 Energies <==================
	-----------------------------------------------------------
	 SCS Same-Spin Scale       =       0.3333333333333333 [-]
	 SCS Opposite-Spin Scale   =       1.2000000000000000 [-]
	 SCS Same-Spin Energy      =      -0.3382102949004798 [Eh]
	 SCS Opposite-Spin Energy  =      -3.6912359733292051 [Eh]
	 SCS Correlation Energy    =      -4.0294462682296848 [Eh]
	 SCS Total Energy          =   -1331.8902553593773064 [Eh]
	-----------------------------------------------------------

  Dipole Moment: [D]
     X:    -1.1432      Y:     1.8631      Z:     0.7192     Total:     2.3012

*** Psi4 exiting successfully. Buy a developer a beer!
