                               Psi4 1.3.2 release

  ==> Input File <==

--------------------------------------------------------------------------
#psi4
#
memory 32 gb

molecule  {
0 1
  P       -2.3128248    -0.9912090     0.3373640
  O       -0.9821530    -0.2015620     0.9382890
  O        1.3422500    -1.6754830     1.2308510
  O        0.0787050     2.3596040     0.4621680
  O        3.0685150    -2.1870720    -0.8085900
  O        2.8473350     2.5031130     0.3715350
  O        4.1956880     0.4353970    -0.9728740
  O       -2.8268630     0.0333510    -0.8075310
  O       -3.2591210    -0.7232820     1.6216710
  O       -2.1189930    -2.3436440    -0.0996680
  C        0.1181620     0.0300090     0.0163190
  C        0.9532920    -1.2442050    -0.0757250
  C        0.8985890     1.2026440     0.5648510
  C        2.2596600    -1.0143070    -0.8180370
  C        2.1770750     1.3964720    -0.2280410
  C        3.0258420     0.1487050    -0.2103220
  C       -3.1242130     1.4315980    -0.4888860
  C       -3.5363170     2.0851650    -1.7841190
  H       -0.2830920     0.2988010    -0.9702380
  H        0.3702690    -2.0293640    -0.5720320
  H        1.1571200     0.9978770     1.6121560
  H        2.0609340    -0.7886600    -1.8727560
  H        1.9169870     1.6362870    -1.2735830
  H        3.2958550    -0.0945320     0.8276460
  H        0.5217750    -1.8880320     1.7115100
  H        0.6655400     3.1093110     0.6831840
  H        2.9735430    -2.5473740     0.0946540
  H        3.7214290     2.5491860    -0.0588690
  H        4.6397270    -0.4238340    -1.0970870
  H       -3.7929757    -1.5360475     1.7076107
  H       -3.9305460     1.4455410     0.2493860
  H       -2.2297620     1.8928800    -0.0590960
  H       -3.8005210     3.1308820    -1.6026710
  H       -2.7171960     2.0533230    -2.5048750
  H       -4.4009440     1.5743230    -2.2127240
units angstrom
no_reorient  #important for SAPT in psi4, default
symmetry c1  #important for SAPT in psi4, default
}

set PROPERTIES_ORIGIN ["COM"]
properties('MP2/aug-cc-pvtz', properties = ['dipole'])
--------------------------------------------------------------------------

    Molecular point group: c1
  Charge       = 0
  Multiplicity = 1
  Basis Set: AUG-CC-PVTZ
    Blend: AUG-CC-PVTZ
  Basis Set: (AUG-CC-PVTZ AUX)
    Blend: AUG-CC-PVTZ-JKFIT

    Orbital Energies [Eh]
    ---------------------

    Doubly Occupied:

       1A    -80.116761     2A    -20.620607     3A    -20.597721
       4A    -20.594811     5A    -20.581521     6A    -20.574699
       7A    -20.573354     8A    -20.572660     9A    -20.570198
      10A    -20.536095    11A    -11.314541    12A    -11.301588
      13A    -11.297662    14A    -11.296479    15A    -11.295067
      16A    -11.294107    17A    -11.289706    18A    -11.227902
      19A     -7.633424    20A     -5.531731    21A     -5.531241
      22A     -5.530726    23A     -1.456015    24A     -1.408503
      25A     -1.391871    26A     -1.390232    27A     -1.381962
      28A     -1.366016    29A     -1.361862    30A     -1.351480
      31A     -1.334681    32A     -1.115232    33A     -1.037256
      34A     -1.006776    35A     -1.000952    36A     -0.875659
      37A     -0.861340    38A     -0.856158    39A     -0.818406
      40A     -0.807418    41A     -0.748517    42A     -0.740974
      43A     -0.727547    44A     -0.722053    45A     -0.705111
      46A     -0.685338    47A     -0.679492    48A     -0.674431
      49A     -0.661715    50A     -0.658707    51A     -0.640263
      52A     -0.631175    53A     -0.625982    54A     -0.612677
      55A     -0.600238    56A     -0.597004    57A     -0.588739
      58A     -0.576344    59A     -0.567723    60A     -0.560534
      61A     -0.555266    62A     -0.546799    63A     -0.540830
      64A     -0.535631    65A     -0.524687    66A     -0.521248
      67A     -0.509984    68A     -0.503715    69A     -0.502335
      70A     -0.497087    71A     -0.482521    72A     -0.476716
      73A     -0.461245    74A     -0.453784    75A     -0.447693
      76A     -0.435438

  @DF-RHF Final Energy: -1327.85595622069241

   => Energetics <=

    Nuclear Repulsion Energy =           1770.8480379271009042
    One-Electron Energy =               -5354.0000609458520557
    Two-Electron Energy =                2255.2960667980587459
    Total Energy =                      -1327.8559562206924056
  Basis Set: (AUG-CC-PVTZ AUX)
    Blend: AUG-CC-PVTZ-RI
    Molecular point group: c1

    Geometry (in Angstrom), charge = 0, multiplicity = 1:

       Center              X                  Y                   Z               Mass
    ------------   -----------------  -----------------  -----------------  -----------------
         P           -2.310434799626    -0.985659393254     0.338245302617    30.973761998420
         O           -0.979762999626    -0.196012393254     0.939170302617    15.994914619570
         O            1.344640000374    -1.669933393254     1.231732302617    15.994914619570
         O            0.081095000374     2.365153606746     0.463049302617    15.994914619570
         O            3.070905000374    -2.181522393254    -0.807708697383    15.994914619570
         O            2.849725000374     2.508662606746     0.372416302617    15.994914619570
         O            4.198078000374     0.440946606746    -0.971992697383    15.994914619570
         O           -2.824472999626     0.038900606746    -0.806649697383    15.994914619570
         O           -3.256730999626    -0.717732393254     1.622552302617    15.994914619570
         O           -2.116602999626    -2.338094393254    -0.098786697383    15.994914619570
         C            0.120552000374     0.035558606746     0.017200302617    12.000000000000
         C            0.955682000374    -1.238655393254    -0.074843697383    12.000000000000
         C            0.900979000374     1.208193606746     0.565732302617    12.000000000000
         C            2.262050000374    -1.008757393254    -0.817155697383    12.000000000000
         C            2.179465000374     1.402021606746    -0.227159697383    12.000000000000
         C            3.028232000374     0.154254606746    -0.209440697383    12.000000000000
         C           -3.121822999626     1.437147606746    -0.488004697383    12.000000000000
         C           -3.533926999626     2.090714606746    -1.783237697383    12.000000000000
         H           -0.280701999626     0.304350606746    -0.969356697383     1.007825032230
         H            0.372659000374    -2.023814393254    -0.571150697383     1.007825032230
         H            1.159510000374     1.003426606746     1.613037302617     1.007825032230
         H            2.063324000374    -0.783110393254    -1.871874697383     1.007825032230
         H            1.919377000374     1.641836606746    -1.272701697383     1.007825032230
         H            3.298245000374    -0.088982393254     0.828527302617     1.007825032230
         H            0.524165000374    -1.882482393254     1.712391302617     1.007825032230
         H            0.667930000374     3.114860606746     0.684065302617     1.007825032230
         H            2.975933000374    -2.541824393254     0.095535302617     1.007825032230
         H            3.723819000374     2.554735606746    -0.057987697383     1.007825032230
         H            4.642117000374    -0.418284393254    -1.096205697383     1.007825032230
         H           -3.790585699626    -1.530497893254     1.708492002617     1.007825032230
         H           -3.928155999626     1.451090606746     0.250267302617     1.007825032230
         H           -2.227371999626     1.898429606746    -0.058214697383     1.007825032230
         H           -3.798130999626     3.136431606746    -1.601789697383     1.007825032230
         H           -2.714805999626     2.058872606746    -2.503993697383     1.007825032230
         H           -4.398553999626     1.579872606746    -2.211842697383     1.007825032230

  Basis Set: AUG-CC-PVTZ
    Blend: AUG-CC-PVTZ
  Basis Set: (AUG-CC-PVTZ AUX)
    Blend: AUG-CC-PVTZ-JKFIT
	 Reference Energy          =   -1327.8559562206924056 [Eh]
	 Singles Energy            =      -0.0000000000000000 [Eh]
	 Same-Spin Energy          =      -1.0144488084875070 [Eh]
	 Opposite-Spin Energy      =      -3.0761597278398964 [Eh]
	 Correlation Energy        =      -4.0906085363274034 [Eh]
	 Total Energy              =   -1331.9465647570198144 [Eh]

	 ================> DF-SCS-MP2 Energies <==================
	-----------------------------------------------------------
	 SCS Same-Spin Scale       =       0.3333333333333333 [-]
	 SCS Opposite-Spin Scale   =       1.2000000000000000 [-]
	 SCS Same-Spin Energy      =      -0.3381496028291689 [Eh]
	 SCS Opposite-Spin Energy  =      -3.6913916734078756 [Eh]
	 SCS Correlation Energy    =      -4.0295412762370448 [Eh]
	 SCS Total Energy          =   -1331.8854974969294744 [Eh]
	-----------------------------------------------------------

  Dipole Moment: [D]
     X:    -1.4356      Y:     1.3099      Z:     0.6814     Total:     2.0594

*** Psi4 exiting successfully. Buy a developer a beer!
