                               Psi4 1.3.2 release

  ==> Input File <==

--------------------------------------------------------------------------
#psi4
#
memory 32 gb

molecule  {
0 1
  P       -2.2900960    -0.9400430     0.3446780
  O       -0.9821530    -0.2015620     0.9382890
  O        1.3422500    -1.6754830     1.2308510
  O        0.0787050     2.3596040     0.4621680
  O        3.0685150    -2.1870720    -0.8085900
  O        2.8473350     2.5031130     0.3715350
  O        4.1956880     0.4353970    -0.9728740
  O       -2.8268630     0.0333510    -0.8075310
  O       -3.2591210    -0.7232820     1.6216710
  O       -2.1189930    -2.3436440    -0.0996680
  C        0.1275357     0.0280929     0.0072373
  C        0.9532920    -1.2442050    -0.0757250
  C        0.8985890     1.2026440     0.5648510
  C        2.2596600    -1.0143070    -0.8180370
  C        2.1738420     1.3861473    -0.2356674
  C        3.0258420     0.1487050    -0.2103220
  C       -3.1242130     1.4315980    -0.4888860
  C       -3.5363170     2.0851650    -1.7841190
  H       -0.2830920     0.2988010    -0.9702380
  H        0.3702690    -2.0293640    -0.5720320
  H        1.1571200     0.9978770     1.6121560
  H        2.0609340    -0.7886600    -1.8727560
  H        1.9169870     1.6362870    -1.2735830
  H        3.2958550    -0.0945320     0.8276460
  H        0.5217750    -1.8880320     1.7115100
  H        0.6655400     3.1093110     0.6831840
  H        2.9735430    -2.5473740     0.0946540
  H        3.7214290     2.5491860    -0.0588690
  H        4.6397270    -0.4238340    -1.0970870
  H       -3.8083950    -1.5223380     1.7347280
  H       -3.9305460     1.4455410     0.2493860
  H       -2.2297620     1.8928800    -0.0590960
  H       -3.8005210     3.1308820    -1.6026710
  H       -2.7171960     2.0533230    -2.5048750
  H       -4.4009440     1.5743230    -2.2127240
units angstrom
no_reorient  #important for SAPT in psi4, default
symmetry c1  #important for SAPT in psi4, default
}

set PROPERTIES_ORIGIN ["COM"]
properties('MP2/aug-cc-pvtz', properties = ['dipole'])
--------------------------------------------------------------------------

    Molecular point group: c1
  Charge       = 0
  Multiplicity = 1
  Basis Set: AUG-CC-PVTZ
    Blend: AUG-CC-PVTZ
  Basis Set: (AUG-CC-PVTZ AUX)
    Blend: AUG-CC-PVTZ-JKFIT

    Orbital Energies [Eh]
    ---------------------

    Doubly Occupied:

       1A    -80.116075     2A    -20.614151     3A    -20.605601
       4A    -20.598539     5A    -20.583816     6A    -20.575620
       7A    -20.574969     8A    -20.574631     9A    -20.574127
      10A    -20.522920    11A    -11.321256    12A    -11.304159
      13A    -11.299927    14A    -11.299556    15A    -11.299184
      16A    -11.296778    17A    -11.292022    18A    -11.229788
      19A     -7.631535    20A     -5.530042    21A     -5.529663
      22A     -5.528475    23A     -1.458547    24A     -1.410423
      25A     -1.392835    26A     -1.392155    27A     -1.386411
      28A     -1.372110    29A     -1.363341    30A     -1.352597
      31A     -1.303253    32A     -1.121672    33A     -1.040299
      34A     -1.013743    35A     -1.004498    36A     -0.879344
      37A     -0.864667    38A     -0.859995    39A     -0.821632
      40A     -0.811892    41A     -0.751817    42A     -0.744973
      43A     -0.731820    44A     -0.727147    45A     -0.706920
      46A     -0.687447    47A     -0.678505    48A     -0.673684
      49A     -0.662128    50A     -0.660435    51A     -0.641947
      52A     -0.634635    53A     -0.626803    54A     -0.615519
      55A     -0.602100    56A     -0.599189    57A     -0.581957
      58A     -0.574957    59A     -0.570734    60A     -0.558541
      61A     -0.556626    62A     -0.548675    63A     -0.541022
      64A     -0.536857    65A     -0.529906    66A     -0.521470
      67A     -0.513011    68A     -0.504802    69A     -0.496871
      70A     -0.485710    71A     -0.479643    72A     -0.476369
      73A     -0.463177    74A     -0.458278    75A     -0.451718
      76A     -0.436682

  @DF-RHF Final Energy: -1327.86042675213616

   => Energetics <=

    Nuclear Repulsion Energy =           1772.4361945844298134
    One-Electron Energy =               -5357.0246013204769042
    Two-Electron Energy =                2256.7279799839107000
    Total Energy =                      -1327.8604267521363909
  Basis Set: (AUG-CC-PVTZ AUX)
    Blend: AUG-CC-PVTZ-RI
    Molecular point group: c1

    Geometry (in Angstrom), charge = 0, multiplicity = 1:

       Center              X                  Y                   Z               Mass
    ------------   -----------------  -----------------  -----------------  -----------------
         P           -2.290351775467    -0.939533057031     0.345374014135    30.973761998420
         O           -0.982408775467    -0.201052057031     0.938985014135    15.994914619570
         O            1.341994224533    -1.674973057031     1.231547014135    15.994914619570
         O            0.078449224533     2.360113942969     0.462864014135    15.994914619570
         O            3.068259224533    -2.186562057031    -0.807893985865    15.994914619570
         O            2.847079224533     2.503622942969     0.372231014135    15.994914619570
         O            4.195432224533     0.435906942969    -0.972177985865    15.994914619570
         O           -2.827118775467     0.033860942969    -0.806834985865    15.994914619570
         O           -3.259376775467    -0.722772057031     1.622367014135    15.994914619570
         O           -2.119248775467    -2.343134057031    -0.098971985865    15.994914619570
         C            0.127279924533     0.028602842969     0.007933314135    12.000000000000
         C            0.953036224533    -1.243695057031    -0.075028985865    12.000000000000
         C            0.898333224533     1.203153942969     0.565547014135    12.000000000000
         C            2.259404224533    -1.013797057031    -0.817340985865    12.000000000000
         C            2.173586224533     1.386657242969    -0.234971385865    12.000000000000
         C            3.025586224533     0.149214942969    -0.209625985865    12.000000000000
         C           -3.124468775467     1.432107942969    -0.488189985865    12.000000000000
         C           -3.536572775467     2.085674942969    -1.783422985865    12.000000000000
         H           -0.283347775467     0.299310942969    -0.969541985865     1.007825032230
         H            0.370013224533    -2.028854057031    -0.571335985865     1.007825032230
         H            1.156864224533     0.998386942969     1.612852014135     1.007825032230
         H            2.060678224533    -0.788150057031    -1.872059985865     1.007825032230
         H            1.916731224533     1.636796942969    -1.272886985865     1.007825032230
         H            3.295599224533    -0.094022057031     0.828342014135     1.007825032230
         H            0.521519224533    -1.887522057031     1.712206014135     1.007825032230
         H            0.665284224533     3.109820942969     0.683880014135     1.007825032230
         H            2.973287224533    -2.546864057031     0.095350014135     1.007825032230
         H            3.721173224533     2.549695942969    -0.058172985865     1.007825032230
         H            4.639471224533    -0.423324057031    -1.096390985865     1.007825032230
         H           -3.808650775467    -1.521828057031     1.735424014135     1.007825032230
         H           -3.930801775467     1.446050942969     0.250082014135     1.007825032230
         H           -2.230017775467     1.893389942969    -0.058399985865     1.007825032230
         H           -3.800776775467     3.131391942969    -1.601974985865     1.007825032230
         H           -2.717451775467     2.053832942969    -2.504178985865     1.007825032230
         H           -4.401199775467     1.574832942969    -2.212027985865     1.007825032230

  Basis Set: AUG-CC-PVTZ
    Blend: AUG-CC-PVTZ
  Basis Set: (AUG-CC-PVTZ AUX)
    Blend: AUG-CC-PVTZ-JKFIT
	 Reference Energy          =   -1327.8604267521361635 [Eh]
	 Singles Energy            =      -0.0000000000000000 [Eh]
	 Same-Spin Energy          =      -1.0147651609848314 [Eh]
	 Opposite-Spin Energy      =      -3.0765331783774124 [Eh]
	 Correlation Energy        =      -4.0912983393622433 [Eh]
	 Total Energy              =   -1331.9517250914984743 [Eh]

	 ================> DF-SCS-MP2 Energies <==================
	-----------------------------------------------------------
	 SCS Same-Spin Scale       =       0.3333333333333333 [-]
	 SCS Opposite-Spin Scale   =       1.2000000000000000 [-]
	 SCS Same-Spin Energy      =      -0.3382550536616105 [Eh]
	 SCS Opposite-Spin Energy  =      -3.6918398140528947 [Eh]
	 SCS Correlation Energy    =      -4.0300948677145048 [Eh]
	 SCS Total Energy          =   -1331.8905216198506878 [Eh]
	-----------------------------------------------------------

  Dipole Moment: [D]
     X:    -1.0787      Y:     1.8383      Z:     0.6904     Total:     2.2404

*** Psi4 exiting successfully. Buy a developer a beer!
