                               Psi4 1.4a3.dev225

  ==> Input File <==

--------------------------------------------------------------------------
#psi4
#
memory 32 gb

molecule  {
0 1
  P       -2.3219140    -1.0563120    -0.0968450
  O       -1.0285840    -0.5623410     0.7549430
  O        1.3695440    -1.8069540     1.2202350
  O       -0.1592450     2.1412630     0.5207450
  O        3.3269040    -2.0858120    -0.6453880
  O        2.5724350     2.5270130     0.6374560
  O        4.2203020     0.6406430    -0.6358120
  O       -2.8737010     0.2643620    -0.8096810
  O       -3.3065970    -1.3497020     1.1531960
  O       -2.0971146    -2.2194329    -1.0667241
  C        0.1200290    -0.1583450    -0.0432010
  C        1.0698050    -1.3527180    -0.1046720
  C        0.7441670     1.0454510     0.6308160
  C        2.4193320    -0.9866070    -0.7068450
  C        2.0603010     1.3853380    -0.0470020
  C        3.0180900     0.2181970     0.0056710
  C       -3.2473180     1.4231610     0.0025120
  C       -3.2076300     2.6262440    -0.9075720
  H       -0.2047330     0.1313700    -1.0514980
  H        0.5965010    -2.1549610    -0.6866410
  H        0.9371260     0.8063110     1.6860210
  H        2.3054700    -0.7437210    -1.7704410
  H        1.8633300     1.6367370    -1.1028410
  H        3.2142070    -0.0417910     1.0561650
  H        0.5126160    -2.0057500     1.6426110
  H        0.3598300     2.9232990     0.7925780
  H        3.1793900    -2.4823080     0.2360710
  H        3.4672560     2.6739710     0.2770410
  H        4.7639490    -0.1654590    -0.7244900
  H       -3.7873380    -2.1826420     0.9908450
  H       -4.2474700     1.2335250     0.4005830
  H       -2.5352900     1.5309660     0.8217280
  H       -3.5402110     3.5125760    -0.3587690
  H       -2.1856630     2.7912820    -1.2511950
  H       -3.8637180     2.4807570    -1.7684970
units angstrom
no_reorient  #important for SAPT in psi4, default
symmetry c1  #important for SAPT in psi4, default
}

set PROPERTIES_ORIGIN ["COM"]
properties('MP2/aug-cc-pvtz', properties = ['dipole'])
--------------------------------------------------------------------------

    Molecular point group: c1
  Charge       = 0
  Multiplicity = 1
  Basis Set: AUG-CC-PVTZ
    Blend: AUG-CC-PVTZ
  Basis Set: (AUG-CC-PVTZ AUX)
    Blend: AUG-CC-PVTZ-JKFIT

    Orbital Energies [Eh]
    ---------------------

    Doubly Occupied:

       1A    -80.125460     2A    -20.618438     3A    -20.611206
       4A    -20.599042     5A    -20.584335     6A    -20.578952
       7A    -20.575541     8A    -20.575457     9A    -20.575229
      10A    -20.523847    11A    -11.322445    12A    -11.305310
      13A    -11.301401    14A    -11.300436    15A    -11.298905
      16A    -11.297992    17A    -11.293275    18A    -11.224107
      19A     -7.638900    20A     -5.537620    21A     -5.537115
      22A     -5.535479    23A     -1.459271    24A     -1.411766
      25A     -1.396397    26A     -1.393700    27A     -1.387672
      28A     -1.373674    29A     -1.364644    30A     -1.354610
      31A     -1.281906    32A     -1.119383    33A     -1.037190
      34A     -1.012181    35A     -1.003961    36A     -0.879500
      37A     -0.863900    38A     -0.860047    39A     -0.824897
      40A     -0.810760    41A     -0.755458    42A     -0.746716
      43A     -0.730176    44A     -0.727053    45A     -0.706829
      46A     -0.687941    47A     -0.680355    48A     -0.674670
      49A     -0.662663    50A     -0.659847    51A     -0.643087
      52A     -0.637968    53A     -0.624452    54A     -0.614183
      55A     -0.605200    56A     -0.597234    57A     -0.579651
      58A     -0.577071    59A     -0.571667    60A     -0.559963
      61A     -0.552595    62A     -0.548435    63A     -0.538935
      64A     -0.537031    65A     -0.531222    66A     -0.517610
      67A     -0.509711    68A     -0.504130    69A     -0.493494
      70A     -0.487513    71A     -0.476144    72A     -0.466976
      73A     -0.460697    74A     -0.457695    75A     -0.450553
      76A     -0.436468

  @DF-RHF Final Energy: -1327.85333838281986

   => Energetics <=

    Nuclear Repulsion Energy =           1772.1211757520404717
    One-Electron Energy =               -5356.3343323413419057
    Two-Electron Energy =                2256.3598182064815774
    Total Energy =                      -1327.8533383828198566
  Basis Set: (AUG-CC-PVTZ AUX)
    Blend: AUG-CC-PVTZ-RI
    Molecular point group: c1

    Geometry (in Angstrom), charge = 0, multiplicity = 1:

       Center              X                  Y                   Z               Mass
    ------------   -----------------  -----------------  -----------------  -----------------
         P           -2.311560256636    -1.016423786515    -0.097530737341    30.973761998420
         O           -1.018230256636    -0.522452786515     0.754257262659    15.994914619570
         O            1.379897743364    -1.767065786515     1.219549262659    15.994914619570
         O           -0.148891256636     2.181151213485     0.520059262659    15.994914619570
         O            3.337257743364    -2.045923786515    -0.646073737341    15.994914619570
         O            2.582788743364     2.566901213485     0.636770262659    15.994914619570
         O            4.230655743364     0.680531213485    -0.636497737341    15.994914619570
         O           -2.863347256636     0.304250213485    -0.810366737341    15.994914619570
         O           -3.296243256636    -1.309813786515     1.152510262659    15.994914619570
         O           -2.086760856636    -2.179544686515    -1.067409837341    15.994914619570
         C            0.130382743364    -0.118456786515    -0.043886737341    12.000000000000
         C            1.080158743364    -1.312829786515    -0.105357737341    12.000000000000
         C            0.754520743364     1.085339213485     0.630130262659    12.000000000000
         C            2.429685743364    -0.946718786515    -0.707530737341    12.000000000000
         C            2.070654743364     1.425226213485    -0.047687737341    12.000000000000
         C            3.028443743364     0.258085213485     0.004985262659    12.000000000000
         C           -3.236964256636     1.463049213485     0.001826262659    12.000000000000
         C           -3.197276256636     2.666132213485    -0.908257737341    12.000000000000
         H           -0.194379256636     0.171258213485    -1.052183737341     1.007825032230
         H            0.606854743364    -2.115072786515    -0.687326737341     1.007825032230
         H            0.947479743364     0.846199213485     1.685335262659     1.007825032230
         H            2.315823743364    -0.703832786515    -1.771126737341     1.007825032230
         H            1.873683743364     1.676625213485    -1.103526737341     1.007825032230
         H            3.224560743364    -0.001902786515     1.055479262659     1.007825032230
         H            0.522969743364    -1.965861786515     1.641925262659     1.007825032230
         H            0.370183743364     2.963187213485     0.791892262659     1.007825032230
         H            3.189743743364    -2.442419786515     0.235385262659     1.007825032230
         H            3.477609743364     2.713859213485     0.276355262659     1.007825032230
         H            4.774302743364    -0.125570786515    -0.725175737341     1.007825032230
         H           -3.776984256636    -2.142753786515     0.990159262659     1.007825032230
         H           -4.237116256636     1.273413213485     0.399897262659     1.007825032230
         H           -2.524936256636     1.570854213485     0.821042262659     1.007825032230
         H           -3.529857256636     3.552464213485    -0.359454737341     1.007825032230
         H           -2.175309256636     2.831170213485    -1.251880737341     1.007825032230
         H           -3.853364256636     2.520645213485    -1.769182737341     1.007825032230

  Basis Set: AUG-CC-PVTZ
    Blend: AUG-CC-PVTZ
  Basis Set: (AUG-CC-PVTZ AUX)
    Blend: AUG-CC-PVTZ-JKFIT
	 Reference Energy          =   -1327.8533383828198566 [Eh]
	 Singles Energy            =      -0.0000000000000000 [Eh]
	 Same-Spin Energy          =      -1.0158672522611822 [Eh]
	 Opposite-Spin Energy      =      -3.0793347571723970 [Eh]
	 Correlation Energy        =      -4.0952020094335797 [Eh]
	 Total Energy              =   -1331.9485403922533351 [Eh]

	 ================> DF-SCS-MP2 Energies <==================
	-----------------------------------------------------------
	 SCS Same-Spin Scale       =       0.3333333333333333 [-]
	 SCS Opposite-Spin Scale   =       1.2000000000000000 [-]
	 SCS Same-Spin Energy      =      -0.3386224174203941 [Eh]
	 SCS Opposite-Spin Energy  =      -3.6952017086068762 [Eh]
	 SCS Correlation Energy    =      -4.0338241260272705 [Eh]
	 SCS Total Energy          =   -1331.8871625088470410 [Eh]
	-----------------------------------------------------------

  Dipole Moment: [D]
     X:    -0.8789      Y:     1.6168      Z:     2.0151     Total:     2.7290

*** Psi4 exiting successfully. Buy a developer a beer!
