                               Psi4 1.3.2 release

  ==> Input File <==

--------------------------------------------------------------------------
#psi4
#
memory 32 gb

molecule  {
0 1
  P       -2.2900960    -0.9400430     0.3446780
  O       -0.9821530    -0.2015620     0.9382890
  O        1.3422500    -1.6754830     1.2308510
  O        0.0787050     2.3596040     0.4621680
  O        3.0685150    -2.1870720    -0.8085900
  O        2.8473350     2.5031130     0.3715350
  O        4.1956880     0.4353970    -0.9728740
  O       -2.8268630     0.0333510    -0.8075310
  O       -3.2591210    -0.7232820     1.6216710
  O       -2.1189930    -2.3436440    -0.0996680
  C        0.1181620     0.0300090     0.0163190
  C        0.9532920    -1.2442050    -0.0757250
  C        0.9367119     1.2318366     0.5773848
  C        2.2596600    -1.0143070    -0.8180370
  C        2.1770750     1.3964720    -0.2280410
  C        3.0258420     0.1487050    -0.2103220
  C       -3.1242130     1.4315980    -0.4888860
  C       -3.5363170     2.0851650    -1.7841190
  H       -0.2830920     0.2988010    -0.9702380
  H        0.3702690    -2.0293640    -0.5720320
  H        1.1571200     0.9978770     1.6121560
  H        2.0609340    -0.7886600    -1.8727560
  H        1.9169870     1.6362870    -1.2735830
  H        3.2958550    -0.0945320     0.8276460
  H        0.5217750    -1.8880320     1.7115100
  H        0.6911147     3.0871870     0.6876927
  H        2.9735430    -2.5473740     0.0946540
  H        3.7214290     2.5491860    -0.0588690
  H        4.6397270    -0.4238340    -1.0970870
  H       -3.8083950    -1.5223380     1.7347280
  H       -3.9305460     1.4455410     0.2493860
  H       -2.2297620     1.8928800    -0.0590960
  H       -3.8005210     3.1308820    -1.6026710
  H       -2.7171960     2.0533230    -2.5048750
  H       -4.4009440     1.5743230    -2.2127240
units angstrom
no_reorient  #important for SAPT in psi4, default
symmetry c1  #important for SAPT in psi4, default
}

set PROPERTIES_ORIGIN ["COM"]
properties('MP2/aug-cc-pvtz', properties = ['dipole'])
--------------------------------------------------------------------------

    Molecular point group: c1
  Charge       = 0
  Multiplicity = 1
  Basis Set: AUG-CC-PVTZ
    Blend: AUG-CC-PVTZ
  Basis Set: (AUG-CC-PVTZ AUX)
    Blend: AUG-CC-PVTZ-JKFIT

    Orbital Energies [Eh]
    ---------------------

    Doubly Occupied:

       1A    -80.116658     2A    -20.614495     3A    -20.606676
       4A    -20.598653     5A    -20.582622     6A    -20.577288
       7A    -20.575450     8A    -20.575012     9A    -20.574593
      10A    -20.523071    11A    -11.320932    12A    -11.302143
      13A    -11.299309    14A    -11.299287    15A    -11.298400
      16A    -11.296246    17A    -11.292574    18A    -11.229724
      19A     -7.632092    20A     -5.530598    21A     -5.530229
      22A     -5.529023    23A     -1.459616    24A     -1.411002
      25A     -1.395951    26A     -1.393356    27A     -1.386618
      28A     -1.373553    29A     -1.364786    30A     -1.354612
      31A     -1.303438    32A     -1.117263    33A     -1.040271
      34A     -1.010535    35A     -1.003028    36A     -0.881420
      37A     -0.865148    38A     -0.857811    39A     -0.822083
      40A     -0.811198    41A     -0.751714    42A     -0.745547
      43A     -0.731021    44A     -0.727452    45A     -0.707079
      46A     -0.686901    47A     -0.677709    48A     -0.673800
      49A     -0.663987    50A     -0.660866    51A     -0.643502
      52A     -0.634930    53A     -0.627218    54A     -0.615430
      55A     -0.605314    56A     -0.598546    57A     -0.580099
      58A     -0.575441    59A     -0.571207    60A     -0.560717
      61A     -0.556696    62A     -0.548410    63A     -0.541045
      64A     -0.536751    65A     -0.529808    66A     -0.519719
      67A     -0.513502    68A     -0.504534    69A     -0.495897
      70A     -0.484259    71A     -0.479385    72A     -0.476247
      73A     -0.467308    74A     -0.457221    75A     -0.449142
      76A     -0.435509

  @DF-RHF Final Energy: -1327.85795439638241

   => Energetics <=

    Nuclear Repulsion Energy =           1771.9540219566254109
    One-Electron Energy =               -5356.0425990847425055
    Two-Electron Energy =                2256.2306227317349112
    Total Energy =                      -1327.8579543963824108
  Basis Set: (AUG-CC-PVTZ AUX)
    Blend: AUG-CC-PVTZ-RI
    Molecular point group: c1

    Geometry (in Angstrom), charge = 0, multiplicity = 1:

       Center              X                  Y                   Z               Mass
    ------------   -----------------  -----------------  -----------------  -----------------
         P           -2.291773561810    -0.941181678842     0.344140085359    30.973761998420
         O           -0.983830561810    -0.202700678842     0.937751085359    15.994914619570
         O            1.340572438190    -1.676621678842     1.230313085359    15.994914619570
         O            0.077027438190     2.358465321158     0.461630085359    15.994914619570
         O            3.066837438190    -2.188210678842    -0.809127914641    15.994914619570
         O            2.845657438190     2.501974321158     0.370997085359    15.994914619570
         O            4.194010438190     0.434258321158    -0.973411914641    15.994914619570
         O           -2.828540561810     0.032212321158    -0.808068914641    15.994914619570
         O           -3.260798561810    -0.724420678842     1.621133085359    15.994914619570
         O           -2.120670561810    -2.344782678842    -0.100205914641    15.994914619570
         C            0.116484438190     0.028870321158     0.015781085359    12.000000000000
         C            0.951614438190    -1.245343678842    -0.076262914641    12.000000000000
         C            0.935034338190     1.230697921158     0.576846885359    12.000000000000
         C            2.257982438190    -1.015445678842    -0.818574914641    12.000000000000
         C            2.175397438190     1.395333321158    -0.228578914641    12.000000000000
         C            3.024164438190     0.147566321158    -0.210859914641    12.000000000000
         C           -3.125890561810     1.430459321158    -0.489423914641    12.000000000000
         C           -3.537994561810     2.084026321158    -1.784656914641    12.000000000000
         H           -0.284769561810     0.297662321158    -0.970775914641     1.007825032230
         H            0.368591438190    -2.030502678842    -0.572569914641     1.007825032230
         H            1.155442438190     0.996738321158     1.611618085359     1.007825032230
         H            2.059256438190    -0.789798678842    -1.873293914641     1.007825032230
         H            1.915309438190     1.635148321158    -1.274120914641     1.007825032230
         H            3.294177438190    -0.095670678842     0.827108085359     1.007825032230
         H            0.520097438190    -1.889170678842     1.710972085359     1.007825032230
         H            0.689437138190     3.086048321158     0.687154785359     1.007825032230
         H            2.971865438190    -2.548512678842     0.094116085359     1.007825032230
         H            3.719751438190     2.548047321158    -0.059406914641     1.007825032230
         H            4.638049438190    -0.424972678842    -1.097624914641     1.007825032230
         H           -3.810072561810    -1.523476678842     1.734190085359     1.007825032230
         H           -3.932223561810     1.444402321158     0.248848085359     1.007825032230
         H           -2.231439561810     1.891741321158    -0.059633914641     1.007825032230
         H           -3.802198561810     3.129743321158    -1.603208914641     1.007825032230
         H           -2.718873561810     2.052184321158    -2.505412914641     1.007825032230
         H           -4.402621561810     1.573184321158    -2.213261914641     1.007825032230

  Basis Set: AUG-CC-PVTZ
    Blend: AUG-CC-PVTZ
  Basis Set: (AUG-CC-PVTZ AUX)
    Blend: AUG-CC-PVTZ-JKFIT
	 Reference Energy          =   -1327.8579543963824108 [Eh]
	 Singles Energy            =      -0.0000000000000000 [Eh]
	 Same-Spin Energy          =      -1.0147924105627222 [Eh]
	 Opposite-Spin Energy      =      -3.0766210879286522 [Eh]
	 Correlation Energy        =      -4.0914134984913746 [Eh]
	 Total Energy              =   -1331.9493678948738307 [Eh]

	 ================> DF-SCS-MP2 Energies <==================
	-----------------------------------------------------------
	 SCS Same-Spin Scale       =       0.3333333333333333 [-]
	 SCS Opposite-Spin Scale   =       1.2000000000000000 [-]
	 SCS Same-Spin Energy      =      -0.3382641368542407 [Eh]
	 SCS Opposite-Spin Energy  =      -3.6919453055143823 [Eh]
	 SCS Correlation Energy    =      -4.0302094423686228 [Eh]
	 SCS Total Energy          =   -1331.8881638387510975 [Eh]
	-----------------------------------------------------------

  Dipole Moment: [D]
     X:    -1.0530      Y:     1.8644      Z:     0.7244     Total:     2.2605

*** Psi4 exiting successfully. Buy a developer a beer!
