                               Psi4 1.3.2 release

  ==> Input File <==

--------------------------------------------------------------------------
#psi4
#
memory 32 gb

molecule  {
0 1
  P       -2.2900960    -0.9400430     0.3446780
  O       -0.9891822    -0.1988150     0.9501922
  O        1.3422500    -1.6754830     1.2308510
  O        0.0787050     2.3596040     0.4621680
  O        3.0685150    -2.1870720    -0.8085900
  O        2.8473350     2.5031130     0.3715350
  O        4.1956880     0.4353970    -0.9728740
  O       -2.8268630     0.0333510    -0.8075310
  O       -3.2486896    -0.7165220     1.6283612
  O       -2.1189930    -2.3436440    -0.0996680
  C        0.1181620     0.0300090     0.0163190
  C        0.9532920    -1.2442050    -0.0757250
  C        0.8985890     1.2026440     0.5648510
  C        2.2596600    -1.0143070    -0.8180370
  C        2.1770750     1.3964720    -0.2280410
  C        3.0258420     0.1487050    -0.2103220
  C       -3.1242130     1.4315980    -0.4888860
  C       -3.5363170     2.0851650    -1.7841190
  H       -0.2830920     0.2988010    -0.9702380
  H        0.3702690    -2.0293640    -0.5720320
  H        1.1571200     0.9978770     1.6121560
  H        2.0609340    -0.7886600    -1.8727560
  H        1.9169870     1.6362870    -1.2735830
  H        3.2958550    -0.0945320     0.8276460
  H        0.5217750    -1.8880320     1.7115100
  H        0.6655400     3.1093110     0.6831840
  H        2.9735430    -2.5473740     0.0946540
  H        3.7214290     2.5491860    -0.0588690
  H        4.6397270    -0.4238340    -1.0970870
  H       -3.8083950    -1.5223380     1.7347280
  H       -3.9305460     1.4455410     0.2493860
  H       -2.2297620     1.8928800    -0.0590960
  H       -3.8005210     3.1308820    -1.6026710
  H       -2.7171960     2.0533230    -2.5048750
  H       -4.4009440     1.5743230    -2.2127240
units angstrom
no_reorient  #important for SAPT in psi4, default
symmetry c1  #important for SAPT in psi4, default
}

set PROPERTIES_ORIGIN ["COM"]
properties('MP2/aug-cc-pvtz', properties = ['dipole'])
--------------------------------------------------------------------------

    Molecular point group: c1
  Charge       = 0
  Multiplicity = 1
  Basis Set: AUG-CC-PVTZ
    Blend: AUG-CC-PVTZ
  Basis Set: (AUG-CC-PVTZ AUX)
    Blend: AUG-CC-PVTZ-JKFIT

    Orbital Energies [Eh]
    ---------------------

    Doubly Occupied:

       1A    -80.116003     2A    -20.614673     3A    -20.606556
       4A    -20.598982     5A    -20.583256     6A    -20.576980
       7A    -20.574943     8A    -20.574312     9A    -20.573515
      10A    -20.523908    11A    -11.321673    12A    -11.304168
      13A    -11.299785    14A    -11.299243    15A    -11.298940
      16A    -11.296941    17A    -11.291690    18A    -11.229813
      19A     -7.631545    20A     -5.530090    21A     -5.529639
      22A     -5.528462    23A     -1.458506    24A     -1.410162
      25A     -1.394075    26A     -1.391727    27A     -1.385763
      28A     -1.371981    29A     -1.364136    30A     -1.353966
      31A     -1.303946    32A     -1.119450    33A     -1.040326
      34A     -1.012059    35A     -1.003707    36A     -0.879044
      37A     -0.864802    38A     -0.859001    39A     -0.820636
      40A     -0.810757    41A     -0.751405    42A     -0.744329
      43A     -0.730761    44A     -0.727069    45A     -0.706448
      46A     -0.687042    47A     -0.678330    48A     -0.673609
      49A     -0.662248    50A     -0.660644    51A     -0.642533
      52A     -0.634462    53A     -0.626776    54A     -0.615433
      55A     -0.602770    56A     -0.598720    57A     -0.581882
      58A     -0.574617    59A     -0.570724    60A     -0.559453
      61A     -0.556938    62A     -0.548429    63A     -0.541020
      64A     -0.536869    65A     -0.529672    66A     -0.521812
      67A     -0.513081    68A     -0.504526    69A     -0.497056
      70A     -0.485432    71A     -0.479933    72A     -0.476801
      73A     -0.462856    74A     -0.456082    75A     -0.450592
      76A     -0.436575

  @DF-RHF Final Energy: -1327.85969170548083

   => Energetics <=

    Nuclear Repulsion Energy =           1772.1670616010894719
    One-Electron Energy =               -5356.5013250155207061
    Two-Electron Energy =                2256.4745717089504069
    Total Energy =                      -1327.8596917054805999
  Basis Set: (AUG-CC-PVTZ AUX)
    Blend: AUG-CC-PVTZ-RI
    Molecular point group: c1

    Geometry (in Angstrom), charge = 0, multiplicity = 1:

       Center              X                  Y                   Z               Mass
    ------------   -----------------  -----------------  -----------------  -----------------
         P           -2.290284878177    -0.940570869278     0.343645571158    30.973761998420
         O           -0.989371078177    -0.199342869278     0.949159771158    15.994914619570
         O            1.342061121823    -1.676010869278     1.229818571158    15.994914619570
         O            0.078516121823     2.359076130722     0.461135571158    15.994914619570
         O            3.068326121823    -2.187599869278    -0.809622428842    15.994914619570
         O            2.847146121823     2.502585130722     0.370502571158    15.994914619570
         O            4.195499121823     0.434869130722    -0.973906428842    15.994914619570
         O           -2.827051878177     0.032823130722    -0.808563428842    15.994914619570
         O           -3.248878478177    -0.717049869278     1.627328771158    15.994914619570
         O           -2.119181878177    -2.344171869278    -0.100700428842    15.994914619570
         C            0.117973121823     0.029481130722     0.015286571158    12.000000000000
         C            0.953103121823    -1.244732869278    -0.076757428842    12.000000000000
         C            0.898400121823     1.202116130722     0.563818571158    12.000000000000
         C            2.259471121823    -1.014834869278    -0.819069428842    12.000000000000
         C            2.176886121823     1.395944130722    -0.229073428842    12.000000000000
         C            3.025653121823     0.148177130722    -0.211354428842    12.000000000000
         C           -3.124401878177     1.431070130722    -0.489918428842    12.000000000000
         C           -3.536505878177     2.084637130722    -1.785151428842    12.000000000000
         H           -0.283280878177     0.298273130722    -0.971270428842     1.007825032230
         H            0.370080121823    -2.029891869278    -0.573064428842     1.007825032230
         H            1.156931121823     0.997349130722     1.611123571158     1.007825032230
         H            2.060745121823    -0.789187869278    -1.873788428842     1.007825032230
         H            1.916798121823     1.635759130722    -1.274615428842     1.007825032230
         H            3.295666121823    -0.095059869278     0.826613571158     1.007825032230
         H            0.521586121823    -1.888559869278     1.710477571158     1.007825032230
         H            0.665351121823     3.108783130722     0.682151571158     1.007825032230
         H            2.973354121823    -2.547901869278     0.093621571158     1.007825032230
         H            3.721240121823     2.548658130722    -0.059901428842     1.007825032230
         H            4.639538121823    -0.424361869278    -1.098119428842     1.007825032230
         H           -3.808583878177    -1.522865869278     1.733695571158     1.007825032230
         H           -3.930734878177     1.445013130722     0.248353571158     1.007825032230
         H           -2.229950878177     1.892352130722    -0.060128428842     1.007825032230
         H           -3.800709878177     3.130354130722    -1.603703428842     1.007825032230
         H           -2.717384878177     2.052795130722    -2.505907428842     1.007825032230
         H           -4.401132878177     1.573795130722    -2.213756428842     1.007825032230

  Basis Set: AUG-CC-PVTZ
    Blend: AUG-CC-PVTZ
  Basis Set: (AUG-CC-PVTZ AUX)
    Blend: AUG-CC-PVTZ-JKFIT
	 Reference Energy          =   -1327.8596917054808273 [Eh]
	 Singles Energy            =      -0.0000000000000000 [Eh]
	 Same-Spin Energy          =      -1.0148894691261141 [Eh]
	 Opposite-Spin Energy      =      -3.0768933520121835 [Eh]
	 Correlation Energy        =      -4.0917828211382972 [Eh]
	 Total Energy              =   -1331.9514745266192222 [Eh]

	 ================> DF-SCS-MP2 Energies <==================
	-----------------------------------------------------------
	 SCS Same-Spin Scale       =       0.3333333333333333 [-]
	 SCS Opposite-Spin Scale   =       1.2000000000000000 [-]
	 SCS Same-Spin Energy      =      -0.3382964897087047 [Eh]
	 SCS Opposite-Spin Energy  =      -3.6922720224146199 [Eh]
	 SCS Correlation Energy    =      -4.0305685121233248 [Eh]
	 SCS Total Energy          =   -1331.8902602176042365 [Eh]
	-----------------------------------------------------------

  Dipole Moment: [D]
     X:    -1.0905      Y:     1.8493      Z:     0.6812     Total:     2.2523

*** Psi4 exiting successfully. Buy a developer a beer!
