                               Psi4 1.3.2 release

  ==> Input File <==

--------------------------------------------------------------------------
#psi4
#
memory 32 gb

molecule  {
0 1
  P       -2.2900960    -0.9400430     0.3446780
  O       -0.9821530    -0.2015620     0.9382890
  O        1.2697106    -1.6805773     1.2486195
  O        0.0787050     2.3596040     0.4621680
  O        3.0685150    -2.1870720    -0.8085900
  O        2.8473350     2.5031130     0.3715350
  O        4.1956880     0.4353970    -0.9728740
  O       -2.8268630     0.0333510    -0.8075310
  O       -3.2591210    -0.7232820     1.6216710
  O       -2.1189930    -2.3436440    -0.0996680
  C        0.1181620     0.0300090     0.0163190
  C        0.9532920    -1.2442050    -0.0757250
  C        0.8985890     1.2026440     0.5648510
  C        2.2172064    -0.9929997    -0.8818849
  C        2.1770750     1.3964720    -0.2280410
  C        3.0258420     0.1487050    -0.2103220
  C       -3.1242130     1.4315980    -0.4888860
  C       -3.5363170     2.0851650    -1.7841190
  H       -0.2830920     0.2988010    -0.9702380
  H        0.3702690    -2.0293640    -0.5720320
  H        1.1571200     0.9978770     1.6121560
  H        2.0609340    -0.7886600    -1.8727560
  H        1.9169870     1.6362870    -1.2735830
  H        3.2958550    -0.0945320     0.8276460
  H        0.5217750    -1.8880320     1.7115100
  H        0.6655400     3.1093110     0.6831840
  H        2.9735430    -2.5473740     0.0946540
  H        3.7214290     2.5491860    -0.0588690
  H        4.6397270    -0.4238340    -1.0970870
  H       -3.8083950    -1.5223380     1.7347280
  H       -3.9305460     1.4455410     0.2493860
  H       -2.2297620     1.8928800    -0.0590960
  H       -3.8005210     3.1308820    -1.6026710
  H       -2.7171960     2.0533230    -2.5048750
  H       -4.4009440     1.5743230    -2.2127240
units angstrom
no_reorient  #important for SAPT in psi4, default
symmetry c1  #important for SAPT in psi4, default
}

set PROPERTIES_ORIGIN ["COM"]
properties('MP2/aug-cc-pvtz', properties = ['dipole'])
--------------------------------------------------------------------------

    Molecular point group: c1
  Charge       = 0
  Multiplicity = 1
  Basis Set: AUG-CC-PVTZ
    Blend: AUG-CC-PVTZ
  Basis Set: (AUG-CC-PVTZ AUX)
    Blend: AUG-CC-PVTZ-JKFIT

    Orbital Energies [Eh]
    ---------------------

    Doubly Occupied:

       1A    -80.116038     2A    -20.613991     3A    -20.605432
       4A    -20.598376     5A    -20.576891     6A    -20.574994
       7A    -20.574965     8A    -20.573588     9A    -20.570776
      10A    -20.522462    11A    -11.319891    12A    -11.306451
      13A    -11.301794    14A    -11.299056    15A    -11.298721
      16A    -11.296719    17A    -11.295156    18A    -11.229736
      19A     -7.631480    20A     -5.529987    21A     -5.529614
      22A     -5.528412    23A     -1.459566    24A     -1.412593
      25A     -1.397040    26A     -1.390359    27A     -1.385961
      28A     -1.374694    29A     -1.360948    30A     -1.349004
      31A     -1.302879    32A     -1.122189    33A     -1.040185
      34A     -1.011767    35A     -1.008075    36A     -0.880032
      37A     -0.864817    38A     -0.864437    39A     -0.823903
      40A     -0.817665    41A     -0.751664    42A     -0.743562
      43A     -0.731896    44A     -0.728944    45A     -0.707545
      46A     -0.686485    47A     -0.684424    48A     -0.672621
      49A     -0.662744    50A     -0.658685    51A     -0.643271
      52A     -0.636114    53A     -0.625624    54A     -0.617201
      55A     -0.605315    56A     -0.601234    57A     -0.582542
      58A     -0.575988    59A     -0.568504    60A     -0.560764
      61A     -0.558078    62A     -0.548462    63A     -0.542945
      64A     -0.536448    65A     -0.530525    66A     -0.521597
      67A     -0.512385    68A     -0.505952    69A     -0.496428
      70A     -0.483876    71A     -0.479070    72A     -0.475736
      73A     -0.462158    74A     -0.456258    75A     -0.449966
      76A     -0.432877

  @DF-RHF Final Energy: -1327.85212602845741

   => Energetics <=

    Nuclear Repulsion Energy =           1772.2851741388883511
    One-Electron Energy =               -5356.6775423955014048
    Two-Electron Energy =                2256.5402422281554209
    Total Energy =                      -1327.8521260284574055
  Basis Set: (AUG-CC-PVTZ AUX)
    Blend: AUG-CC-PVTZ-RI
    Molecular point group: c1

    Geometry (in Angstrom), charge = 0, multiplicity = 1:

       Center              X                  Y                   Z               Mass
    ------------   -----------------  -----------------  -----------------  -----------------
         P           -2.284299609454    -0.940647731649     0.346351140303    30.973761998420
         O           -0.976356609454    -0.202166731649     0.939962140303    15.994914619570
         O            1.275506990546    -1.681182031649     1.250292640303    15.994914619570
         O            0.084501390546     2.358999268351     0.463841140303    15.994914619570
         O            3.074311390546    -2.187676731649    -0.806916859697    15.994914619570
         O            2.853131390546     2.502508268351     0.373208140303    15.994914619570
         O            4.201484390546     0.434792268351    -0.971200859697    15.994914619570
         O           -2.821066609454     0.032746268351    -0.805857859697    15.994914619570
         O           -3.253324609454    -0.723886731649     1.623344140303    15.994914619570
         O           -2.113196609454    -2.344248731649    -0.097994859697    15.994914619570
         C            0.123958390546     0.029404268351     0.017992140303    12.000000000000
         C            0.959088390546    -1.244809731649    -0.074051859697    12.000000000000
         C            0.904385390546     1.202039268351     0.566524140303    12.000000000000
         C            2.223002790546    -0.993604431649    -0.880211759697    12.000000000000
         C            2.182871390546     1.395867268351    -0.226367859697    12.000000000000
         C            3.031638390546     0.148100268351    -0.208648859697    12.000000000000
         C           -3.118416609454     1.430993268351    -0.487212859697    12.000000000000
         C           -3.530520609454     2.084560268351    -1.782445859697    12.000000000000
         H           -0.277295609454     0.298196268351    -0.968564859697     1.007825032230
         H            0.376065390546    -2.029968731649    -0.570358859697     1.007825032230
         H            1.162916390546     0.997272268351     1.613829140303     1.007825032230
         H            2.066730390546    -0.789264731649    -1.871082859697     1.007825032230
         H            1.922783390546     1.635682268351    -1.271909859697     1.007825032230
         H            3.301651390546    -0.095136731649     0.829319140303     1.007825032230
         H            0.527571390546    -1.888636731649     1.713183140303     1.007825032230
         H            0.671336390546     3.108706268351     0.684857140303     1.007825032230
         H            2.979339390546    -2.547978731649     0.096327140303     1.007825032230
         H            3.727225390546     2.548581268351    -0.057195859697     1.007825032230
         H            4.645523390546    -0.424438731649    -1.095413859697     1.007825032230
         H           -3.802598609454    -1.522942731649     1.736401140303     1.007825032230
         H           -3.924749609454     1.444936268351     0.251059140303     1.007825032230
         H           -2.223965609454     1.892275268351    -0.057422859697     1.007825032230
         H           -3.794724609454     3.130277268351    -1.600997859697     1.007825032230
         H           -2.711399609454     2.052718268351    -2.503201859697     1.007825032230
         H           -4.395147609454     1.573718268351    -2.211050859697     1.007825032230

  Basis Set: AUG-CC-PVTZ
    Blend: AUG-CC-PVTZ
  Basis Set: (AUG-CC-PVTZ AUX)
    Blend: AUG-CC-PVTZ-JKFIT
	 Reference Energy          =   -1327.8521260284574055 [Eh]
	 Singles Energy            =      -0.0000000000000000 [Eh]
	 Same-Spin Energy          =      -1.0132262436164075 [Eh]
	 Opposite-Spin Energy      =      -3.0739621140121463 [Eh]
	 Correlation Energy        =      -4.0871883576285537 [Eh]
	 Total Energy              =   -1331.9393143860859254 [Eh]

	 ================> DF-SCS-MP2 Energies <==================
	-----------------------------------------------------------
	 SCS Same-Spin Scale       =       0.3333333333333333 [-]
	 SCS Opposite-Spin Scale   =       1.2000000000000000 [-]
	 SCS Same-Spin Energy      =      -0.3377420812054691 [Eh]
	 SCS Opposite-Spin Energy  =      -3.6887545368145753 [Eh]
	 SCS Correlation Energy    =      -4.0264966180200448 [Eh]
	 SCS Total Energy          =   -1331.8786226464774245 [Eh]
	-----------------------------------------------------------

  Dipole Moment: [D]
     X:    -1.0247      Y:     1.9669      Z:     0.5880     Total:     2.2944

*** Psi4 exiting successfully. Buy a developer a beer!
