                               Psi4 1.3.2 release

  ==> Input File <==

--------------------------------------------------------------------------
#psi4
#
memory 32 gb

molecule  {
0 1
  P       -2.2900960    -0.9400430     0.3446780
  O       -0.9974884    -0.1782784     0.9424434
  O        1.3422500    -1.6754830     1.2308510
  O        0.0787050     2.3596040     0.4621680
  O        3.0685150    -2.1870720    -0.8085900
  O        2.8473350     2.5031130     0.3715350
  O        4.1956880     0.4353970    -0.9728740
  O       -2.8268630     0.0333510    -0.8075310
  O       -3.2591210    -0.7232820     1.6216710
  O       -2.1439764    -2.3443389    -0.1063403
  C        0.1181620     0.0300090     0.0163190
  C        0.9532920    -1.2442050    -0.0757250
  C        0.8985890     1.2026440     0.5648510
  C        2.2596600    -1.0143070    -0.8180370
  C        2.1770750     1.3964720    -0.2280410
  C        3.0258420     0.1487050    -0.2103220
  C       -3.1242130     1.4315980    -0.4888860
  C       -3.5363170     2.0851650    -1.7841190
  H       -0.2830920     0.2988010    -0.9702380
  H        0.3702690    -2.0293640    -0.5720320
  H        1.1571200     0.9978770     1.6121560
  H        2.0609340    -0.7886600    -1.8727560
  H        1.9169870     1.6362870    -1.2735830
  H        3.2958550    -0.0945320     0.8276460
  H        0.5217750    -1.8880320     1.7115100
  H        0.6655400     3.1093110     0.6831840
  H        2.9735430    -2.5473740     0.0946540
  H        3.7214290     2.5491860    -0.0588690
  H        4.6397270    -0.4238340    -1.0970870
  H       -3.8083950    -1.5223380     1.7347280
  H       -3.9305460     1.4455410     0.2493860
  H       -2.2297620     1.8928800    -0.0590960
  H       -3.8005210     3.1308820    -1.6026710
  H       -2.7171960     2.0533230    -2.5048750
  H       -4.4009440     1.5743230    -2.2127240
units angstrom
no_reorient  #important for SAPT in psi4, default
symmetry c1  #important for SAPT in psi4, default
}

set PROPERTIES_ORIGIN ["COM"]
properties('MP2/aug-cc-pvtz', properties = ['dipole'])
--------------------------------------------------------------------------

    Molecular point group: c1
  Charge       = 0
  Multiplicity = 1
  Basis Set: AUG-CC-PVTZ
    Blend: AUG-CC-PVTZ
  Basis Set: (AUG-CC-PVTZ AUX)
    Blend: AUG-CC-PVTZ-JKFIT

    Orbital Energies [Eh]
    ---------------------

    Doubly Occupied:

       1A    -80.116076     2A    -20.612776     3A    -20.608440
       4A    -20.596909     5A    -20.584751     6A    -20.577311
       7A    -20.575845     8A    -20.574854     9A    -20.573701
      10A    -20.524362    11A    -11.322486    12A    -11.305726
      13A    -11.300834    14A    -11.299381    15A    -11.298087
      16A    -11.297335    17A    -11.292332    18A    -11.229022
      19A     -7.631587    20A     -5.530120    21A     -5.529697
      22A     -5.528515    23A     -1.459087    24A     -1.411026
      25A     -1.394668    26A     -1.393003    27A     -1.385255
      28A     -1.372883    29A     -1.364793    30A     -1.354565
      31A     -1.304217    32A     -1.120258    33A     -1.039383
      34A     -1.012878    35A     -1.004564    36A     -0.880164
      37A     -0.864188    38A     -0.859704    39A     -0.821585
      40A     -0.811513    41A     -0.752313    42A     -0.745389
      43A     -0.731515    44A     -0.726787    45A     -0.707700
      46A     -0.687291    47A     -0.679172    48A     -0.673306
      49A     -0.662684    50A     -0.660714    51A     -0.643352
      52A     -0.634920    53A     -0.627291    54A     -0.615418
      55A     -0.603084    56A     -0.599401    57A     -0.582021
      58A     -0.574639    59A     -0.571186    60A     -0.559597
      61A     -0.557581    62A     -0.548106    63A     -0.540689
      64A     -0.537445    65A     -0.529373    66A     -0.522513
      67A     -0.512845    68A     -0.504983    69A     -0.497001
      70A     -0.485830    71A     -0.479299    72A     -0.476544
      73A     -0.463798    74A     -0.456522    75A     -0.451477
      76A     -0.437476

  @DF-RHF Final Energy: -1327.86049456911633

   => Energetics <=

    Nuclear Repulsion Energy =           1771.8496338805650794
    One-Electron Energy =               -5355.8139663717274743
    Two-Electron Energy =                2256.1038379220458410
    Total Energy =                      -1327.8604945691163266
  Basis Set: (AUG-CC-PVTZ AUX)
    Blend: AUG-CC-PVTZ-RI
    Molecular point group: c1

    Geometry (in Angstrom), charge = 0, multiplicity = 1:

       Center              X                  Y                   Z               Mass
    ------------   -----------------  -----------------  -----------------  -----------------
         P           -2.287857220092    -0.941297245499     0.344817800021    30.973761998420
         O           -0.995249620092    -0.179532645499     0.942583200021    15.994914619570
         O            1.344488779908    -1.676737245499     1.230990800021    15.994914619570
         O            0.080943779908     2.358349754501     0.462307800021    15.994914619570
         O            3.070753779908    -2.188326245499    -0.808450199979    15.994914619570
         O            2.849573779908     2.501858754501     0.371674800021    15.994914619570
         O            4.197926779908     0.434142754501    -0.972734199979    15.994914619570
         O           -2.824624220092     0.032096754501    -0.807391199979    15.994914619570
         O           -3.256882220092    -0.724536245499     1.621810800021    15.994914619570
         O           -2.141737620092    -2.345593145499    -0.106200499979    15.994914619570
         C            0.120400779908     0.028754754501     0.016458800021    12.000000000000
         C            0.955530779908    -1.245459245499    -0.075585199979    12.000000000000
         C            0.900827779908     1.201389754501     0.564990800021    12.000000000000
         C            2.261898779908    -1.015561245499    -0.817897199979    12.000000000000
         C            2.179313779908     1.395217754501    -0.227901199979    12.000000000000
         C            3.028080779908     0.147450754501    -0.210182199979    12.000000000000
         C           -3.121974220092     1.430343754501    -0.488746199979    12.000000000000
         C           -3.534078220092     2.083910754501    -1.783979199979    12.000000000000
         H           -0.280853220092     0.297546754501    -0.970098199979     1.007825032230
         H            0.372507779908    -2.030618245499    -0.571892199979     1.007825032230
         H            1.159358779908     0.996622754501     1.612295800021     1.007825032230
         H            2.063172779908    -0.789914245499    -1.872616199979     1.007825032230
         H            1.919225779908     1.635032754501    -1.273443199979     1.007825032230
         H            3.298093779908    -0.095786245499     0.827785800021     1.007825032230
         H            0.524013779908    -1.889286245499     1.711649800021     1.007825032230
         H            0.667778779908     3.108056754501     0.683323800021     1.007825032230
         H            2.975781779908    -2.548628245499     0.094793800021     1.007825032230
         H            3.723667779908     2.547931754501    -0.058729199979     1.007825032230
         H            4.641965779908    -0.425088245499    -1.096947199979     1.007825032230
         H           -3.806156220092    -1.523592245499     1.734867800021     1.007825032230
         H           -3.928307220092     1.444286754501     0.249525800021     1.007825032230
         H           -2.227523220092     1.891625754501    -0.058956199979     1.007825032230
         H           -3.798282220092     3.129627754501    -1.602531199979     1.007825032230
         H           -2.714957220092     2.052068754501    -2.504735199979     1.007825032230
         H           -4.398705220092     1.573068754501    -2.212584199979     1.007825032230

  Basis Set: AUG-CC-PVTZ
    Blend: AUG-CC-PVTZ
  Basis Set: (AUG-CC-PVTZ AUX)
    Blend: AUG-CC-PVTZ-JKFIT
	 Reference Energy          =   -1327.8604945691163266 [Eh]
	 Singles Energy            =      -0.0000000000000000 [Eh]
	 Same-Spin Energy          =      -1.0147178888987261 [Eh]
	 Opposite-Spin Energy      =      -3.0765060399464348 [Eh]
	 Correlation Energy        =      -4.0912239288451611 [Eh]
	 Total Energy              =   -1331.9517184979615649 [Eh]

	 ================> DF-SCS-MP2 Energies <==================
	-----------------------------------------------------------
	 SCS Same-Spin Scale       =       0.3333333333333333 [-]
	 SCS Opposite-Spin Scale   =       1.2000000000000000 [-]
	 SCS Same-Spin Energy      =      -0.3382392962995753 [Eh]
	 SCS Opposite-Spin Energy  =      -3.6918072479357216 [Eh]
	 SCS Correlation Energy    =      -4.0300465442352973 [Eh]
	 SCS Total Energy          =   -1331.8905411133516736 [Eh]
	-----------------------------------------------------------

  Dipole Moment: [D]
     X:    -0.9276      Y:     1.8104      Z:     0.7239     Total:     2.1592

*** Psi4 exiting successfully. Buy a developer a beer!
