                               Psi4 1.3.2 release

  ==> Input File <==

--------------------------------------------------------------------------
#psi4
#
memory 32 gb

molecule  {
0 1
  P       -2.2900960    -0.9400430     0.3446780
  O       -0.9821530    -0.2015620     0.9382890
  O        1.3422500    -1.6754830     1.2308510
  O        0.0787050     2.3596040     0.4621680
  O        3.0685150    -2.1870720    -0.8085900
  O        2.8473350     2.5031130     0.3715350
  O        4.1956880     0.4353970    -0.9728740
  O       -2.8268630     0.0333510    -0.8075310
  O       -3.2591210    -0.7232820     1.6216710
  O       -2.1189930    -2.3436440    -0.0996680
  C        0.1172343     0.0361457     0.0046788
  C        0.9532920    -1.2442050    -0.0757250
  C        0.8985890     1.2026440     0.5648510
  C        2.2596600    -1.0143070    -0.8180370
  C        2.1770750     1.3964720    -0.2280410
  C        3.0258420     0.1487050    -0.2103220
  C       -3.1242130     1.4315980    -0.4888860
  C       -3.5363170     2.0851650    -1.7841190
  H       -0.2830920     0.2988010    -0.9702380
  H        0.3702690    -2.0293640    -0.5720320
  H        1.1615672     1.0063487     1.6126707
  H        2.0609340    -0.7886600    -1.8727560
  H        1.9169870     1.6362870    -1.2735830
  H        3.2958550    -0.0945320     0.8276460
  H        0.5217750    -1.8880320     1.7115100
  H        0.6655400     3.1093110     0.6831840
  H        2.9735430    -2.5473740     0.0946540
  H        3.7214290     2.5491860    -0.0588690
  H        4.6397270    -0.4238340    -1.0970870
  H       -3.8083950    -1.5223380     1.7347280
  H       -3.9305460     1.4455410     0.2493860
  H       -2.2297620     1.8928800    -0.0590960
  H       -3.8005210     3.1308820    -1.6026710
  H       -2.7171960     2.0533230    -2.5048750
  H       -4.4009440     1.5743230    -2.2127240
units angstrom
no_reorient  #important for SAPT in psi4, default
symmetry c1  #important for SAPT in psi4, default
}

set PROPERTIES_ORIGIN ["COM"]
properties('MP2/aug-cc-pvtz', properties = ['dipole'])
--------------------------------------------------------------------------

    Molecular point group: c1
  Charge       = 0
  Multiplicity = 1
  Basis Set: AUG-CC-PVTZ
    Blend: AUG-CC-PVTZ
  Basis Set: (AUG-CC-PVTZ AUX)
    Blend: AUG-CC-PVTZ-JKFIT

    Orbital Energies [Eh]
    ---------------------

    Doubly Occupied:

       1A    -80.116389     2A    -20.614373     3A    -20.606325
       4A    -20.598783     5A    -20.583447     6A    -20.576947
       7A    -20.574528     8A    -20.574184     9A    -20.573362
      10A    -20.523116    11A    -11.320811    12A    -11.303968
      13A    -11.299340    14A    -11.299293    15A    -11.298908
      16A    -11.296726    17A    -11.291538    18A    -11.229877
      19A     -7.631859    20A     -5.530367    21A     -5.529988
      22A     -5.528790    23A     -1.459269    24A     -1.410466
      25A     -1.394283    26A     -1.392667    27A     -1.386632
      28A     -1.372309    29A     -1.363996    30A     -1.353858
      31A     -1.303473    32A     -1.119209    33A     -1.040418
      34A     -1.012029    35A     -1.003469    36A     -0.879773
      37A     -0.864954    38A     -0.858740    39A     -0.822209
      40A     -0.811730    41A     -0.751475    42A     -0.745474
      43A     -0.731420    44A     -0.727909    45A     -0.707807
      46A     -0.687094    47A     -0.677887    48A     -0.673801
      49A     -0.662273    50A     -0.660916    51A     -0.642580
      52A     -0.634862    53A     -0.626928    54A     -0.615336
      55A     -0.602951    56A     -0.598606    57A     -0.581883
      58A     -0.575146    59A     -0.570969    60A     -0.559429
      61A     -0.556738    62A     -0.548642    63A     -0.541146
      64A     -0.536749    65A     -0.530680    66A     -0.521866
      67A     -0.513088    68A     -0.504705    69A     -0.497147
      70A     -0.485541    71A     -0.479650    72A     -0.476405
      73A     -0.461995    74A     -0.456024    75A     -0.450019
      76A     -0.436355

  @DF-RHF Final Energy: -1327.86112673954858

   => Energetics <=

    Nuclear Repulsion Energy =           1772.3038573119974899
    One-Electron Energy =               -5356.7621687159071371
    Two-Electron Energy =                2256.5971846643610661
    Total Energy =                      -1327.8611267395485811
  Basis Set: (AUG-CC-PVTZ AUX)
    Blend: AUG-CC-PVTZ-RI
    Molecular point group: c1

    Geometry (in Angstrom), charge = 0, multiplicity = 1:

       Center              X                  Y                   Z               Mass
    ------------   -----------------  -----------------  -----------------  -----------------
         P           -2.290072880389    -0.940328263519     0.345161095609    30.973761998420
         O           -0.982129880389    -0.201847263519     0.938772095609    15.994914619570
         O            1.342273119611    -1.675768263519     1.231334095609    15.994914619570
         O            0.078728119611     2.359318736481     0.462651095609    15.994914619570
         O            3.068538119611    -2.187357263519    -0.808106904391    15.994914619570
         O            2.847358119611     2.502827736481     0.372018095609    15.994914619570
         O            4.195711119611     0.435111736481    -0.972390904391    15.994914619570
         O           -2.826839880389     0.033065736481    -0.807047904391    15.994914619570
         O           -3.259097880389    -0.723567263519     1.622154095609    15.994914619570
         O           -2.118969880389    -2.343929263519    -0.099184904391    15.994914619570
         C            0.117257419611     0.035860436481     0.005161895609    12.000000000000
         C            0.953315119611    -1.244490263519    -0.075241904391    12.000000000000
         C            0.898612119611     1.202358736481     0.565334095609    12.000000000000
         C            2.259683119611    -1.014592263519    -0.817553904391    12.000000000000
         C            2.177098119611     1.396186736481    -0.227557904391    12.000000000000
         C            3.025865119611     0.148419736481    -0.209838904391    12.000000000000
         C           -3.124189880389     1.431312736481    -0.488402904391    12.000000000000
         C           -3.536293880389     2.084879736481    -1.783635904391    12.000000000000
         H           -0.283068880389     0.298515736481    -0.969754904391     1.007825032230
         H            0.370292119611    -2.029649263519    -0.571548904391     1.007825032230
         H            1.161590319611     1.006063436481     1.613153795609     1.007825032230
         H            2.060957119611    -0.788945263519    -1.872272904391     1.007825032230
         H            1.917010119611     1.636001736481    -1.273099904391     1.007825032230
         H            3.295878119611    -0.094817263519     0.828129095609     1.007825032230
         H            0.521798119611    -1.888317263519     1.711993095609     1.007825032230
         H            0.665563119611     3.109025736481     0.683667095609     1.007825032230
         H            2.973566119611    -2.547659263519     0.095137095609     1.007825032230
         H            3.721452119611     2.548900736481    -0.058385904391     1.007825032230
         H            4.639750119611    -0.424119263519    -1.096603904391     1.007825032230
         H           -3.808371880389    -1.522623263519     1.735211095609     1.007825032230
         H           -3.930522880389     1.445255736481     0.249869095609     1.007825032230
         H           -2.229738880389     1.892594736481    -0.058612904391     1.007825032230
         H           -3.800497880389     3.130596736481    -1.602187904391     1.007825032230
         H           -2.717172880389     2.053037736481    -2.504391904391     1.007825032230
         H           -4.400920880389     1.574037736481    -2.212240904391     1.007825032230

  Basis Set: AUG-CC-PVTZ
    Blend: AUG-CC-PVTZ
  Basis Set: (AUG-CC-PVTZ AUX)
    Blend: AUG-CC-PVTZ-JKFIT
	 Reference Energy          =   -1327.8611267395485811 [Eh]
	 Singles Energy            =      -0.0000000000000000 [Eh]
	 Same-Spin Energy          =      -1.0145859479588639 [Eh]
	 Opposite-Spin Energy      =      -3.0761633314450147 [Eh]
	 Correlation Energy        =      -4.0907492794038784 [Eh]
	 Total Energy              =   -1331.9518760189523618 [Eh]

	 ================> DF-SCS-MP2 Energies <==================
	-----------------------------------------------------------
	 SCS Same-Spin Scale       =       0.3333333333333333 [-]
	 SCS Opposite-Spin Scale   =       1.2000000000000000 [-]
	 SCS Same-Spin Energy      =      -0.3381953159862879 [Eh]
	 SCS Opposite-Spin Energy  =      -3.6913959977340176 [Eh]
	 SCS Correlation Energy    =      -4.0295913137203057 [Eh]
	 SCS Total Energy          =   -1331.8907180532689836 [Eh]
	-----------------------------------------------------------

  Dipole Moment: [D]
     X:    -1.0916      Y:     1.8763      Z:     0.7110     Total:     2.2842

*** Psi4 exiting successfully. Buy a developer a beer!
