                               Psi4 1.3.2 release

  ==> Input File <==

--------------------------------------------------------------------------
#psi4
#
memory 32 gb

molecule  {
0 1
  P       -2.2900960    -0.9400430     0.3446780
  O       -0.9821530    -0.2015620     0.9382890
  O        1.3422500    -1.6754830     1.2308510
  O        0.0787050     2.3596040     0.4621680
  O        3.0685150    -2.1870720    -0.8085900
  O        2.8473350     2.5031130     0.3715350
  O        4.1956880     0.4353970    -0.9728740
  O       -2.8268630     0.0333510    -0.8075310
  O       -3.2591210    -0.7232820     1.6216710
  O       -2.1189930    -2.3436440    -0.0996680
  C        0.1181620     0.0300090     0.0163190
  C        0.9532920    -1.2442050    -0.0757250
  C        0.8985890     1.2026440     0.5648510
  C        2.2596600    -1.0143070    -0.8180370
  C        2.1770750     1.3964720    -0.2280410
  C        3.0258420     0.1487050    -0.2103220
  C       -3.1242130     1.4315980    -0.4888860
  C       -3.5363170     2.0851650    -1.7841190
  H       -0.2830920     0.2988010    -0.9702380
  H        0.3702690    -2.0293640    -0.5720320
  H        1.1571200     0.9978770     1.6121560
  H        2.0609340    -0.7886600    -1.8727560
  H        1.9169870     1.6362870    -1.2735830
  H        3.2958550    -0.0945320     0.8276460
  H        0.5217750    -1.8880320     1.7115100
  H        0.6655400     3.1093110     0.6831840
  H        2.9735430    -2.5473740     0.0946540
  H        3.7214290     2.5491860    -0.0588690
  H        4.6852634    -0.5119486    -1.1098251
  H       -3.8083950    -1.5223380     1.7347280
  H       -3.9305460     1.4455410     0.2493860
  H       -2.2297620     1.8928800    -0.0590960
  H       -3.8005210     3.1308820    -1.6026710
  H       -2.7171960     2.0533230    -2.5048750
  H       -4.4009440     1.5743230    -2.2127240
units angstrom
no_reorient  #important for SAPT in psi4, default
symmetry c1  #important for SAPT in psi4, default
}

set PROPERTIES_ORIGIN ["COM"]
properties('MP2/aug-cc-pvtz', properties = ['dipole'])
--------------------------------------------------------------------------

    Molecular point group: c1
  Charge       = 0
  Multiplicity = 1
  Basis Set: AUG-CC-PVTZ
    Blend: AUG-CC-PVTZ
  Basis Set: (AUG-CC-PVTZ AUX)
    Blend: AUG-CC-PVTZ-JKFIT

    Orbital Energies [Eh]
    ---------------------

    Doubly Occupied:

       1A    -80.116792     2A    -20.614603     3A    -20.606824
       4A    -20.598789     5A    -20.582909     6A    -20.580046
       7A    -20.576212     8A    -20.575318     9A    -20.573158
      10A    -20.523296    11A    -11.320490    12A    -11.303213
      13A    -11.299238    14A    -11.298859    15A    -11.298276
      16A    -11.296143    17A    -11.290118    18A    -11.229733
      19A     -7.632242    20A     -5.530748    21A     -5.530375
      22A     -5.529173    23A     -1.460116    24A     -1.409681
      25A     -1.392976    26A     -1.391302    27A     -1.386449
      28A     -1.367829    29A     -1.363688    30A     -1.343808
      31A     -1.303693    32A     -1.117538    33A     -1.040283
      34A     -1.008750    35A     -1.003100    36A     -0.878529
      37A     -0.864283    38A     -0.857051    39A     -0.821353
      40A     -0.810196    41A     -0.750985    42A     -0.741398
      43A     -0.728438    44A     -0.728111    45A     -0.707356
      46A     -0.685398    47A     -0.677504    48A     -0.671212
      49A     -0.660940    50A     -0.655660    51A     -0.642145
      52A     -0.631748    53A     -0.626862    54A     -0.614574
      55A     -0.602803    56A     -0.597492    57A     -0.580663
      58A     -0.575351    59A     -0.570526    60A     -0.559018
      61A     -0.554914    62A     -0.548174    63A     -0.540869
      64A     -0.532284    65A     -0.529408    66A     -0.520974
      67A     -0.512594    68A     -0.503261    69A     -0.496818
      70A     -0.484374    71A     -0.479688    72A     -0.476435
      73A     -0.462063    74A     -0.453889    75A     -0.449725
      76A     -0.435139

  @DF-RHF Final Energy: -1327.84822782067704

   => Energetics <=

    Nuclear Repulsion Energy =           1771.8482502850702076
    One-Electron Energy =               -5355.9610119428798498
    Two-Electron Energy =                2256.2645338371326034
    Total Energy =                      -1327.8482278206770388
  Basis Set: (AUG-CC-PVTZ AUX)
    Blend: AUG-CC-PVTZ-RI
    Molecular point group: c1

    Geometry (in Angstrom), charge = 0, multiplicity = 1:

       Center              X                  Y                   Z               Mass
    ------------   -----------------  -----------------  -----------------  -----------------
         P           -2.290255283147    -0.939734700074     0.344722556939    30.973761998420
         O           -0.982312283147    -0.201253700074     0.938333556939    15.994914619570
         O            1.342090716853    -1.675174700074     1.230895556939    15.994914619570
         O            0.078545716853     2.359912299926     0.462212556939    15.994914619570
         O            3.068355716853    -2.186763700074    -0.808545443061    15.994914619570
         O            2.847175716853     2.503421299926     0.371579556939    15.994914619570
         O            4.195528716853     0.435705299926    -0.972829443061    15.994914619570
         O           -2.827022283147     0.033659299926    -0.807486443061    15.994914619570
         O           -3.259280283147    -0.722973700074     1.621715556939    15.994914619570
         O           -2.119152283147    -2.343335700074    -0.099623443061    15.994914619570
         C            0.118002716853     0.030317299926     0.016363556939    12.000000000000
         C            0.953132716853    -1.243896700074    -0.075680443061    12.000000000000
         C            0.898429716853     1.202952299926     0.564895556939    12.000000000000
         C            2.259500716853    -1.013998700074    -0.817992443061    12.000000000000
         C            2.176915716853     1.396780299926    -0.227996443061    12.000000000000
         C            3.025682716853     0.149013299926    -0.210277443061    12.000000000000
         C           -3.124372283147     1.431906299926    -0.488841443061    12.000000000000
         C           -3.536476283147     2.085473299926    -1.784074443061    12.000000000000
         H           -0.283251283147     0.299109299926    -0.970193443061     1.007825032230
         H            0.370109716853    -2.029055700074    -0.571987443061     1.007825032230
         H            1.156960716853     0.998185299926     1.612200556939     1.007825032230
         H            2.060774716853    -0.788351700074    -1.872711443061     1.007825032230
         H            1.916827716853     1.636595299926    -1.273538443061     1.007825032230
         H            3.295695716853    -0.094223700074     0.827690556939     1.007825032230
         H            0.521615716853    -1.887723700074     1.711554556939     1.007825032230
         H            0.665380716853     3.109619299926     0.683228556939     1.007825032230
         H            2.973383716853    -2.547065700074     0.094698556939     1.007825032230
         H            3.721269716853     2.549494299926    -0.058824443061     1.007825032230
         H            4.685104116853    -0.511640300074    -1.109780543061     1.007825032230
         H           -3.808554283147    -1.522029700074     1.734772556939     1.007825032230
         H           -3.930705283147     1.445849299926     0.249430556939     1.007825032230
         H           -2.229921283147     1.893188299926    -0.059051443061     1.007825032230
         H           -3.800680283147     3.131190299926    -1.602626443061     1.007825032230
         H           -2.717355283147     2.053631299926    -2.504830443061     1.007825032230
         H           -4.401103283147     1.574631299926    -2.212679443061     1.007825032230

  Basis Set: AUG-CC-PVTZ
    Blend: AUG-CC-PVTZ
  Basis Set: (AUG-CC-PVTZ AUX)
    Blend: AUG-CC-PVTZ-JKFIT
	 Reference Energy          =   -1327.8482278206770388 [Eh]
	 Singles Energy            =      -0.0000000000000000 [Eh]
	 Same-Spin Energy          =      -1.0159127382610453 [Eh]
	 Opposite-Spin Energy      =      -3.0793902411760969 [Eh]
	 Correlation Energy        =      -4.0953029794371423 [Eh]
	 Total Energy              =   -1331.9435308001141038 [Eh]

	 ================> DF-SCS-MP2 Energies <==================
	-----------------------------------------------------------
	 SCS Same-Spin Scale       =       0.3333333333333333 [-]
	 SCS Opposite-Spin Scale   =       1.2000000000000000 [-]
	 SCS Same-Spin Energy      =      -0.3386375794203484 [Eh]
	 SCS Opposite-Spin Energy  =      -3.6952682894113162 [Eh]
	 SCS Correlation Energy    =      -4.0339058688316651 [Eh]
	 SCS Total Energy          =   -1331.8821336895086915 [Eh]
	-----------------------------------------------------------

  Dipole Moment: [D]
     X:    -1.0595      Y:     1.7680      Z:     0.6998     Total:     2.1767

*** Psi4 exiting successfully. Buy a developer a beer!
