                               Psi4 1.3.2 release

  ==> Input File <==

--------------------------------------------------------------------------
#psi4
#
memory 32 gb

molecule  {
0 1
  P       -2.2900960    -0.9400430     0.3446780
  O       -0.9821530    -0.2015620     0.9382890
  O        1.3422500    -1.6754830     1.2308510
  O        0.0787050     2.3596040     0.4621680
  O        3.0685150    -2.1870720    -0.8085900
  O        2.8473350     2.5031130     0.3715350
  O        4.1956880     0.4353970    -0.9728740
  O       -2.8268630     0.0333510    -0.8075310
  O       -3.2591210    -0.7232820     1.6216710
  O       -2.1189930    -2.3436440    -0.0996680
  C        0.1181620     0.0300090     0.0163190
  C        0.9532920    -1.2442050    -0.0757250
  C        0.8985890     1.2026440     0.5648510
  C        2.2596600    -1.0143070    -0.8180370
  C        2.1770750     1.3964720    -0.2280410
  C        3.0258420     0.1487050    -0.2103220
  C       -3.1242130     1.4315980    -0.4888860
  C       -3.5363170     2.0851650    -1.7841190
  H       -0.2830920     0.2988010    -0.9702380
  H        0.3702690    -2.0293640    -0.5720320
  H        1.1571200     0.9978770     1.6121560
  H        2.0609340    -0.7886600    -1.8727560
  H        1.9169870     1.6362870    -1.2735830
  H        3.2467505    -0.0502970     0.6388815
  H        0.5217750    -1.8880320     1.7115100
  H        0.6655400     3.1093110     0.6831840
  H        2.9735430    -2.5473740     0.0946540
  H        3.7214290     2.5491860    -0.0588690
  H        4.6397270    -0.4238340    -1.0970870
  H       -3.8083950    -1.5223380     1.7347280
  H       -3.9305460     1.4455410     0.2493860
  H       -2.2297620     1.8928800    -0.0590960
  H       -3.8005210     3.1308820    -1.6026710
  H       -2.7171960     2.0533230    -2.5048750
  H       -4.4009440     1.5743230    -2.2127240
units angstrom
no_reorient  #important for SAPT in psi4, default
symmetry c1  #important for SAPT in psi4, default
}

set PROPERTIES_ORIGIN ["COM"]
properties('MP2/aug-cc-pvtz', properties = ['dipole'])
--------------------------------------------------------------------------

    Molecular point group: c1
  Charge       = 0
  Multiplicity = 1
  Basis Set: AUG-CC-PVTZ
    Blend: AUG-CC-PVTZ
  Basis Set: (AUG-CC-PVTZ AUX)
    Blend: AUG-CC-PVTZ-JKFIT

    Orbital Energies [Eh]
    ---------------------

    Doubly Occupied:

       1A    -80.117026     2A    -20.614814     3A    -20.607152
       4A    -20.598984     5A    -20.584099     6A    -20.576994
       7A    -20.574977     8A    -20.573608     9A    -20.571651
      10A    -20.523516    11A    -11.320866    12A    -11.303594
      13A    -11.299413    14A    -11.298846    15A    -11.298028
      16A    -11.295564    17A    -11.267724    18A    -11.229858
      19A     -7.632476    20A     -5.530982    21A     -5.530609
      22A     -5.529407    23A     -1.460390    24A     -1.411371
      25A     -1.394934    26A     -1.393305    27A     -1.386917
      28A     -1.372692    29A     -1.364264    30A     -1.353578
      31A     -1.303913    32A     -1.121712    33A     -1.040619
      34A     -1.020518    35A     -1.003333    36A     -0.889727
      37A     -0.867086    38A     -0.859646    39A     -0.830453
      40A     -0.815702    41A     -0.755331    42A     -0.747313
      43A     -0.732316    44A     -0.729450    45A     -0.711757
      46A     -0.688562    47A     -0.678743    48A     -0.673797
      49A     -0.667724    50A     -0.661494    51A     -0.643289
      52A     -0.636559    53A     -0.627814    54A     -0.615960
      55A     -0.603782    56A     -0.601842    57A     -0.582197
      58A     -0.575756    59A     -0.572585    60A     -0.560006
      61A     -0.556918    62A     -0.549487    63A     -0.541355
      64A     -0.537222    65A     -0.530504    66A     -0.522046
      67A     -0.513162    68A     -0.507629    69A     -0.497164
      70A     -0.486204    71A     -0.479929    72A     -0.476901
      73A     -0.462793    74A     -0.459557    75A     -0.450236
      76A     -0.437610

  @DF-RHF Final Energy: -1327.82999249650607

   => Energetics <=

    Nuclear Repulsion Energy =           1773.7577508451943231
    One-Electron Energy =               -5359.4847951520487186
    Two-Electron Energy =                2257.8970518103487848
    Total Energy =                      -1327.8299924965058381
  Basis Set: (AUG-CC-PVTZ AUX)
    Blend: AUG-CC-PVTZ-RI
    Molecular point group: c1

    Geometry (in Angstrom), charge = 0, multiplicity = 1:

       Center              X                  Y                   Z               Mass
    ------------   -----------------  -----------------  -----------------  -----------------
         P           -2.289924167648    -0.940197745162     0.345338411916    30.973761998420
         O           -0.981981167648    -0.201716745162     0.938949411916    15.994914619570
         O            1.342421832352    -1.675637745162     1.231511411916    15.994914619570
         O            0.078876832352     2.359449254838     0.462828411916    15.994914619570
         O            3.068686832352    -2.187226745162    -0.807929588084    15.994914619570
         O            2.847506832352     2.502958254838     0.372195411916    15.994914619570
         O            4.195859832352     0.435242254838    -0.972213588084    15.994914619570
         O           -2.826691167648     0.033196254838    -0.806870588084    15.994914619570
         O           -3.258949167648    -0.723436745162     1.622331411916    15.994914619570
         O           -2.118821167648    -2.343798745162    -0.099007588084    15.994914619570
         C            0.118333832352     0.029854254838     0.016979411916    12.000000000000
         C            0.953463832352    -1.244359745162    -0.075064588084    12.000000000000
         C            0.898760832352     1.202489254838     0.565511411916    12.000000000000
         C            2.259831832352    -1.014461745162    -0.817376588084    12.000000000000
         C            2.177246832352     1.396317254838    -0.227380588084    12.000000000000
         C            3.026013832352     0.148550254838    -0.209661588084    12.000000000000
         C           -3.124041167648     1.431443254838    -0.488225588084    12.000000000000
         C           -3.536145167648     2.085010254838    -1.783458588084    12.000000000000
         H           -0.282920167648     0.298646254838    -0.969577588084     1.007825032230
         H            0.370440832352    -2.029518745162    -0.571371588084     1.007825032230
         H            1.157291832352     0.997722254838     1.612816411916     1.007825032230
         H            2.061105832352    -0.788814745162    -1.872095588084     1.007825032230
         H            1.917158832352     1.636132254838    -1.272922588084     1.007825032230
         H            3.246922332352    -0.050451745162     0.639541911916     1.007825032230
         H            0.521946832352    -1.888186745162     1.712170411916     1.007825032230
         H            0.665711832352     3.109156254838     0.683844411916     1.007825032230
         H            2.973714832352    -2.547528745162     0.095314411916     1.007825032230
         H            3.721600832352     2.549031254838    -0.058208588084     1.007825032230
         H            4.639898832352    -0.423988745162    -1.096426588084     1.007825032230
         H           -3.808223167648    -1.522492745162     1.735388411916     1.007825032230
         H           -3.930374167648     1.445386254838     0.250046411916     1.007825032230
         H           -2.229590167648     1.892725254838    -0.058435588084     1.007825032230
         H           -3.800349167648     3.130727254838    -1.602010588084     1.007825032230
         H           -2.717024167648     2.053168254838    -2.504214588084     1.007825032230
         H           -4.400772167648     1.574168254838    -2.212063588084     1.007825032230

  Basis Set: AUG-CC-PVTZ
    Blend: AUG-CC-PVTZ
  Basis Set: (AUG-CC-PVTZ AUX)
    Blend: AUG-CC-PVTZ-JKFIT
	 Reference Energy          =   -1327.8299924965060654 [Eh]
	 Singles Energy            =      -0.0000000000000000 [Eh]
	 Same-Spin Energy          =      -1.0141988647506097 [Eh]
	 Opposite-Spin Energy      =      -3.0749706760092956 [Eh]
	 Correlation Energy        =      -4.0891695407599054 [Eh]
	 Total Energy              =   -1331.9191620372660054 [Eh]

	 ================> DF-SCS-MP2 Energies <==================
	-----------------------------------------------------------
	 SCS Same-Spin Scale       =       0.3333333333333333 [-]
	 SCS Opposite-Spin Scale   =       1.2000000000000000 [-]
	 SCS Same-Spin Energy      =      -0.3380662882502032 [Eh]
	 SCS Opposite-Spin Energy  =      -3.6899648112111545 [Eh]
	 SCS Correlation Energy    =      -4.0280310994613577 [Eh]
	 SCS Total Energy          =   -1331.8580235959673246 [Eh]
	-----------------------------------------------------------

  Dipole Moment: [D]
     X:    -1.1411      Y:     1.8445      Z:     0.7753     Total:     2.3034

*** Psi4 exiting successfully. Buy a developer a beer!
