                               Psi4 1.3.2 release

  ==> Input File <==

--------------------------------------------------------------------------
#psi4
#
memory 32 gb

molecule  {
0 1
  P       -2.2900960    -0.9400430     0.3446780
  O       -0.9821530    -0.2015620     0.9382890
  O        1.3422500    -1.6754830     1.2308510
  O        0.0796241     2.3621781     0.4868305
  O        3.0685150    -2.1870720    -0.8085900
  O        2.8473350     2.5031130     0.3715350
  O        4.1956880     0.4353970    -0.9728740
  O       -2.8268630     0.0333510    -0.8075310
  O       -3.2591210    -0.7232820     1.6216710
  O       -2.1189930    -2.3436440    -0.0996680
  C        0.1181620     0.0300090     0.0163190
  C        0.9532920    -1.2442050    -0.0757250
  C        0.8985890     1.2026440     0.5648510
  C        2.2596600    -1.0143070    -0.8180370
  C        2.1770750     1.3964720    -0.2280410
  C        3.0258420     0.1487050    -0.2103220
  C       -3.1242130     1.4315980    -0.4888860
  C       -3.5363170     2.0851650    -1.7841190
  H       -0.2830920     0.2988010    -0.9702380
  H        0.3702690    -2.0293640    -0.5720320
  H        1.1469742     1.0132352     1.6174880
  H        2.0609340    -0.7886600    -1.8727560
  H        1.9169870     1.6362870    -1.2735830
  H        3.2958550    -0.0945320     0.8276460
  H        0.5217750    -1.8880320     1.7115100
  H        0.6655400     3.1093110     0.6831840
  H        2.9735430    -2.5473740     0.0946540
  H        3.7214290     2.5491860    -0.0588690
  H        4.6397270    -0.4238340    -1.0970870
  H       -3.8083950    -1.5223380     1.7347280
  H       -3.9305460     1.4455410     0.2493860
  H       -2.2297620     1.8928800    -0.0590960
  H       -3.8005210     3.1308820    -1.6026710
  H       -2.7171960     2.0533230    -2.5048750
  H       -4.4009440     1.5743230    -2.2127240
units angstrom
no_reorient  #important for SAPT in psi4, default
symmetry c1  #important for SAPT in psi4, default
}

set PROPERTIES_ORIGIN ["COM"]
properties('MP2/aug-cc-pvtz', properties = ['dipole'])
--------------------------------------------------------------------------

    Molecular point group: c1
  Charge       = 0
  Multiplicity = 1
  Basis Set: AUG-CC-PVTZ
    Blend: AUG-CC-PVTZ
  Basis Set: (AUG-CC-PVTZ AUX)
    Blend: AUG-CC-PVTZ-JKFIT

    Orbital Energies [Eh]
    ---------------------

    Doubly Occupied:

       1A    -80.117005     2A    -20.614759     3A    -20.607115
       4A    -20.599036     5A    -20.583143     6A    -20.576946
       7A    -20.574768     8A    -20.574309     9A    -20.571767
      10A    -20.523504    11A    -11.321219    12A    -11.303804
      13A    -11.299564    14A    -11.299498    15A    -11.298573
      16A    -11.297277    17A    -11.291751    18A    -11.229978
      19A     -7.632457    20A     -5.530962    21A     -5.530590
      22A     -5.529388    23A     -1.460353    24A     -1.410943
      25A     -1.394854    26A     -1.393233    27A     -1.386944
      28A     -1.373006    29A     -1.364303    30A     -1.354103
      31A     -1.303904    32A     -1.119347    33A     -1.040571
      34A     -1.012293    35A     -1.003715    36A     -0.880376
      37A     -0.865033    38A     -0.859635    39A     -0.822403
      40A     -0.810824    41A     -0.751696    42A     -0.745598
      43A     -0.732214    44A     -0.728666    45A     -0.707998
      46A     -0.687036    47A     -0.678250    48A     -0.673811
      49A     -0.662364    50A     -0.661266    51A     -0.643284
      52A     -0.636167    53A     -0.627388    54A     -0.615583
      55A     -0.603420    56A     -0.598656    57A     -0.581858
      58A     -0.575618    59A     -0.571125    60A     -0.559460
      61A     -0.556875    62A     -0.548535    63A     -0.541314
      64A     -0.536752    65A     -0.530103    66A     -0.521526
      67A     -0.513140    68A     -0.504123    69A     -0.497126
      70A     -0.484497    71A     -0.479986    72A     -0.476697
      73A     -0.462507    74A     -0.456359    75A     -0.449924
      76A     -0.436490

  @DF-RHF Final Energy: -1327.86197911414774

   => Energetics <=

    Nuclear Repulsion Energy =           1772.2404115815159003
    One-Electron Energy =               -5356.6034533282881966
    Two-Electron Energy =                2256.5010626326243255
    Total Energy =                      -1327.8619791141477435
  Basis Set: (AUG-CC-PVTZ AUX)
    Blend: AUG-CC-PVTZ-RI
    Molecular point group: c1

    Geometry (in Angstrom), charge = 0, multiplicity = 1:

       Center              X                  Y                   Z               Mass
    ------------   -----------------  -----------------  -----------------  -----------------
         P           -2.290111504620    -0.940239645131     0.343289922693    30.973761998420
         O           -0.982168504620    -0.201758645131     0.936900922693    15.994914619570
         O            1.342234495380    -1.675679645131     1.229462922693    15.994914619570
         O            0.079608595380     2.361981454869     0.485442422693    15.994914619570
         O            3.068499495380    -2.187268645131    -0.809978077307    15.994914619570
         O            2.847319495380     2.502916354869     0.370146922693    15.994914619570
         O            4.195672495380     0.435200354869    -0.974262077307    15.994914619570
         O           -2.826878504620     0.033154354869    -0.808919077307    15.994914619570
         O           -3.259136504620    -0.723478645131     1.620282922693    15.994914619570
         O           -2.119008504620    -2.343840645131    -0.101056077307    15.994914619570
         C            0.118146495380     0.029812354869     0.014930922693    12.000000000000
         C            0.953276495380    -1.244401645131    -0.077113077307    12.000000000000
         C            0.898573495380     1.202447354869     0.563462922693    12.000000000000
         C            2.259644495380    -1.014503645131    -0.819425077307    12.000000000000
         C            2.177059495380     1.396275354869    -0.229429077307    12.000000000000
         C            3.025826495380     0.148508354869    -0.211710077307    12.000000000000
         C           -3.124228504620     1.431401354869    -0.490274077307    12.000000000000
         C           -3.536332504620     2.084968354869    -1.785507077307    12.000000000000
         H           -0.283107504620     0.298604354869    -0.971626077307     1.007825032230
         H            0.370253495380    -2.029560645131    -0.573420077307     1.007825032230
         H            1.146958695380     1.013038554869     1.616099922693     1.007825032230
         H            2.060918495380    -0.788856645131    -1.874144077307     1.007825032230
         H            1.916971495380     1.636090354869    -1.274971077307     1.007825032230
         H            3.295839495380    -0.094728645131     0.826257922693     1.007825032230
         H            0.521759495380    -1.888228645131     1.710121922693     1.007825032230
         H            0.665524495380     3.109114354869     0.681795922693     1.007825032230
         H            2.973527495380    -2.547570645131     0.093265922693     1.007825032230
         H            3.721413495380     2.548989354869    -0.060257077307     1.007825032230
         H            4.639711495380    -0.424030645131    -1.098475077307     1.007825032230
         H           -3.808410504620    -1.522534645131     1.733339922693     1.007825032230
         H           -3.930561504620     1.445344354869     0.247997922693     1.007825032230
         H           -2.229777504620     1.892683354869    -0.060484077307     1.007825032230
         H           -3.800536504620     3.130685354869    -1.604059077307     1.007825032230
         H           -2.717211504620     2.053126354869    -2.506263077307     1.007825032230
         H           -4.400959504620     1.574126354869    -2.214112077307     1.007825032230

  Basis Set: AUG-CC-PVTZ
    Blend: AUG-CC-PVTZ
  Basis Set: (AUG-CC-PVTZ AUX)
    Blend: AUG-CC-PVTZ-JKFIT
	 Reference Energy          =   -1327.8619791141477435 [Eh]
	 Singles Energy            =      -0.0000000000000000 [Eh]
	 Same-Spin Energy          =      -1.0144251661748482 [Eh]
	 Opposite-Spin Energy      =      -3.0757256938442383 [Eh]
	 Correlation Energy        =      -4.0901508600190866 [Eh]
	 Total Energy              =   -1331.9521299741668372 [Eh]

	 ================> DF-SCS-MP2 Energies <==================
	-----------------------------------------------------------
	 SCS Same-Spin Scale       =       0.3333333333333333 [-]
	 SCS Opposite-Spin Scale   =       1.2000000000000000 [-]
	 SCS Same-Spin Energy      =      -0.3381417220582827 [Eh]
	 SCS Opposite-Spin Energy  =      -3.6908708326130859 [Eh]
	 SCS Correlation Energy    =      -4.0290125546713682 [Eh]
	 SCS Total Energy          =   -1331.8909916688191970 [Eh]
	-----------------------------------------------------------

  Dipole Moment: [D]
     X:    -1.1057      Y:     1.8489      Z:     0.6745     Total:     2.2574

*** Psi4 exiting successfully. Buy a developer a beer!
