                               Psi4 1.3.2 release

  ==> Input File <==

--------------------------------------------------------------------------
#psi4
#
memory 32 gb

molecule  {
0 1
  P       -2.2900960    -0.9400430     0.3446780
  O       -0.9385554    -0.2727337     0.9247463
  O        1.3422500    -1.6754830     1.2308510
  O        0.0787050     2.3596040     0.4621680
  O        3.0685150    -2.1870720    -0.8085900
  O        2.8473350     2.5031130     0.3715350
  O        4.1956880     0.4353970    -0.9728740
  O       -2.8268630     0.0333510    -0.8075310
  O       -3.2591210    -0.7232820     1.6216710
  O       -2.0443860    -2.3389956    -0.0788473
  C        0.1181620     0.0300090     0.0163190
  C        0.9532920    -1.2442050    -0.0757250
  C        0.8985890     1.2026440     0.5648510
  C        2.2596600    -1.0143070    -0.8180370
  C        2.1770750     1.3964720    -0.2280410
  C        3.0258420     0.1487050    -0.2103220
  C       -3.1242130     1.4315980    -0.4888860
  C       -3.5363170     2.0851650    -1.7841190
  H       -0.2830920     0.2988010    -0.9702380
  H        0.3702690    -2.0293640    -0.5720320
  H        1.1571200     0.9978770     1.6121560
  H        2.0609340    -0.7886600    -1.8727560
  H        1.9169870     1.6362870    -1.2735830
  H        3.2958550    -0.0945320     0.8276460
  H        0.5217750    -1.8880320     1.7115100
  H        0.6655400     3.1093110     0.6831840
  H        2.9735430    -2.5473740     0.0946540
  H        3.7214290     2.5491860    -0.0588690
  H        4.6397270    -0.4238340    -1.0970870
  H       -3.8083950    -1.5223380     1.7347280
  H       -3.9305460     1.4455410     0.2493860
  H       -2.2297620     1.8928800    -0.0590960
  H       -3.8005210     3.1308820    -1.6026710
  H       -2.7171960     2.0533230    -2.5048750
  H       -4.4009440     1.5743230    -2.2127240
units angstrom
no_reorient  #important for SAPT in psi4, default
symmetry c1  #important for SAPT in psi4, default
}

set PROPERTIES_ORIGIN ["COM"]
properties('MP2/aug-cc-pvtz', properties = ['dipole'])
--------------------------------------------------------------------------

    Molecular point group: c1
  Charge       = 0
  Multiplicity = 1
  Basis Set: AUG-CC-PVTZ
    Blend: AUG-CC-PVTZ
  Basis Set: (AUG-CC-PVTZ AUX)
    Blend: AUG-CC-PVTZ-JKFIT

    Orbital Energies [Eh]
    ---------------------

    Doubly Occupied:

       1A    -80.119488     2A    -20.620370     3A    -20.604880
       4A    -20.602226     5A    -20.578331     6A    -20.575406
       7A    -20.572897     8A    -20.571947     9A    -20.571013
      10A    -20.520426    11A    -11.315917    12A    -11.303172
      13A    -11.297222    14A    -11.296574    15A    -11.294997
      16A    -11.294940    17A    -11.288894    18A    -11.232336
      19A     -7.634785    20A     -5.533223    21A     -5.532988
      22A     -5.531687    23A     -1.463681    24A     -1.411790
      25A     -1.396144    26A     -1.392008    27A     -1.390301
      28A     -1.371635    29A     -1.361561    30A     -1.351556
      31A     -1.302361    32A     -1.115670    33A     -1.043625
      34A     -1.009574    35A     -1.000247    36A     -0.880796
      37A     -0.866873    38A     -0.857361    39A     -0.824346
      40A     -0.808096    41A     -0.751061    42A     -0.745332
      43A     -0.732955    44A     -0.730997    45A     -0.708345
      46A     -0.687112    47A     -0.675638    48A     -0.674885
      49A     -0.662699    50A     -0.659743    51A     -0.642567
      52A     -0.634950    53A     -0.627388    54A     -0.615446
      55A     -0.604486    56A     -0.595818    57A     -0.580942
      58A     -0.578339    59A     -0.570652    60A     -0.558680
      61A     -0.554174    62A     -0.549423    63A     -0.542149
      64A     -0.534325    65A     -0.530965    66A     -0.519966
      67A     -0.513514    68A     -0.502217    69A     -0.497034
      70A     -0.483455    71A     -0.479761    72A     -0.475724
      73A     -0.458669    74A     -0.454101    75A     -0.445083
      76A     -0.432754

  @DF-RHF Final Energy: -1327.85993911186620

   => Energetics <=

    Nuclear Repulsion Energy =           1774.2687332317877917
    One-Electron Energy =               -5360.7519584885121731
    Two-Electron Energy =                2258.6232861448579570
    Total Energy =                      -1327.8599391118664244
  Basis Set: (AUG-CC-PVTZ AUX)
    Blend: AUG-CC-PVTZ-RI
    Molecular point group: c1

    Geometry (in Angstrom), charge = 0, multiplicity = 1:

       Center              X                  Y                   Z               Mass
    ------------   -----------------  -----------------  -----------------  -----------------
         P           -2.296659411572    -0.936349200686     0.344273871570    30.973761998420
         O           -0.945118811572    -0.269039900686     0.924342171570    15.994914619570
         O            1.335686588428    -1.671789200686     1.230446871570    15.994914619570
         O            0.072141588428     2.363297799314     0.461763871570    15.994914619570
         O            3.061951588428    -2.183378200686    -0.808994128430    15.994914619570
         O            2.840771588428     2.506806799314     0.371130871570    15.994914619570
         O            4.189124588428     0.439090799314    -0.973278128430    15.994914619570
         O           -2.833426411572     0.037044799314    -0.807935128430    15.994914619570
         O           -3.265684411572    -0.719588200686     1.621266871570    15.994914619570
         O           -2.050949411572    -2.335301800686    -0.079251428430    15.994914619570
         C            0.111598588428     0.033702799314     0.015914871570    12.000000000000
         C            0.946728588428    -1.240511200686    -0.076129128430    12.000000000000
         C            0.892025588428     1.206337799314     0.564446871570    12.000000000000
         C            2.253096588428    -1.010613200686    -0.818441128430    12.000000000000
         C            2.170511588428     1.400165799314    -0.228445128430    12.000000000000
         C            3.019278588428     0.152398799314    -0.210726128430    12.000000000000
         C           -3.130776411572     1.435291799314    -0.489290128430    12.000000000000
         C           -3.542880411572     2.088858799314    -1.784523128430    12.000000000000
         H           -0.289655411572     0.302494799314    -0.970642128430     1.007825032230
         H            0.363705588428    -2.025670200686    -0.572436128430     1.007825032230
         H            1.150556588428     1.001570799314     1.611751871570     1.007825032230
         H            2.054370588428    -0.784966200686    -1.873160128430     1.007825032230
         H            1.910423588428     1.639980799314    -1.273987128430     1.007825032230
         H            3.289291588428    -0.090838200686     0.827241871570     1.007825032230
         H            0.515211588428    -1.884338200686     1.711105871570     1.007825032230
         H            0.658976588428     3.113004799314     0.682779871570     1.007825032230
         H            2.966979588428    -2.543680200686     0.094249871570     1.007825032230
         H            3.714865588428     2.552879799314    -0.059273128430     1.007825032230
         H            4.633163588428    -0.420140200686    -1.097491128430     1.007825032230
         H           -3.814958411572    -1.518644200686     1.734323871570     1.007825032230
         H           -3.937109411572     1.449234799314     0.248981871570     1.007825032230
         H           -2.236325411572     1.896573799314    -0.059500128430     1.007825032230
         H           -3.807084411572     3.134575799314    -1.603075128430     1.007825032230
         H           -2.723759411572     2.057016799314    -2.505279128430     1.007825032230
         H           -4.407507411572     1.578016799314    -2.213128128430     1.007825032230

  Basis Set: AUG-CC-PVTZ
    Blend: AUG-CC-PVTZ
  Basis Set: (AUG-CC-PVTZ AUX)
    Blend: AUG-CC-PVTZ-JKFIT
	 Reference Energy          =   -1327.8599391118661970 [Eh]
	 Singles Energy            =      -0.0000000000000000 [Eh]
	 Same-Spin Energy          =      -1.0145118197707608 [Eh]
	 Opposite-Spin Energy      =      -3.0753481551569242 [Eh]
	 Correlation Energy        =      -4.0898599749276849 [Eh]
	 Total Energy              =   -1331.9497990867939734 [Eh]

	 ================> DF-SCS-MP2 Energies <==================
	-----------------------------------------------------------
	 SCS Same-Spin Scale       =       0.3333333333333333 [-]
	 SCS Opposite-Spin Scale   =       1.2000000000000000 [-]
	 SCS Same-Spin Energy      =      -0.3381706065902536 [Eh]
	 SCS Opposite-Spin Energy  =      -3.6904177861883087 [Eh]
	 SCS Correlation Energy    =      -4.0285883927785626 [Eh]
	 SCS Total Energy          =   -1331.8885275046447987 [Eh]
	-----------------------------------------------------------

  Dipole Moment: [D]
     X:    -1.6621      Y:     2.0150      Z:     0.7132     Total:     2.7077

*** Psi4 exiting successfully. Buy a developer a beer!
