                               Psi4 1.4a3.dev225

  ==> Input File <==

--------------------------------------------------------------------------
#psi4
#
memory 32 gb

molecule  {
0 1
  P       -2.3219140    -1.0563120    -0.0968450
  O       -1.0285840    -0.5623410     0.7549430
  O        1.3695440    -1.8069540     1.2202350
  O       -0.1592450     2.1412630     0.5207450
  O        3.3269040    -2.0858120    -0.6453880
  O        2.5724350     2.5270130     0.6374560
  O        4.2203020     0.6406430    -0.6358120
  O       -2.8737010     0.2643620    -0.8096810
  O       -3.3065970    -1.3497020     1.1531960
  O       -2.1044560    -2.1814480    -1.0350500
  C        0.1200290    -0.1583450    -0.0432010
  C        1.0698050    -1.3527180    -0.1046720
  C        0.7441670     1.0454510     0.6308160
  C        2.4193320    -0.9866070    -0.7068450
  C        2.0603010     1.3853380    -0.0470020
  C        3.0180900     0.2181970     0.0056710
  C       -3.2473180     1.4231610     0.0025120
  C       -3.2076300     2.6262440    -0.9075720
  H       -0.2047330     0.1313700    -1.0514980
  H        0.5965010    -2.1549610    -0.6866410
  H        0.9371260     0.8063110     1.6860210
  H        2.3054700    -0.7437210    -1.7704410
  H        1.8633300     1.6367370    -1.1028410
  H        3.2177734    -0.0465188     1.0752681
  H        0.5126160    -2.0057500     1.6426110
  H        0.3598300     2.9232990     0.7925780
  H        3.1793900    -2.4823080     0.2360710
  H        3.4672560     2.6739710     0.2770410
  H        4.7639490    -0.1654590    -0.7244900
  H       -3.7873380    -2.1826420     0.9908450
  H       -4.2474700     1.2335250     0.4005830
  H       -2.5352900     1.5309660     0.8217280
  H       -3.5402110     3.5125760    -0.3587690
  H       -2.1856630     2.7912820    -1.2511950
  H       -3.8637180     2.4807570    -1.7684970
units angstrom
no_reorient  #important for SAPT in psi4, default
symmetry c1  #important for SAPT in psi4, default
}

set PROPERTIES_ORIGIN ["COM"]
properties('MP2/aug-cc-pvtz', properties = ['dipole'])
--------------------------------------------------------------------------

    Molecular point group: c1
  Charge       = 0
  Multiplicity = 1
  Basis Set: AUG-CC-PVTZ
    Blend: AUG-CC-PVTZ
  Basis Set: (AUG-CC-PVTZ AUX)
    Blend: AUG-CC-PVTZ-JKFIT

    Orbital Energies [Eh]
    ---------------------

    Doubly Occupied:

       1A    -80.116845     2A    -20.615019     3A    -20.608107
       4A    -20.596044     5A    -20.584001     6A    -20.578532
       7A    -20.575696     8A    -20.575168     9A    -20.574663
      10A    -20.522558    11A    -11.321437    12A    -11.305281
      13A    -11.300619    14A    -11.300530    15A    -11.298594
      16A    -11.296170    17A    -11.295309    18A    -11.222920
      19A     -7.632108    20A     -5.530643    21A     -5.530141
      22A     -5.529079    23A     -1.458515    24A     -1.410917
      25A     -1.395484    26A     -1.392716    27A     -1.385208
      28A     -1.372804    29A     -1.364236    30A     -1.354357
      31A     -1.302742    32A     -1.118685    33A     -1.035527
      34A     -1.010941    35A     -1.003642    36A     -0.877332
      37A     -0.862301    38A     -0.859604    39A     -0.822466
      40A     -0.809424    41A     -0.754444    42A     -0.745630
      43A     -0.729042    44A     -0.726071    45A     -0.705425
      46A     -0.686840    47A     -0.679287    48A     -0.674281
      49A     -0.661940    50A     -0.659268    51A     -0.642129
      52A     -0.637481    53A     -0.623681    54A     -0.613085
      55A     -0.604267    56A     -0.596623    57A     -0.580801
      58A     -0.577723    59A     -0.570254    60A     -0.559844
      61A     -0.555339    62A     -0.548052    63A     -0.538702
      64A     -0.537766    65A     -0.530047    66A     -0.517717
      67A     -0.508585    68A     -0.503226    69A     -0.494664
      70A     -0.487315    71A     -0.478698    72A     -0.475509
      73A     -0.462697    74A     -0.456773    75A     -0.451031
      76A     -0.436530

  @DF-RHF Final Energy: -1327.86029261281442

   => Energetics <=

    Nuclear Repulsion Energy =           1774.4989717079665752
    One-Electron Energy =               -5361.2042640685058359
    Two-Electron Energy =                2258.8449997477246143
    Total Energy =                      -1327.8602926128146464
  Basis Set: (AUG-CC-PVTZ AUX)
    Blend: AUG-CC-PVTZ-RI
    Molecular point group: c1

    Geometry (in Angstrom), charge = 0, multiplicity = 1:

       Center              X                  Y                   Z               Mass
    ------------   -----------------  -----------------  -----------------  -----------------
         P           -2.311165094669    -1.018516400223    -0.099356312732    30.973761998420
         O           -1.017835094669    -0.524545400223     0.752431687268    15.994914619570
         O            1.380292905331    -1.769158400223     1.217723687268    15.994914619570
         O           -0.148496094669     2.179058599777     0.518233687268    15.994914619570
         O            3.337652905331    -2.048016400223    -0.647899312732    15.994914619570
         O            2.583183905331     2.564808599777     0.634944687268    15.994914619570
         O            4.231050905331     0.678438599777    -0.638323312732    15.994914619570
         O           -2.862952094669     0.302157599777    -0.812192312732    15.994914619570
         O           -3.295848094669    -1.311906400223     1.150684687268    15.994914619570
         O           -2.093707094669    -2.143652400223    -1.037561312732    15.994914619570
         C            0.130777905331    -0.120549400223    -0.045712312732    12.000000000000
         C            1.080553905331    -1.314922400223    -0.107183312732    12.000000000000
         C            0.754915905331     1.083246599777     0.628304687268    12.000000000000
         C            2.430080905331    -0.948811400223    -0.709356312732    12.000000000000
         C            2.071049905331     1.423133599777    -0.049513312732    12.000000000000
         C            3.028838905331     0.255992599777     0.003159687268    12.000000000000
         C           -3.236569094669     1.460956599777     0.000000687268    12.000000000000
         C           -3.196881094669     2.664039599777    -0.910083312732    12.000000000000
         H           -0.193984094669     0.169165599777    -1.054009312732     1.007825032230
         H            0.607249905331    -2.117165400223    -0.689152312732     1.007825032230
         H            0.947874905331     0.844106599777     1.683509687268     1.007825032230
         H            2.316218905331    -0.705925400223    -1.772952312732     1.007825032230
         H            1.874078905331     1.674532599777    -1.105352312732     1.007825032230
         H            3.228522305331    -0.008723200223     1.072756787268     1.007825032230
         H            0.523364905331    -1.967954400223     1.640099687268     1.007825032230
         H            0.370578905331     2.961094599777     0.790066687268     1.007825032230
         H            3.190138905331    -2.444512400223     0.233559687268     1.007825032230
         H            3.478004905331     2.711766599777     0.274529687268     1.007825032230
         H            4.774697905331    -0.127663400223    -0.727001312732     1.007825032230
         H           -3.776589094669    -2.144846400223     0.988333687268     1.007825032230
         H           -4.236721094669     1.271320599777     0.398071687268     1.007825032230
         H           -2.524541094669     1.568761599777     0.819216687268     1.007825032230
         H           -3.529462094669     3.550371599777    -0.361280312732     1.007825032230
         H           -2.174914094669     2.829077599777    -1.253706312732     1.007825032230
         H           -3.852969094669     2.518552599777    -1.771008312732     1.007825032230

  Basis Set: AUG-CC-PVTZ
    Blend: AUG-CC-PVTZ
  Basis Set: (AUG-CC-PVTZ AUX)
    Blend: AUG-CC-PVTZ-JKFIT
	 Reference Energy          =   -1327.8602926128144190 [Eh]
	 Singles Energy            =      -0.0000000000000000 [Eh]
	 Same-Spin Energy          =      -1.0147704819177941 [Eh]
	 Opposite-Spin Energy      =      -3.0767729778884623 [Eh]
	 Correlation Energy        =      -4.0915434598062568 [Eh]
	 Total Energy              =   -1331.9518360726206083 [Eh]

	 ================> DF-SCS-MP2 Energies <==================
	-----------------------------------------------------------
	 SCS Same-Spin Scale       =       0.3333333333333333 [-]
	 SCS Opposite-Spin Scale   =       1.2000000000000000 [-]
	 SCS Same-Spin Energy      =      -0.3382568273059313 [Eh]
	 SCS Opposite-Spin Energy  =      -3.6921275734661547 [Eh]
	 SCS Correlation Energy    =      -4.0303844007720864 [Eh]
	 SCS Total Energy          =   -1331.8906770135865827 [Eh]
	-----------------------------------------------------------

  Dipole Moment: [D]
     X:    -0.8603      Y:     1.4225      Z:     1.8687     Total:     2.5011

*** Psi4 exiting successfully. Buy a developer a beer!
