                               Psi4 1.3.2 release

  ==> Input File <==

--------------------------------------------------------------------------
#psi4
#
memory 32 gb

molecule  {
0 1
  P       -2.2900960    -0.9400430     0.3446780
  O       -0.9821530    -0.2015620     0.9382890
  O        1.3422500    -1.6754830     1.2308510
  O        0.0787050     2.3596040     0.4621680
  O        3.0685150    -2.1870720    -0.8085900
  O        2.8404144     2.5398103     0.3068913
  O        4.1956880     0.4353970    -0.9728740
  O       -2.8268630     0.0333510    -0.8075310
  O       -3.2591210    -0.7232820     1.6216710
  O       -2.1189930    -2.3436440    -0.0996680
  C        0.1181620     0.0300090     0.0163190
  C        0.9532920    -1.2442050    -0.0757250
  C        0.8985890     1.2026440     0.5648510
  C        2.2596600    -1.0143070    -0.8180370
  C        2.1770750     1.3964720    -0.2280410
  C        3.0258420     0.1487050    -0.2103220
  C       -3.1242130     1.4315980    -0.4888860
  C       -3.5363170     2.0851650    -1.7841190
  H       -0.2830920     0.2988010    -0.9702380
  H        0.3702690    -2.0293640    -0.5720320
  H        1.1571200     0.9978770     1.6121560
  H        2.0609340    -0.7886600    -1.8727560
  H        1.9412927     1.6881811    -1.2661294
  H        3.2958550    -0.0945320     0.8276460
  H        0.5217750    -1.8880320     1.7115100
  H        0.6655400     3.1093110     0.6831840
  H        2.9735430    -2.5473740     0.0946540
  H        3.7214290     2.5491860    -0.0588690
  H        4.6397270    -0.4238340    -1.0970870
  H       -3.8083950    -1.5223380     1.7347280
  H       -3.9305460     1.4455410     0.2493860
  H       -2.2297620     1.8928800    -0.0590960
  H       -3.8005210     3.1308820    -1.6026710
  H       -2.7171960     2.0533230    -2.5048750
  H       -4.4009440     1.5743230    -2.2127240
units angstrom
no_reorient  #important for SAPT in psi4, default
symmetry c1  #important for SAPT in psi4, default
}

set PROPERTIES_ORIGIN ["COM"]
properties('MP2/aug-cc-pvtz', properties = ['dipole'])
--------------------------------------------------------------------------

    Molecular point group: c1
  Charge       = 0
  Multiplicity = 1
  Basis Set: AUG-CC-PVTZ
    Blend: AUG-CC-PVTZ
  Basis Set: (AUG-CC-PVTZ AUX)
    Blend: AUG-CC-PVTZ-JKFIT

    Orbital Energies [Eh]
    ---------------------

    Doubly Occupied:

       1A    -80.117207     2A    -20.614948     3A    -20.607454
       4A    -20.599069     5A    -20.583720     6A    -20.575273
       7A    -20.574537     8A    -20.573519     9A    -20.571978
      10A    -20.523676    11A    -11.321422    12A    -11.304068
      13A    -11.300205    14A    -11.299800    15A    -11.299426
      16A    -11.296336    17A    -11.293195    18A    -11.229812
      19A     -7.632654    20A     -5.531160    21A     -5.530788
      22A     -5.529585    23A     -1.460570    24A     -1.411359
      25A     -1.395610    26A     -1.393577    27A     -1.387026
      28A     -1.373173    29A     -1.364991    30A     -1.355020
      31A     -1.304070    32A     -1.119606    33A     -1.040477
      34A     -1.012687    35A     -1.004238    36A     -0.881171
      37A     -0.865285    38A     -0.859704    39A     -0.823563
      40A     -0.811108    41A     -0.751291    42A     -0.745897
      43A     -0.731665    44A     -0.729449    45A     -0.709386
      46A     -0.687470    47A     -0.678779    48A     -0.673850
      49A     -0.662963    50A     -0.661775    51A     -0.643527
      52A     -0.635152    53A     -0.627385    54A     -0.616014
      55A     -0.605923    56A     -0.598724    57A     -0.582497
      58A     -0.575755    59A     -0.571671    60A     -0.559447
      61A     -0.556731    62A     -0.549115    63A     -0.541208
      64A     -0.536154    65A     -0.530040    66A     -0.522185
      67A     -0.511847    68A     -0.504568    69A     -0.496942
      70A     -0.485367    71A     -0.479955    72A     -0.476863
      73A     -0.461506    74A     -0.456246    75A     -0.449545
      76A     -0.437478

  @DF-RHF Final Energy: -1327.86144358147021

   => Energetics <=

    Nuclear Repulsion Energy =           1771.9785400952498549
    One-Electron Energy =               -5356.0450985738925738
    Two-Electron Energy =                2256.2051148971727343
    Total Energy =                      -1327.8614435814702119
  Basis Set: (AUG-CC-PVTZ AUX)
    Blend: AUG-CC-PVTZ-RI
    Molecular point group: c1

    Geometry (in Angstrom), charge = 0, multiplicity = 1:

       Center              X                  Y                   Z               Mass
    ------------   -----------------  -----------------  -----------------  -----------------
         P           -2.289796730173    -0.942262200862     0.348241327943    30.973761998420
         O           -0.981853730173    -0.203781200862     0.941852327943    15.994914619570
         O            1.342549269827    -1.677702200862     1.234414327943    15.994914619570
         O            0.079004269827     2.357384799138     0.465731327943    15.994914619570
         O            3.068814269827    -2.189291200862    -0.805026672057    15.994914619570
         O            2.840713669827     2.537591099138     0.310454627943    15.994914619570
         O            4.195987269827     0.433177799138    -0.969310672057    15.994914619570
         O           -2.826563730173     0.031131799138    -0.803967672057    15.994914619570
         O           -3.258821730173    -0.725501200862     1.625234327943    15.994914619570
         O           -2.118693730173    -2.345863200862    -0.096104672057    15.994914619570
         C            0.118461269827     0.027789799138     0.019882327943    12.000000000000
         C            0.953591269827    -1.246424200862    -0.072161672057    12.000000000000
         C            0.898888269827     1.200424799138     0.568414327943    12.000000000000
         C            2.259959269827    -1.016526200862    -0.814473672057    12.000000000000
         C            2.177374269827     1.394252799138    -0.224477672057    12.000000000000
         C            3.026141269827     0.146485799138    -0.206758672057    12.000000000000
         C           -3.123913730173     1.429378799138    -0.485322672057    12.000000000000
         C           -3.536017730173     2.082945799138    -1.780555672057    12.000000000000
         H           -0.282792730173     0.296581799138    -0.966674672057     1.007825032230
         H            0.370568269827    -2.031583200862    -0.568468672057     1.007825032230
         H            1.157419269827     0.995657799138     1.615719327943     1.007825032230
         H            2.061233269827    -0.790879200862    -1.869192672057     1.007825032230
         H            1.941591969827     1.685961899138    -1.262566072057     1.007825032230
         H            3.296154269827    -0.096751200862     0.831209327943     1.007825032230
         H            0.522074269827    -1.890251200862     1.715073327943     1.007825032230
         H            0.665839269827     3.107091799138     0.686747327943     1.007825032230
         H            2.973842269827    -2.549593200862     0.098217327943     1.007825032230
         H            3.721728269827     2.546966799138    -0.055305672057     1.007825032230
         H            4.640026269827    -0.426053200862    -1.093523672057     1.007825032230
         H           -3.808095730173    -1.524557200862     1.738291327943     1.007825032230
         H           -3.930246730173     1.443321799138     0.252949327943     1.007825032230
         H           -2.229462730173     1.890660799138    -0.055532672057     1.007825032230
         H           -3.800221730173     3.128662799138    -1.599107672057     1.007825032230
         H           -2.716896730173     2.051103799138    -2.501311672057     1.007825032230
         H           -4.400644730173     1.572103799138    -2.209160672057     1.007825032230

  Basis Set: AUG-CC-PVTZ
    Blend: AUG-CC-PVTZ
  Basis Set: (AUG-CC-PVTZ AUX)
    Blend: AUG-CC-PVTZ-JKFIT
	 Reference Energy          =   -1327.8614435814702119 [Eh]
	 Singles Energy            =      -0.0000000000000000 [Eh]
	 Same-Spin Energy          =      -1.0141750298929189 [Eh]
	 Opposite-Spin Energy      =      -3.0751533258307591 [Eh]
	 Correlation Energy        =      -4.0893283557236781 [Eh]
	 Total Energy              =   -1331.9507719371938492 [Eh]

	 ================> DF-SCS-MP2 Energies <==================
	-----------------------------------------------------------
	 SCS Same-Spin Scale       =       0.3333333333333333 [-]
	 SCS Opposite-Spin Scale   =       1.2000000000000000 [-]
	 SCS Same-Spin Energy      =      -0.3380583432976396 [Eh]
	 SCS Opposite-Spin Energy  =      -3.6901839909969105 [Eh]
	 SCS Correlation Energy    =      -4.0282423342945499 [Eh]
	 SCS Total Energy          =   -1331.8896859157648578 [Eh]
	-----------------------------------------------------------

  Dipole Moment: [D]
     X:    -1.1101      Y:     1.7470      Z:     0.8271     Total:     2.2290

*** Psi4 exiting successfully. Buy a developer a beer!
