                               Psi4 1.3.2 release

  ==> Input File <==

--------------------------------------------------------------------------
#psi4
#
memory 32 gb

molecule  {
0 1
  P       -2.2900960    -0.9400430     0.3446780
  O       -0.9821530    -0.2015620     0.9382890
  O        1.3422500    -1.6754830     1.2308510
  O        0.0787050     2.3596040     0.4621680
  O        3.0685150    -2.1870720    -0.8085900
  O        2.8473350     2.5031130     0.3715350
  O        4.1956880     0.4353970    -0.9728740
  O       -2.8670515     0.0507035    -0.7727942
  O       -3.2883690    -0.6853398     1.5917880
  O       -2.1189930    -2.3436440    -0.0996680
  C        0.1181620     0.0300090     0.0163190
  C        0.9532920    -1.2442050    -0.0757250
  C        0.8985890     1.2026440     0.5648510
  C        2.2596600    -1.0143070    -0.8180370
  C        2.1770750     1.3964720    -0.2280410
  C        3.0258420     0.1487050    -0.2103220
  C       -3.1242130     1.4315980    -0.4888860
  C       -3.5363170     2.0851650    -1.7841190
  H       -0.2830920     0.2988010    -0.9702380
  H        0.3702690    -2.0293640    -0.5720320
  H        1.1571200     0.9978770     1.6121560
  H        2.0609340    -0.7886600    -1.8727560
  H        1.9169870     1.6362870    -1.2735830
  H        3.2958550    -0.0945320     0.8276460
  H        0.5217750    -1.8880320     1.7115100
  H        0.6655400     3.1093110     0.6831840
  H        2.9735430    -2.5473740     0.0946540
  H        3.7214290     2.5491860    -0.0588690
  H        4.6397270    -0.4238340    -1.0970870
  H       -3.8083950    -1.5223380     1.7347280
  H       -3.9305460     1.4455410     0.2493860
  H       -2.2297620     1.8928800    -0.0590960
  H       -3.8005210     3.1308820    -1.6026710
  H       -2.7171960     2.0533230    -2.5048750
  H       -4.4009440     1.5743230    -2.2127240
units angstrom
no_reorient  #important for SAPT in psi4, default
symmetry c1  #important for SAPT in psi4, default
}

set PROPERTIES_ORIGIN ["COM"]
properties('MP2/aug-cc-pvtz', properties = ['dipole'])
--------------------------------------------------------------------------

    Molecular point group: c1
  Charge       = 0
  Multiplicity = 1
  Basis Set: AUG-CC-PVTZ
    Blend: AUG-CC-PVTZ
  Basis Set: (AUG-CC-PVTZ AUX)
    Blend: AUG-CC-PVTZ-JKFIT

    Orbital Energies [Eh]
    ---------------------

    Doubly Occupied:

       1A    -80.118604     2A    -20.614458     3A    -20.609129
       4A    -20.594953     5A    -20.584431     6A    -20.577276
       7A    -20.575454     8A    -20.574701     9A    -20.573649
      10A    -20.528722    11A    -11.322340    12A    -11.304855
      13A    -11.300277    14A    -11.299398    15A    -11.297312
      16A    -11.293675    17A    -11.292142    18A    -11.227100
      19A     -7.633971    20A     -5.532523    21A     -5.532173
      22A     -5.530847    23A     -1.461677    24A     -1.412040
      25A     -1.395754    26A     -1.393748    27A     -1.385950
      28A     -1.373845    29A     -1.364620    30A     -1.354509
      31A     -1.308226    32A     -1.120033    33A     -1.038054
      34A     -1.012813    35A     -1.004355    36A     -0.881315
      37A     -0.865492    38A     -0.859797    39A     -0.819891
      40A     -0.811538    41A     -0.752377    42A     -0.745027
      43A     -0.731605    44A     -0.729872    45A     -0.707278
      46A     -0.687741    47A     -0.679521    48A     -0.674812
      49A     -0.662869    50A     -0.661561    51A     -0.643583
      52A     -0.636226    53A     -0.627006    54A     -0.616250
      55A     -0.604465    56A     -0.599299    57A     -0.583566
      58A     -0.574140    59A     -0.572095    60A     -0.560269
      61A     -0.557445    62A     -0.548717    63A     -0.540194
      64A     -0.537379    65A     -0.530082    66A     -0.522305
      67A     -0.510397    68A     -0.504076    69A     -0.495206
      70A     -0.485661    71A     -0.482787    72A     -0.474238
      73A     -0.463771    74A     -0.456436    75A     -0.451217
      76A     -0.437304

  @DF-RHF Final Energy: -1327.85932539228338

   => Energetics <=

    Nuclear Repulsion Energy =           1772.6217155945982995
    One-Electron Energy =               -5357.3052409046131288
    Two-Electron Energy =                2256.8241999177312209
    Total Energy =                      -1327.8593253922836084
  Basis Set: (AUG-CC-PVTZ AUX)
    Blend: AUG-CC-PVTZ-RI
    Molecular point group: c1

    Geometry (in Angstrom), charge = 0, multiplicity = 1:

       Center              X                  Y                   Z               Mass
    ------------   -----------------  -----------------  -----------------  -----------------
         P           -2.286240426793    -0.943113283223     0.344408478023    30.973761998420
         O           -0.978297426793    -0.204632283223     0.938019478023    15.994914619570
         O            1.346105573207    -1.678553283223     1.230581478023    15.994914619570
         O            0.082560573207     2.356533716777     0.461898478023    15.994914619570
         O            3.072370573207    -2.190142283223    -0.808859521977    15.994914619570
         O            2.851190573207     2.500042716777     0.371265478023    15.994914619570
         O            4.199543573207     0.432326716777    -0.973143521977    15.994914619570
         O           -2.863195926793     0.047633216777    -0.773063721977    15.994914619570
         O           -3.284513426793    -0.688410083223     1.591518478023    15.994914619570
         O           -2.115137426793    -2.346714283223    -0.099937521977    15.994914619570
         C            0.122017573207     0.026938716777     0.016049478023    12.000000000000
         C            0.957147573207    -1.247275283223    -0.075994521977    12.000000000000
         C            0.902444573207     1.199573716777     0.564581478023    12.000000000000
         C            2.263515573207    -1.017377283223    -0.818306521977    12.000000000000
         C            2.180930573207     1.393401716777    -0.228310521977    12.000000000000
         C            3.029697573207     0.145634716777    -0.210591521977    12.000000000000
         C           -3.120357426793     1.428527716777    -0.489155521977    12.000000000000
         C           -3.532461426793     2.082094716777    -1.784388521977    12.000000000000
         H           -0.279236426793     0.295730716777    -0.970507521977     1.007825032230
         H            0.374124573207    -2.032434283223    -0.572301521977     1.007825032230
         H            1.160975573207     0.994806716777     1.611886478023     1.007825032230
         H            2.064789573207    -0.791730283223    -1.873025521977     1.007825032230
         H            1.920842573207     1.633216716777    -1.273852521977     1.007825032230
         H            3.299710573207    -0.097602283223     0.827376478023     1.007825032230
         H            0.525630573207    -1.891102283223     1.711240478023     1.007825032230
         H            0.669395573207     3.106240716777     0.682914478023     1.007825032230
         H            2.977398573207    -2.550444283223     0.094384478023     1.007825032230
         H            3.725284573207     2.546115716777    -0.059138521977     1.007825032230
         H            4.643582573207    -0.426904283223    -1.097356521977     1.007825032230
         H           -3.804539426793    -1.525408283223     1.734458478023     1.007825032230
         H           -3.926690426793     1.442470716777     0.249116478023     1.007825032230
         H           -2.225906426793     1.889809716777    -0.059365521977     1.007825032230
         H           -3.796665426793     3.127811716777    -1.602940521977     1.007825032230
         H           -2.713340426793     2.050252716777    -2.505144521977     1.007825032230
         H           -4.397088426793     1.571252716777    -2.212993521977     1.007825032230

  Basis Set: AUG-CC-PVTZ
    Blend: AUG-CC-PVTZ
  Basis Set: (AUG-CC-PVTZ AUX)
    Blend: AUG-CC-PVTZ-JKFIT
	 Reference Energy          =   -1327.8593253922833810 [Eh]
	 Singles Energy            =      -0.0000000000000000 [Eh]
	 Same-Spin Energy          =      -1.0148671714543991 [Eh]
	 Opposite-Spin Energy      =      -3.0762225737025024 [Eh]
	 Correlation Energy        =      -4.0910897451569017 [Eh]
	 Total Energy              =   -1331.9504151374403591 [Eh]

	 ================> DF-SCS-MP2 Energies <==================
	-----------------------------------------------------------
	 SCS Same-Spin Scale       =       0.3333333333333333 [-]
	 SCS Opposite-Spin Scale   =       1.2000000000000000 [-]
	 SCS Same-Spin Energy      =      -0.3382890571514663 [Eh]
	 SCS Opposite-Spin Energy  =      -3.6914670884430025 [Eh]
	 SCS Correlation Energy    =      -4.0297561455944688 [Eh]
	 SCS Total Energy          =   -1331.8890815378779280 [Eh]
	-----------------------------------------------------------

  Dipole Moment: [D]
     X:    -0.8807      Y:     1.6162      Z:     0.7603     Total:     1.9915

*** Psi4 exiting successfully. Buy a developer a beer!
