                               Psi4 1.3.2 release

  ==> Input File <==

--------------------------------------------------------------------------
#psi4
#
memory 32 gb

molecule  {
0 1
  P       -2.2900960    -0.9400430     0.3446780
  O       -0.9821530    -0.2015620     0.9382890
  O        1.3422500    -1.6754830     1.2308510
  O        0.0787050     2.3596040     0.4621680
  O        3.0685150    -2.1870720    -0.8085900
  O        2.8473350     2.5031130     0.3715350
  O        4.2111478     0.4903805    -0.9248326
  O       -2.8268630     0.0333510    -0.8075310
  O       -3.2591210    -0.7232820     1.6216710
  O       -2.1189930    -2.3436440    -0.0996680
  C        0.1181620     0.0300090     0.0163190
  C        0.9532920    -1.2442050    -0.0757250
  C        0.8985890     1.2026440     0.5648510
  C        2.2061040    -1.0067903    -0.7596939
  C        2.1770750     1.3964720    -0.2280410
  C        3.0258420     0.1487050    -0.2103220
  C       -3.1242130     1.4315980    -0.4888860
  C       -3.5363170     2.0851650    -1.7841190
  H       -0.2830920     0.2988010    -0.9702380
  H        0.3702690    -2.0293640    -0.5720320
  H        1.1571200     0.9978770     1.6121560
  H        2.0609340    -0.7886600    -1.8727560
  H        1.9169870     1.6362870    -1.2735830
  H        3.2958550    -0.0945320     0.8276460
  H        0.5217750    -1.8880320     1.7115100
  H        0.6655400     3.1093110     0.6831840
  H        2.9735430    -2.5473740     0.0946540
  H        3.7214290     2.5491860    -0.0588690
  H        4.6397270    -0.4238340    -1.0970870
  H       -3.8083950    -1.5223380     1.7347280
  H       -3.9305460     1.4455410     0.2493860
  H       -2.2297620     1.8928800    -0.0590960
  H       -3.8005210     3.1308820    -1.6026710
  H       -2.7171960     2.0533230    -2.5048750
  H       -4.4009440     1.5743230    -2.2127240
units angstrom
no_reorient  #important for SAPT in psi4, default
symmetry c1  #important for SAPT in psi4, default
}

set PROPERTIES_ORIGIN ["COM"]
properties('MP2/aug-cc-pvtz', properties = ['dipole'])
--------------------------------------------------------------------------

    Molecular point group: c1
  Charge       = 0
  Multiplicity = 1
  Basis Set: AUG-CC-PVTZ
    Blend: AUG-CC-PVTZ
  Basis Set: (AUG-CC-PVTZ AUX)
    Blend: AUG-CC-PVTZ-JKFIT

    Orbital Energies [Eh]
    ---------------------

    Doubly Occupied:

       1A    -80.117971     2A    -20.615537     3A    -20.608514
       4A    -20.599698     5A    -20.584626     6A    -20.582131
       7A    -20.574865     8A    -20.574248     9A    -20.573443
      10A    -20.524592    11A    -11.322901    12A    -11.304400
      13A    -11.302989    14A    -11.299901    15A    -11.298680
      16A    -11.295144    17A    -11.292373    18A    -11.230236
      19A     -7.633425    20A     -5.531930    21A     -5.531557
      22A     -5.530357    23A     -1.461415    24A     -1.411372
      25A     -1.394121    26A     -1.391493    27A     -1.387193
      28A     -1.371104    29A     -1.359925    30A     -1.347921
      31A     -1.304965    32A     -1.126256    33A     -1.040948
      34A     -1.013501    35A     -1.011151    36A     -0.882289
      37A     -0.865997    38A     -0.855472    39A     -0.822254
      40A     -0.808348    41A     -0.754296    42A     -0.744349
      43A     -0.732808    44A     -0.729349    45A     -0.709120
      46A     -0.687633    47A     -0.676699    48A     -0.673339
      49A     -0.661202    50A     -0.650411    51A     -0.644542
      52A     -0.633605    53A     -0.626929    54A     -0.615410
      55A     -0.602961    56A     -0.594628    57A     -0.582182
      58A     -0.575596    59A     -0.572627    60A     -0.559269
      61A     -0.555043    62A     -0.548515    63A     -0.541062
      64A     -0.534347    65A     -0.530903    66A     -0.522558
      67A     -0.514680    68A     -0.507302    69A     -0.497963
      70A     -0.488379    71A     -0.480761    72A     -0.477741
      73A     -0.463789    74A     -0.452784    75A     -0.451491
      76A     -0.438689

  @DF-RHF Final Energy: -1327.84462646561929

   => Energetics <=

    Nuclear Repulsion Energy =           1773.4468108894047873
    One-Electron Energy =               -5358.9464580351004770
    Two-Electron Energy =                2257.6550206800766318
    Total Energy =                      -1327.8446264656190579
  Basis Set: (AUG-CC-PVTZ AUX)
    Blend: AUG-CC-PVTZ-RI
    Molecular point group: c1

    Geometry (in Angstrom), charge = 0, multiplicity = 1:

       Center              X                  Y                   Z               Mass
    ------------   -----------------  -----------------  -----------------  -----------------
         P           -2.288723362777    -0.943409132980     0.339579990021    30.973761998420
         O           -0.980780362777    -0.204928132980     0.933190990021    15.994914619570
         O            1.343622637223    -1.678849132980     1.225752990021    15.994914619570
         O            0.080077637223     2.356237867020     0.457069990021    15.994914619570
         O            3.069887637223    -2.190438132980    -0.813688009979    15.994914619570
         O            2.848707637223     2.499746867020     0.366436990021    15.994914619570
         O            4.212520437223     0.487014367020    -0.929930609979    15.994914619570
         O           -2.825490362777     0.029984867020    -0.812629009979    15.994914619570
         O           -3.257748362777    -0.726648132980     1.616572990021    15.994914619570
         O           -2.117620362777    -2.347010132980    -0.104766009979    15.994914619570
         C            0.119534637223     0.026642867020     0.011220990021    12.000000000000
         C            0.954664637223    -1.247571132980    -0.080823009979    12.000000000000
         C            0.899961637223     1.199277867020     0.559752990021    12.000000000000
         C            2.207476637223    -1.010156432980    -0.764791909979    12.000000000000
         C            2.178447637223     1.393105867020    -0.233139009979    12.000000000000
         C            3.027214637223     0.145338867020    -0.215420009979    12.000000000000
         C           -3.122840362777     1.428231867020    -0.493984009979    12.000000000000
         C           -3.534944362777     2.081798867020    -1.789217009979    12.000000000000
         H           -0.281719362777     0.295434867020    -0.975336009979     1.007825032230
         H            0.371641637223    -2.032730132980    -0.577130009979     1.007825032230
         H            1.158492637223     0.994510867020     1.607057990021     1.007825032230
         H            2.062306637223    -0.792026132980    -1.877854009979     1.007825032230
         H            1.918359637223     1.632920867020    -1.278681009979     1.007825032230
         H            3.297227637223    -0.097898132980     0.822547990021     1.007825032230
         H            0.523147637223    -1.891398132980     1.706411990021     1.007825032230
         H            0.666912637223     3.105944867020     0.678085990021     1.007825032230
         H            2.974915637223    -2.550740132980     0.089555990021     1.007825032230
         H            3.722801637223     2.545819867020    -0.063967009979     1.007825032230
         H            4.641099637223    -0.427200132980    -1.102185009979     1.007825032230
         H           -3.807022362777    -1.525704132980     1.729629990021     1.007825032230
         H           -3.929173362777     1.442174867020     0.244287990021     1.007825032230
         H           -2.228389362777     1.889513867020    -0.064194009979     1.007825032230
         H           -3.799148362777     3.127515867020    -1.607769009979     1.007825032230
         H           -2.715823362777     2.049956867020    -2.509973009979     1.007825032230
         H           -4.399571362777     1.570956867020    -2.217822009979     1.007825032230

  Basis Set: AUG-CC-PVTZ
    Blend: AUG-CC-PVTZ
  Basis Set: (AUG-CC-PVTZ AUX)
    Blend: AUG-CC-PVTZ-JKFIT
	 Reference Energy          =   -1327.8446264656192852 [Eh]
	 Singles Energy            =      -0.0000000000000000 [Eh]
	 Same-Spin Energy          =      -1.0166064141307578 [Eh]
	 Opposite-Spin Energy      =      -3.0802300865600993 [Eh]
	 Correlation Energy        =      -4.0968365006908574 [Eh]
	 Total Energy              =   -1331.9414629663101550 [Eh]

	 ================> DF-SCS-MP2 Energies <==================
	-----------------------------------------------------------
	 SCS Same-Spin Scale       =       0.3333333333333333 [-]
	 SCS Opposite-Spin Scale   =       1.2000000000000000 [-]
	 SCS Same-Spin Energy      =      -0.3388688047102526 [Eh]
	 SCS Opposite-Spin Energy  =      -3.6962761038721190 [Eh]
	 SCS Correlation Energy    =      -4.0351449085823718 [Eh]
	 SCS Total Energy          =   -1331.8797713742017095 [Eh]
	-----------------------------------------------------------

  Dipole Moment: [D]
     X:    -1.2547      Y:     1.8177      Z:     0.6736     Total:     2.3091

*** Psi4 exiting successfully. Buy a developer a beer!
