                               Psi4 1.3.2 release

  ==> Input File <==

--------------------------------------------------------------------------
#psi4
#
memory 32 gb

molecule  {
0 1
  P       -2.2900960    -0.9400430     0.3446780
  O       -0.9821530    -0.2015620     0.9382890
  O        1.3422500    -1.6754830     1.2308510
  O        0.0787050     2.3596040     0.4621680
  O        3.0685150    -2.1870720    -0.8085900
  O        2.8473350     2.5031130     0.3715350
  O        4.1956880     0.4353970    -0.9728740
  O       -2.8268630     0.0333510    -0.8075310
  O       -3.2591210    -0.7232820     1.6216710
  O       -2.1189930    -2.3436440    -0.0996680
  C        0.0812687     0.0385648     0.0530564
  C        0.9532920    -1.2442050    -0.0757250
  C        0.8985890     1.2026440     0.5648510
  C        2.2596600    -1.0143070    -0.8180370
  C        2.1890309     1.4376153    -0.1969375
  C        3.0258420     0.1487050    -0.2103220
  C       -3.1242130     1.4315980    -0.4888860
  C       -3.5363170     2.0851650    -1.7841190
  H       -0.2830920     0.2988010    -0.9702380
  H        0.3702690    -2.0293640    -0.5720320
  H        1.1571200     0.9978770     1.6121560
  H        2.0609340    -0.7886600    -1.8727560
  H        1.9169870     1.6362870    -1.2735830
  H        3.2958550    -0.0945320     0.8276460
  H        0.5217750    -1.8880320     1.7115100
  H        0.6655400     3.1093110     0.6831840
  H        2.9735430    -2.5473740     0.0946540
  H        3.7214290     2.5491860    -0.0588690
  H        4.6397270    -0.4238340    -1.0970870
  H       -3.8083950    -1.5223380     1.7347280
  H       -3.9305460     1.4455410     0.2493860
  H       -2.2297620     1.8928800    -0.0590960
  H       -3.8005210     3.1308820    -1.6026710
  H       -2.7171960     2.0533230    -2.5048750
  H       -4.4009440     1.5743230    -2.2127240
units angstrom
no_reorient  #important for SAPT in psi4, default
symmetry c1  #important for SAPT in psi4, default
}

set PROPERTIES_ORIGIN ["COM"]
properties('MP2/aug-cc-pvtz', properties = ['dipole'])
--------------------------------------------------------------------------

    Molecular point group: c1
  Charge       = 0
  Multiplicity = 1
  Basis Set: AUG-CC-PVTZ
    Blend: AUG-CC-PVTZ
  Basis Set: (AUG-CC-PVTZ AUX)
    Blend: AUG-CC-PVTZ-JKFIT

    Orbital Energies [Eh]
    ---------------------

    Doubly Occupied:

       1A    -80.120466     2A    -20.617057     3A    -20.612498
       4A    -20.600573     5A    -20.581585     6A    -20.580535
       7A    -20.573269     8A    -20.572141     9A    -20.571069
      10A    -20.525543    11A    -11.319574    12A    -11.301119
      13A    -11.300218    14A    -11.297416    15A    -11.297236
      16A    -11.295232    17A    -11.289245    18A    -11.230186
      19A     -7.635869    20A     -5.534382    21A     -5.534020
      22A     -5.532767    23A     -1.468694    24A     -1.415817
      25A     -1.406398    26A     -1.395422    27A     -1.388714
      28A     -1.373489    29A     -1.367158    30A     -1.355230
      31A     -1.306144    32A     -1.109211    33A     -1.041152
      34A     -1.006801    35A     -0.998578    36A     -0.884658
      37A     -0.866022    38A     -0.855797    39A     -0.825521
      40A     -0.806215    41A     -0.752588    42A     -0.746928
      43A     -0.736124    44A     -0.729655    45A     -0.711549
      46A     -0.686312    47A     -0.677223    48A     -0.673542
      49A     -0.664400    50A     -0.661868    51A     -0.649735
      52A     -0.638048    53A     -0.628769    54A     -0.615314
      55A     -0.609956    56A     -0.596169    57A     -0.581333
      58A     -0.577911    59A     -0.572852    60A     -0.562688
      61A     -0.555275    62A     -0.548313    63A     -0.541901
      64A     -0.535380    65A     -0.529498    66A     -0.521521
      67A     -0.513266    68A     -0.502179    69A     -0.497881
      70A     -0.481725    71A     -0.480759    72A     -0.477028
      73A     -0.457926    74A     -0.445571    75A     -0.442531
      76A     -0.434103

  @DF-RHF Final Energy: -1327.85826592350918

   => Energetics <=

    Nuclear Repulsion Energy =           1772.5307832920730107
    One-Electron Energy =               -5357.1164245900317837
    Two-Electron Energy =                2256.7273753744498208
    Total Energy =                      -1327.8582659235089523
  Basis Set: (AUG-CC-PVTZ AUX)
    Blend: AUG-CC-PVTZ-RI
    Molecular point group: c1

    Geometry (in Angstrom), charge = 0, multiplicity = 1:

       Center              X                  Y                   Z               Mass
    ------------   -----------------  -----------------  -----------------  -----------------
         P           -2.289057128933    -0.942113339509     0.341851885376    30.973761998420
         O           -0.981114128933    -0.203632339509     0.935462885376    15.994914619570
         O            1.343288871067    -1.677553339509     1.228024885376    15.994914619570
         O            0.079743871067     2.357533660491     0.459341885376    15.994914619570
         O            3.069553871067    -2.189142339509    -0.811416114624    15.994914619570
         O            2.848373871067     2.501042660491     0.368708885376    15.994914619570
         O            4.196726871067     0.433326660491    -0.975700114624    15.994914619570
         O           -2.825824128933     0.031280660491    -0.810357114624    15.994914619570
         O           -3.258082128933    -0.725352339509     1.618844885376    15.994914619570
         O           -2.117954128933    -2.345714339509    -0.102494114624    15.994914619570
         C            0.082307571067     0.036494460491     0.050230285376    12.000000000000
         C            0.954330871067    -1.246275339509    -0.078551114624    12.000000000000
         C            0.899627871067     1.200573660491     0.562024885376    12.000000000000
         C            2.260698871067    -1.016377339509    -0.820863114624    12.000000000000
         C            2.190069771067     1.435544960491    -0.199763614624    12.000000000000
         C            3.026880871067     0.146634660491    -0.213148114624    12.000000000000
         C           -3.123174128933     1.429527660491    -0.491712114624    12.000000000000
         C           -3.535278128933     2.083094660491    -1.786945114624    12.000000000000
         H           -0.282053128933     0.296730660491    -0.973064114624     1.007825032230
         H            0.371307871067    -2.031434339509    -0.574858114624     1.007825032230
         H            1.158158871067     0.995806660491     1.609329885376     1.007825032230
         H            2.061972871067    -0.790730339509    -1.875582114624     1.007825032230
         H            1.918025871067     1.634216660491    -1.276409114624     1.007825032230
         H            3.296893871067    -0.096602339509     0.824819885376     1.007825032230
         H            0.522813871067    -1.890102339509     1.708683885376     1.007825032230
         H            0.666578871067     3.107240660491     0.680357885376     1.007825032230
         H            2.974581871067    -2.549444339509     0.091827885376     1.007825032230
         H            3.722467871067     2.547115660491    -0.061695114624     1.007825032230
         H            4.640765871067    -0.425904339509    -1.099913114624     1.007825032230
         H           -3.807356128933    -1.524408339509     1.731901885376     1.007825032230
         H           -3.929507128933     1.443470660491     0.246559885376     1.007825032230
         H           -2.228723128933     1.890809660491    -0.061922114624     1.007825032230
         H           -3.799482128933     3.128811660491    -1.605497114624     1.007825032230
         H           -2.716157128933     2.051252660491    -2.507701114624     1.007825032230
         H           -4.399905128933     1.572252660491    -2.215550114624     1.007825032230

  Basis Set: AUG-CC-PVTZ
    Blend: AUG-CC-PVTZ
  Basis Set: (AUG-CC-PVTZ AUX)
    Blend: AUG-CC-PVTZ-JKFIT
	 Reference Energy          =   -1327.8582659235091796 [Eh]
	 Singles Energy            =      -0.0000000000000000 [Eh]
	 Same-Spin Energy          =      -1.0142970447424360 [Eh]
	 Opposite-Spin Energy      =      -3.0748657678034355 [Eh]
	 Correlation Energy        =      -4.0891628125458714 [Eh]
	 Total Energy              =   -1331.9474287360551443 [Eh]

	 ================> DF-SCS-MP2 Energies <==================
	-----------------------------------------------------------
	 SCS Same-Spin Scale       =       0.3333333333333333 [-]
	 SCS Opposite-Spin Scale   =       1.2000000000000000 [-]
	 SCS Same-Spin Energy      =      -0.3380990149141453 [Eh]
	 SCS Opposite-Spin Energy  =      -3.6898389213641223 [Eh]
	 SCS Correlation Energy    =      -4.0279379362782679 [Eh]
	 SCS Total Energy          =   -1331.8862038597874289 [Eh]
	-----------------------------------------------------------

  Dipole Moment: [D]
     X:    -1.2486      Y:     1.9658      Z:     0.8554     Total:     2.4809

*** Psi4 exiting successfully. Buy a developer a beer!
