                               Psi4 1.3.2 release

  ==> Input File <==

--------------------------------------------------------------------------
#psi4
#
memory 32 gb

molecule  {
0 1
  P       -2.2900960    -0.9400430     0.3446780
  O       -0.9821530    -0.2015620     0.9382890
  O        1.3422500    -1.6754830     1.2308510
  O        0.0787050     2.3596040     0.4621680
  O        3.0685150    -2.1870720    -0.8085900
  O        2.8473350     2.5031130     0.3715350
  O        4.1956880     0.4353970    -0.9728740
  O       -2.8262257     0.0546698    -0.7894789
  O       -3.2591210    -0.7232820     1.6216710
  O       -2.1108606    -2.3499294    -0.0759292
  C        0.1181620     0.0300090     0.0163190
  C        0.9532920    -1.2442050    -0.0757250
  C        0.8985890     1.2026440     0.5648510
  C        2.2596600    -1.0143070    -0.8180370
  C        2.1770750     1.3964720    -0.2280410
  C        3.0258420     0.1487050    -0.2103220
  C       -3.1242130     1.4315980    -0.4888860
  C       -3.5363170     2.0851650    -1.7841190
  H       -0.2830920     0.2988010    -0.9702380
  H        0.3702690    -2.0293640    -0.5720320
  H        1.1571200     0.9978770     1.6121560
  H        2.0609340    -0.7886600    -1.8727560
  H        1.9169870     1.6362870    -1.2735830
  H        3.2958550    -0.0945320     0.8276460
  H        0.5217750    -1.8880320     1.7115100
  H        0.6655400     3.1093110     0.6831840
  H        2.9735430    -2.5473740     0.0946540
  H        3.7214290     2.5491860    -0.0588690
  H        4.6397270    -0.4238340    -1.0970870
  H       -3.8083950    -1.5223380     1.7347280
  H       -3.9305460     1.4455410     0.2493860
  H       -2.2297620     1.8928800    -0.0590960
  H       -3.8005210     3.1308820    -1.6026710
  H       -2.7171960     2.0533230    -2.5048750
  H       -4.4009440     1.5743230    -2.2127240
units angstrom
no_reorient  #important for SAPT in psi4, default
symmetry c1  #important for SAPT in psi4, default
}

set PROPERTIES_ORIGIN ["COM"]
properties('MP2/aug-cc-pvtz', properties = ['dipole'])
--------------------------------------------------------------------------

    Molecular point group: c1
  Charge       = 0
  Multiplicity = 1
  Basis Set: AUG-CC-PVTZ
    Blend: AUG-CC-PVTZ
  Basis Set: (AUG-CC-PVTZ AUX)
    Blend: AUG-CC-PVTZ-JKFIT

    Orbital Energies [Eh]
    ---------------------

    Doubly Occupied:

       1A    -80.118601     2A    -20.613819     3A    -20.606135
       4A    -20.599532     5A    -20.583028     6A    -20.576690
       7A    -20.574648     8A    -20.574081     9A    -20.573131
      10A    -20.526212    11A    -11.320694    12A    -11.303592
      13A    -11.299388    14A    -11.298437    15A    -11.297104
      16A    -11.296578    17A    -11.291406    18A    -11.229113
      19A     -7.633933    20A     -5.532453    21A     -5.532146
      22A     -5.530820    23A     -1.461875    24A     -1.411086
      25A     -1.394711    26A     -1.392825    27A     -1.390800
      28A     -1.372803    29A     -1.363836    30A     -1.353788
      31A     -1.306328    32A     -1.118991    33A     -1.040388
      34A     -1.011866    35A     -1.003396    36A     -0.881527
      37A     -0.866338    38A     -0.859007    39A     -0.822106
      40A     -0.810632    41A     -0.751657    42A     -0.745552
      43A     -0.732194    44A     -0.730112    45A     -0.707893
      46A     -0.687573    47A     -0.678665    48A     -0.674886
      49A     -0.662370    50A     -0.661438    51A     -0.643046
      52A     -0.634895    53A     -0.628505    54A     -0.616657
      55A     -0.603398    56A     -0.598479    57A     -0.582510
      58A     -0.576097    59A     -0.571206    60A     -0.559553
      61A     -0.556807    62A     -0.548704    63A     -0.541892
      64A     -0.536661    65A     -0.529811    66A     -0.521542
      67A     -0.511494    68A     -0.503861    69A     -0.496408
      70A     -0.484728    71A     -0.480561    72A     -0.477039
      73A     -0.462571    74A     -0.455782    75A     -0.450086
      76A     -0.436373

  @DF-RHF Final Energy: -1327.86164618213320

   => Energetics <=

    Nuclear Repulsion Energy =           1773.0155271852122496
    One-Electron Energy =               -5358.1246431877807481
    Two-Electron Energy =                2257.2474698204350716
    Total Energy =                      -1327.8616461821334269
  Basis Set: (AUG-CC-PVTZ AUX)
    Blend: AUG-CC-PVTZ-RI
    Molecular point group: c1

    Geometry (in Angstrom), charge = 0, multiplicity = 1:

       Center              X                  Y                   Z               Mass
    ------------   -----------------  -----------------  -----------------  -----------------
         P           -2.290582914699    -0.940877728902     0.342357503675    30.973761998420
         O           -0.982639914699    -0.202396728902     0.935968503675    15.994914619570
         O            1.341763085301    -1.676317728902     1.228530503675    15.994914619570
         O            0.078218085301     2.358769271098     0.459847503675    15.994914619570
         O            3.068028085301    -2.187906728902    -0.810910496325    15.994914619570
         O            2.846848085301     2.502278271098     0.369214503675    15.994914619570
         O            4.195201085301     0.434562271098    -0.975194496325    15.994914619570
         O           -2.826712614699     0.053835071098    -0.791799396325    15.994914619570
         O           -3.259607914699    -0.724116728902     1.619350503675    15.994914619570
         O           -2.111347514699    -2.350764128902    -0.078249696325    15.994914619570
         C            0.117675085301     0.029174271098     0.013998503675    12.000000000000
         C            0.952805085301    -1.245039728902    -0.078045496325    12.000000000000
         C            0.898102085301     1.201809271098     0.562530503675    12.000000000000
         C            2.259173085301    -1.015141728902    -0.820357496325    12.000000000000
         C            2.176588085301     1.395637271098    -0.230361496325    12.000000000000
         C            3.025355085301     0.147870271098    -0.212642496325    12.000000000000
         C           -3.124699914699     1.430763271098    -0.491206496325    12.000000000000
         C           -3.536803914699     2.084330271098    -1.786439496325    12.000000000000
         H           -0.283578914699     0.297966271098    -0.972558496325     1.007825032230
         H            0.369782085301    -2.030198728902    -0.574352496325     1.007825032230
         H            1.156633085301     0.997042271098     1.609835503675     1.007825032230
         H            2.060447085301    -0.789494728902    -1.875076496325     1.007825032230
         H            1.916500085301     1.635452271098    -1.275903496325     1.007825032230
         H            3.295368085301    -0.095366728902     0.825325503675     1.007825032230
         H            0.521288085301    -1.888866728902     1.709189503675     1.007825032230
         H            0.665053085301     3.108476271098     0.680863503675     1.007825032230
         H            2.973056085301    -2.548208728902     0.092333503675     1.007825032230
         H            3.720942085301     2.548351271098    -0.061189496325     1.007825032230
         H            4.639240085301    -0.424668728902    -1.099407496325     1.007825032230
         H           -3.808881914699    -1.523172728902     1.732407503675     1.007825032230
         H           -3.931032914699     1.444706271098     0.247065503675     1.007825032230
         H           -2.230248914699     1.892045271098    -0.061416496325     1.007825032230
         H           -3.801007914699     3.130047271098    -1.604991496325     1.007825032230
         H           -2.717682914699     2.052488271098    -2.507195496325     1.007825032230
         H           -4.401430914699     1.573488271098    -2.215044496325     1.007825032230

  Basis Set: AUG-CC-PVTZ
    Blend: AUG-CC-PVTZ
  Basis Set: (AUG-CC-PVTZ AUX)
    Blend: AUG-CC-PVTZ-JKFIT
	 Reference Energy          =   -1327.8616461821331995 [Eh]
	 Singles Energy            =      -0.0000000000000000 [Eh]
	 Same-Spin Energy          =      -1.0145411112829048 [Eh]
	 Opposite-Spin Energy      =      -3.0756233773295256 [Eh]
	 Correlation Energy        =      -4.0901644886124302 [Eh]
	 Total Energy              =   -1331.9518106707455445 [Eh]

	 ================> DF-SCS-MP2 Energies <==================
	-----------------------------------------------------------
	 SCS Same-Spin Scale       =       0.3333333333333333 [-]
	 SCS Opposite-Spin Scale   =       1.2000000000000000 [-]
	 SCS Same-Spin Energy      =      -0.3381803704276349 [Eh]
	 SCS Opposite-Spin Energy  =      -3.6907480527954304 [Eh]
	 SCS Correlation Energy    =      -4.0289284232230651 [Eh]
	 SCS Total Energy          =   -1331.8905746053562780 [Eh]
	-----------------------------------------------------------

  Dipole Moment: [D]
     X:    -1.1232      Y:     1.7667      Z:     0.6390     Total:     2.1889

*** Psi4 exiting successfully. Buy a developer a beer!
