                               Psi4 1.3.2 release

  ==> Input File <==

--------------------------------------------------------------------------
#psi4
#
memory 32 gb

molecule  {
0 1
  P       -2.2900960    -0.9400430     0.3446780
  O       -0.9821530    -0.2015620     0.9382890
  O        1.3422500    -1.6754830     1.2308510
  O        0.0787050     2.3596040     0.4621680
  O        3.0685150    -2.1870720    -0.8085900
  O        2.8473350     2.5031130     0.3715350
  O        4.2039629     0.4123566    -0.9684357
  O       -2.8268630     0.0333510    -0.8075310
  O       -3.2591210    -0.7232820     1.6216710
  O       -2.1189930    -2.3436440    -0.0996680
  C        0.1181620     0.0300090     0.0163190
  C        0.9532920    -1.2442050    -0.0757250
  C        0.8985890     1.2026440     0.5648510
  C        2.2596600    -1.0143070    -0.8180370
  C        2.1590980     1.3841759    -0.2132281
  C        3.0258420     0.1487050    -0.2103220
  C       -3.1242130     1.4315980    -0.4888860
  C       -3.5363170     2.0851650    -1.7841190
  H       -0.2830920     0.2988010    -0.9702380
  H        0.3702690    -2.0293640    -0.5720320
  H        1.1571200     0.9978770     1.6121560
  H        2.0609340    -0.7886600    -1.8727560
  H        1.9169870     1.6362870    -1.2735830
  H        3.2958550    -0.0945320     0.8276460
  H        0.5217750    -1.8880320     1.7115100
  H        0.6655400     3.1093110     0.6831840
  H        2.9735430    -2.5473740     0.0946540
  H        3.7214290     2.5491860    -0.0588690
  H        4.6397270    -0.4238340    -1.0970870
  H       -3.8083950    -1.5223380     1.7347280
  H       -3.9305460     1.4455410     0.2493860
  H       -2.2297620     1.8928800    -0.0590960
  H       -3.8005210     3.1308820    -1.6026710
  H       -2.7171960     2.0533230    -2.5048750
  H       -4.4009440     1.5743230    -2.2127240
units angstrom
no_reorient  #important for SAPT in psi4, default
symmetry c1  #important for SAPT in psi4, default
}

set PROPERTIES_ORIGIN ["COM"]
properties('MP2/aug-cc-pvtz', properties = ['dipole'])
--------------------------------------------------------------------------

    Molecular point group: c1
  Charge       = 0
  Multiplicity = 1
  Basis Set: AUG-CC-PVTZ
    Blend: AUG-CC-PVTZ
  Basis Set: (AUG-CC-PVTZ AUX)
    Blend: AUG-CC-PVTZ-JKFIT

    Orbital Energies [Eh]
    ---------------------

    Doubly Occupied:

       1A    -80.117270     2A    -20.615004     3A    -20.607530
       4A    -20.599238     5A    -20.583355     6A    -20.575556
       7A    -20.574561     8A    -20.574138     9A    -20.571840
      10A    -20.523705    11A    -11.321617    12A    -11.303765
      13A    -11.299669    14A    -11.299236    15A    -11.299179
      16A    -11.298303    17A    -11.292534    18A    -11.230067
      19A     -7.632720    20A     -5.531226    21A     -5.530854
      22A     -5.529650    23A     -1.460671    24A     -1.411172
      25A     -1.395050    26A     -1.392611    27A     -1.387221
      28A     -1.374501    29A     -1.363002    30A     -1.353885
      31A     -1.304104    32A     -1.122313    33A     -1.040726
      34A     -1.013455    35A     -1.006420    36A     -0.882380
      37A     -0.865668    38A     -0.859116    39A     -0.822772
      40A     -0.810715    41A     -0.751841    42A     -0.745903
      43A     -0.732649    44A     -0.728859    45A     -0.708045
      46A     -0.687678    47A     -0.678766    48A     -0.674795
      49A     -0.664454    50A     -0.661385    51A     -0.642913
      52A     -0.637419    53A     -0.627258    54A     -0.615132
      55A     -0.603538    56A     -0.598487    57A     -0.581727
      58A     -0.575807    59A     -0.571360    60A     -0.558681
      61A     -0.555445    62A     -0.549103    63A     -0.541326
      64A     -0.535383    65A     -0.530354    66A     -0.523033
      67A     -0.512844    68A     -0.504293    69A     -0.497983
      70A     -0.485609    71A     -0.480200    72A     -0.476874
      73A     -0.465066    74A     -0.455940    75A     -0.450534
      76A     -0.436085

  @DF-RHF Final Energy: -1327.86139863884523

   => Energetics <=

    Nuclear Repulsion Energy =           1772.8474938137380832
    One-Electron Energy =               -5357.7706473753687533
    Two-Electron Energy =                2257.0617549227854397
    Total Energy =                      -1327.8613986388454578
  Basis Set: (AUG-CC-PVTZ AUX)
    Blend: AUG-CC-PVTZ-RI
    Molecular point group: c1

    Geometry (in Angstrom), charge = 0, multiplicity = 1:

       Center              X                  Y                   Z               Mass
    ------------   -----------------  -----------------  -----------------  -----------------
         P           -2.289806557369    -0.938251409025     0.343814475705    30.973761998420
         O           -0.981863557369    -0.199770409025     0.937425475705    15.994914619570
         O            1.342539442631    -1.673691409025     1.229987475705    15.994914619570
         O            0.078994442631     2.361395590975     0.461304475705    15.994914619570
         O            3.068804442631    -2.185280409025    -0.809453524295    15.994914619570
         O            2.847624442631     2.504904590975     0.370671475705    15.994914619570
         O            4.204252342631     0.414148190975    -0.969299224295    15.994914619570
         O           -2.826573557369     0.035142590975    -0.808394524295    15.994914619570
         O           -3.258831557369    -0.721490409025     1.620807475705    15.994914619570
         O           -2.118703557369    -2.341852409025    -0.100531524295    15.994914619570
         C            0.118451442631     0.031800590975     0.015455475705    12.000000000000
         C            0.953581442631    -1.242413409025    -0.076588524295    12.000000000000
         C            0.898878442631     1.204435590975     0.563987475705    12.000000000000
         C            2.259949442631    -1.012515409025    -0.818900524295    12.000000000000
         C            2.159387442631     1.385967490975    -0.214091624295    12.000000000000
         C            3.026131442631     0.150496590975    -0.211185524295    12.000000000000
         C           -3.123923557369     1.433389590975    -0.489749524295    12.000000000000
         C           -3.536027557369     2.086956590975    -1.784982524295    12.000000000000
         H           -0.282802557369     0.300592590975    -0.971101524295     1.007825032230
         H            0.370558442631    -2.027572409025    -0.572895524295     1.007825032230
         H            1.157409442631     0.999668590975     1.611292475705     1.007825032230
         H            2.061223442631    -0.786868409025    -1.873619524295     1.007825032230
         H            1.917276442631     1.638078590975    -1.274446524295     1.007825032230
         H            3.296144442631    -0.092740409025     0.826782475705     1.007825032230
         H            0.522064442631    -1.886240409025     1.710646475705     1.007825032230
         H            0.665829442631     3.111102590975     0.682320475705     1.007825032230
         H            2.973832442631    -2.545582409025     0.093790475705     1.007825032230
         H            3.721718442631     2.550977590975    -0.059732524295     1.007825032230
         H            4.640016442631    -0.422042409025    -1.097950524295     1.007825032230
         H           -3.808105557369    -1.520546409025     1.733864475705     1.007825032230
         H           -3.930256557369     1.447332590975     0.248522475705     1.007825032230
         H           -2.229472557369     1.894671590975    -0.059959524295     1.007825032230
         H           -3.800231557369     3.132673590975    -1.603534524295     1.007825032230
         H           -2.716906557369     2.055114590975    -2.505738524295     1.007825032230
         H           -4.400654557369     1.576114590975    -2.213587524295     1.007825032230

  Basis Set: AUG-CC-PVTZ
    Blend: AUG-CC-PVTZ
  Basis Set: (AUG-CC-PVTZ AUX)
    Blend: AUG-CC-PVTZ-JKFIT
	 Reference Energy          =   -1327.8613986388452304 [Eh]
	 Singles Energy            =      -0.0000000000000000 [Eh]
	 Same-Spin Energy          =      -1.0143818724179239 [Eh]
	 Opposite-Spin Energy      =      -3.0754503719485418 [Eh]
	 Correlation Energy        =      -4.0898322443664661 [Eh]
	 Total Energy              =   -1331.9512308832117924 [Eh]

	 ================> DF-SCS-MP2 Energies <==================
	-----------------------------------------------------------
	 SCS Same-Spin Scale       =       0.3333333333333333 [-]
	 SCS Opposite-Spin Scale   =       1.2000000000000000 [-]
	 SCS Same-Spin Energy      =      -0.3381272908059746 [Eh]
	 SCS Opposite-Spin Energy  =      -3.6905404463382498 [Eh]
	 SCS Correlation Energy    =      -4.0286677371442243 [Eh]
	 SCS Total Energy          =   -1331.8900663759893632 [Eh]
	-----------------------------------------------------------

  Dipole Moment: [D]
     X:    -1.1790      Y:     1.8598      Z:     0.7247     Total:     2.3182

*** Psi4 exiting successfully. Buy a developer a beer!
