                               Psi4 1.3.2 release

  ==> Input File <==

--------------------------------------------------------------------------
#psi4
#
memory 32 gb

molecule  {
0 1
  P       -2.2900960    -0.9400430     0.3446780
  O       -0.9821530    -0.2015620     0.9382890
  O        1.3422500    -1.6754830     1.2308510
  O        0.0787050     2.3596040     0.4621680
  O        3.0685150    -2.1870720    -0.8085900
  O        2.8473350     2.5031130     0.3715350
  O        4.1956880     0.4353970    -0.9728740
  O       -2.8268630     0.0333510    -0.8075310
  O       -3.2591210    -0.7232820     1.6216710
  O       -2.1189930    -2.3436440    -0.0996680
  C        0.1181620     0.0300090     0.0163190
  C        0.9532920    -1.2442050    -0.0757250
  C        0.8985890     1.2026440     0.5648510
  C        2.2596600    -1.0143070    -0.8180370
  C        2.1770750     1.3964720    -0.2280410
  C        3.0228136     0.1607692    -0.2105338
  C       -3.1242130     1.4315980    -0.4888860
  C       -3.5363170     2.0851650    -1.7841190
  H       -0.2830920     0.2988010    -0.9702380
  H        0.3702690    -2.0293640    -0.5720320
  H        1.1571200     0.9978770     1.6121560
  H        2.0609340    -0.7886600    -1.8727560
  H        1.9169870     1.6362870    -1.2735830
  H        3.2958550    -0.0945320     0.8276460
  H        0.5217750    -1.8880320     1.7115100
  H        0.6655400     3.1093110     0.6831840
  H        2.9735430    -2.5473740     0.0946540
  H        3.7214290     2.5491860    -0.0588690
  H        4.6458880    -0.4199692    -1.1015049
  H       -3.8083950    -1.5223380     1.7347280
  H       -3.9305460     1.4455410     0.2493860
  H       -2.2297620     1.8928800    -0.0590960
  H       -3.8005210     3.1308820    -1.6026710
  H       -2.7171960     2.0533230    -2.5048750
  H       -4.4009440     1.5743230    -2.2127240
units angstrom
no_reorient  #important for SAPT in psi4, default
symmetry c1  #important for SAPT in psi4, default
}

set PROPERTIES_ORIGIN ["COM"]
properties('MP2/aug-cc-pvtz', properties = ['dipole'])
--------------------------------------------------------------------------

    Molecular point group: c1
  Charge       = 0
  Multiplicity = 1
  Basis Set: AUG-CC-PVTZ
    Blend: AUG-CC-PVTZ
  Basis Set: (AUG-CC-PVTZ AUX)
    Blend: AUG-CC-PVTZ-JKFIT

    Orbital Energies [Eh]
    ---------------------

    Doubly Occupied:

       1A    -80.116943     2A    -20.614733     3A    -20.607048
       4A    -20.598950     5A    -20.582987     6A    -20.576792
       7A    -20.574750     8A    -20.573733     9A    -20.573634
      10A    -20.523410    11A    -11.320794    12A    -11.303297
      13A    -11.299537    14A    -11.299414    15A    -11.298981
      16A    -11.296506    17A    -11.291660    18A    -11.229887
      19A     -7.632392    20A     -5.530898    21A     -5.530526
      22A     -5.529323    23A     -1.460294    24A     -1.410725
      25A     -1.394754    26A     -1.392936    27A     -1.386850
      28A     -1.372522    29A     -1.364018    30A     -1.353665
      31A     -1.303808    32A     -1.119483    33A     -1.040491
      34A     -1.012733    35A     -1.003355    36A     -0.880032
      37A     -0.864867    38A     -0.859656    39A     -0.822276
      40A     -0.810518    41A     -0.751811    42A     -0.745299
      43A     -0.731594    44A     -0.728636    45A     -0.708026
      46A     -0.686817    47A     -0.678143    48A     -0.673798
      49A     -0.663041    50A     -0.660929    51A     -0.643208
      52A     -0.635431    53A     -0.627217    54A     -0.615376
      55A     -0.603633    56A     -0.598124    57A     -0.581448
      58A     -0.575559    59A     -0.570908    60A     -0.559405
      61A     -0.556292    62A     -0.548415    63A     -0.541163
      64A     -0.536453    65A     -0.529846    66A     -0.521735
      67A     -0.513116    68A     -0.504100    69A     -0.497140
      70A     -0.484837    71A     -0.479845    72A     -0.476573
      73A     -0.462507    74A     -0.457462    75A     -0.450106
      76A     -0.434709

  @DF-RHF Final Energy: -1327.86136563798709

   => Energetics <=

    Nuclear Repulsion Energy =           1772.4725332737004919
    One-Electron Energy =               -5357.0840368428134752
    Two-Electron Energy =                2256.7501379311256642
    Total Energy =                      -1327.8613656379870918
  Basis Set: (AUG-CC-PVTZ AUX)
    Blend: AUG-CC-PVTZ-RI
    Molecular point group: c1

    Geometry (in Angstrom), charge = 0, multiplicity = 1:

       Center              X                  Y                   Z               Mass
    ------------   -----------------  -----------------  -----------------  -----------------
         P           -2.289991365752    -0.940559072433     0.344702270592    30.973761998420
         O           -0.982048365752    -0.202078072433     0.938313270592    15.994914619570
         O            1.342354634248    -1.675999072433     1.230875270592    15.994914619570
         O            0.078809634248     2.359087927567     0.462192270592    15.994914619570
         O            3.068619634248    -2.187588072433    -0.808565729408    15.994914619570
         O            2.847439634248     2.502596927567     0.371559270592    15.994914619570
         O            4.195792634248     0.434880927567    -0.972849729408    15.994914619570
         O           -2.826758365752     0.032834927567    -0.807506729408    15.994914619570
         O           -3.259016365752    -0.723798072433     1.621695270592    15.994914619570
         O           -2.118888365752    -2.344160072433    -0.099643729408    15.994914619570
         C            0.118266634248     0.029492927567     0.016343270592    12.000000000000
         C            0.953396634248    -1.244721072433    -0.075700729408    12.000000000000
         C            0.898693634248     1.202127927567     0.564875270592    12.000000000000
         C            2.259764634248    -1.014823072433    -0.818012729408    12.000000000000
         C            2.177179634248     1.395955927567    -0.228016729408    12.000000000000
         C            3.022918234248     0.160253127567    -0.210509529408    12.000000000000
         C           -3.124108365752     1.431081927567    -0.488861729408    12.000000000000
         C           -3.536212365752     2.084648927567    -1.784094729408    12.000000000000
         H           -0.282987365752     0.298284927567    -0.970213729408     1.007825032230
         H            0.370373634248    -2.029880072433    -0.572007729408     1.007825032230
         H            1.157224634248     0.997360927567     1.612180270592     1.007825032230
         H            2.061038634248    -0.789176072433    -1.872731729408     1.007825032230
         H            1.917091634248     1.635770927567    -1.273558729408     1.007825032230
         H            3.295959634248    -0.095048072433     0.827670270592     1.007825032230
         H            0.521879634248    -1.888548072433     1.711534270592     1.007825032230
         H            0.665644634248     3.108794927567     0.683208270592     1.007825032230
         H            2.973647634248    -2.547890072433     0.094678270592     1.007825032230
         H            3.721533634248     2.548669927567    -0.058844729408     1.007825032230
         H            4.645992634248    -0.420485272433    -1.101480629408     1.007825032230
         H           -3.808290365752    -1.522854072433     1.734752270592     1.007825032230
         H           -3.930441365752     1.445024927567     0.249410270592     1.007825032230
         H           -2.229657365752     1.892363927567    -0.059071729408     1.007825032230
         H           -3.800416365752     3.130365927567    -1.602646729408     1.007825032230
         H           -2.717091365752     2.052806927567    -2.504850729408     1.007825032230
         H           -4.400839365752     1.573806927567    -2.212699729408     1.007825032230

  Basis Set: AUG-CC-PVTZ
    Blend: AUG-CC-PVTZ
  Basis Set: (AUG-CC-PVTZ AUX)
    Blend: AUG-CC-PVTZ-JKFIT
	 Reference Energy          =   -1327.8613656379870918 [Eh]
	 Singles Energy            =      -0.0000000000000000 [Eh]
	 Same-Spin Energy          =      -1.0146012462843388 [Eh]
	 Opposite-Spin Energy      =      -3.0760344134838760 [Eh]
	 Correlation Energy        =      -4.0906356597682150 [Eh]
	 Total Energy              =   -1331.9520012977552597 [Eh]

	 ================> DF-SCS-MP2 Energies <==================
	-----------------------------------------------------------
	 SCS Same-Spin Scale       =       0.3333333333333333 [-]
	 SCS Opposite-Spin Scale   =       1.2000000000000000 [-]
	 SCS Same-Spin Energy      =      -0.3382004154281129 [Eh]
	 SCS Opposite-Spin Energy  =      -3.6912412961806509 [Eh]
	 SCS Correlation Energy    =      -4.0294417116087642 [Eh]
	 SCS Total Energy          =   -1331.8908073495958888 [Eh]
	-----------------------------------------------------------

  Dipole Moment: [D]
     X:    -1.1097      Y:     1.8695      Z:     0.7158     Total:     2.2889

*** Psi4 exiting successfully. Buy a developer a beer!
