                               Psi4 1.3.2 release

  ==> Input File <==

--------------------------------------------------------------------------
#psi4
#
memory 32 gb

molecule  {
0 1
  P       -2.2900960    -0.9400430     0.3446780
  O       -0.9821530    -0.2015620     0.9382890
  O        1.3422500    -1.6754830     1.2308510
  O        0.0787050     2.3596040     0.4621680
  O        3.0685150    -2.1870720    -0.8085900
  O        2.8838565     2.4979833     0.3381098
  O        4.1956880     0.4353970    -0.9728740
  O       -2.8268630     0.0333510    -0.8075310
  O       -3.2591210    -0.7232820     1.6216710
  O       -2.1189930    -2.3436440    -0.0996680
  C        0.1181620     0.0300090     0.0163190
  C        0.9532920    -1.2442050    -0.0757250
  C        0.8862736     1.1619645     0.5332812
  C        2.2596600    -1.0143070    -0.8180370
  C        2.1770750     1.3964720    -0.2280410
  C        3.0258420     0.1487050    -0.2103220
  C       -3.1242130     1.4315980    -0.4888860
  C       -3.5363170     2.0851650    -1.7841190
  H       -0.2830920     0.2988010    -0.9702380
  H        0.3702690    -2.0293640    -0.5720320
  H        1.1571200     0.9978770     1.6121560
  H        2.0609340    -0.7886600    -1.8727560
  H        1.9169870     1.6362870    -1.2735830
  H        3.2958550    -0.0945320     0.8276460
  H        0.5217750    -1.8880320     1.7115100
  H        0.6655400     3.1093110     0.6831840
  H        2.9735430    -2.5473740     0.0946540
  H        3.7214290     2.5491860    -0.0588690
  H        4.6397270    -0.4238340    -1.0970870
  H       -3.8083950    -1.5223380     1.7347280
  H       -3.9305460     1.4455410     0.2493860
  H       -2.2297620     1.8928800    -0.0590960
  H       -3.8005210     3.1308820    -1.6026710
  H       -2.7171960     2.0533230    -2.5048750
  H       -4.4009440     1.5743230    -2.2127240
units angstrom
no_reorient  #important for SAPT in psi4, default
symmetry c1  #important for SAPT in psi4, default
}

set PROPERTIES_ORIGIN ["COM"]
properties('MP2/aug-cc-pvtz', properties = ['dipole'])
--------------------------------------------------------------------------

    Molecular point group: c1
  Charge       = 0
  Multiplicity = 1
  Basis Set: AUG-CC-PVTZ
    Blend: AUG-CC-PVTZ
  Basis Set: (AUG-CC-PVTZ AUX)
    Blend: AUG-CC-PVTZ-JKFIT

    Orbital Energies [Eh]
    ---------------------

    Doubly Occupied:

       1A    -80.118080     2A    -20.615546     3A    -20.609004
       4A    -20.599605     5A    -20.584197     6A    -20.574957
       7A    -20.573319     8A    -20.571899     9A    -20.570890
      10A    -20.524366    11A    -11.321889    12A    -11.305240
      13A    -11.301513    14A    -11.299781    15A    -11.299576
      16A    -11.299145    17A    -11.291034    18A    -11.230009
      19A     -7.633517    20A     -5.532022    21A     -5.531658
      22A     -5.530446    23A     -1.461692    24A     -1.411935
      25A     -1.397857    26A     -1.392762    27A     -1.387441
      28A     -1.372097    29A     -1.361816    30A     -1.354454
      31A     -1.304764    32A     -1.126597    33A     -1.040794
      34A     -1.018050    35A     -1.006505    36A     -0.882487
      37A     -0.866214    38A     -0.859436    39A     -0.825115
      40A     -0.810880    41A     -0.752092    42A     -0.746369
      43A     -0.731996    44A     -0.730672    45A     -0.713828
      46A     -0.685245    47A     -0.679198    48A     -0.674531
      49A     -0.663471    50A     -0.660664    51A     -0.646694
      52A     -0.635926    53A     -0.627896    54A     -0.615703
      55A     -0.603059    56A     -0.598239    57A     -0.583426
      58A     -0.576032    59A     -0.571491    60A     -0.558062
      61A     -0.556629    62A     -0.549066    63A     -0.541416
      64A     -0.537070    65A     -0.530281    66A     -0.524203
      67A     -0.512707    68A     -0.504298    69A     -0.499042
      70A     -0.485603    71A     -0.480818    72A     -0.477442
      73A     -0.462938    74A     -0.455371    75A     -0.449483
      76A     -0.436950

  @DF-RHF Final Energy: -1327.85803350679043

   => Energetics <=

    Nuclear Repulsion Energy =           1773.1318577928113882
    One-Electron Energy =               -5358.2667843340350373
    Two-Electron Energy =                2257.2768930344332148
    Total Energy =                      -1327.8580335067904343
  Basis Set: (AUG-CC-PVTZ AUX)
    Blend: AUG-CC-PVTZ-RI
    Molecular point group: c1

    Geometry (in Angstrom), charge = 0, multiplicity = 1:

       Center              X                  Y                   Z               Mass
    ------------   -----------------  -----------------  -----------------  -----------------
         P           -2.291610831883    -0.938063529794     0.347849092583    30.973761998420
         O           -0.983667831883    -0.199582529794     0.941460092583    15.994914619570
         O            1.340735168117    -1.673503529794     1.234022092583    15.994914619570
         O            0.077190168117     2.361583470206     0.465339092583    15.994914619570
         O            3.067000168117    -2.185092529794    -0.805418907417    15.994914619570
         O            2.882341668117     2.499962770206     0.341280892583    15.994914619570
         O            4.194173168117     0.437376470206    -0.969702907417    15.994914619570
         O           -2.828377831883     0.035330470206    -0.804359907417    15.994914619570
         O           -3.260635831883    -0.721302529794     1.624842092583    15.994914619570
         O           -2.120507831883    -2.341664529794    -0.096496907417    15.994914619570
         C            0.116647168117     0.031988470206     0.019490092583    12.000000000000
         C            0.951777168117    -1.242225529794    -0.072553907417    12.000000000000
         C            0.884758768117     1.163943970206     0.536452292583    12.000000000000
         C            2.258145168117    -1.012327529794    -0.814865907417    12.000000000000
         C            2.175560168117     1.398451470206    -0.224869907417    12.000000000000
         C            3.024327168117     0.150684470206    -0.207150907417    12.000000000000
         C           -3.125727831883     1.433577470206    -0.485714907417    12.000000000000
         C           -3.537831831883     2.087144470206    -1.780947907417    12.000000000000
         H           -0.284606831883     0.300780470206    -0.967066907417     1.007825032230
         H            0.368754168117    -2.027384529794    -0.568860907417     1.007825032230
         H            1.155605168117     0.999856470206     1.615327092583     1.007825032230
         H            2.059419168117    -0.786680529794    -1.869584907417     1.007825032230
         H            1.915472168117     1.638266470206    -1.270411907417     1.007825032230
         H            3.294340168117    -0.092552529794     0.830817092583     1.007825032230
         H            0.520260168117    -1.886052529794     1.714681092583     1.007825032230
         H            0.664025168117     3.111290470206     0.686355092583     1.007825032230
         H            2.972028168117    -2.545394529794     0.097825092583     1.007825032230
         H            3.719914168117     2.551165470206    -0.055697907417     1.007825032230
         H            4.638212168117    -0.421854529794    -1.093915907417     1.007825032230
         H           -3.809909831883    -1.520358529794     1.737899092583     1.007825032230
         H           -3.932060831883     1.447520470206     0.252557092583     1.007825032230
         H           -2.231276831883     1.894859470206    -0.055924907417     1.007825032230
         H           -3.802035831883     3.132861470206    -1.599499907417     1.007825032230
         H           -2.718710831883     2.055302470206    -2.501703907417     1.007825032230
         H           -4.402458831883     1.576302470206    -2.209552907417     1.007825032230

  Basis Set: AUG-CC-PVTZ
    Blend: AUG-CC-PVTZ
  Basis Set: (AUG-CC-PVTZ AUX)
    Blend: AUG-CC-PVTZ-JKFIT
	 Reference Energy          =   -1327.8580335067904343 [Eh]
	 Singles Energy            =      -0.0000000000000000 [Eh]
	 Same-Spin Energy          =      -1.0142908336205985 [Eh]
	 Opposite-Spin Energy      =      -3.0750991776626244 [Eh]
	 Correlation Energy        =      -4.0893900112832231 [Eh]
	 Total Energy              =   -1331.9474235180737196 [Eh]

	 ================> DF-SCS-MP2 Energies <==================
	-----------------------------------------------------------
	 SCS Same-Spin Scale       =       0.3333333333333333 [-]
	 SCS Opposite-Spin Scale   =       1.2000000000000000 [-]
	 SCS Same-Spin Energy      =      -0.3380969445401995 [Eh]
	 SCS Opposite-Spin Energy  =      -3.6901190131951491 [Eh]
	 SCS Correlation Energy    =      -4.0282159577353482 [Eh]
	 SCS Total Energy          =   -1331.8862494645256902 [Eh]
	-----------------------------------------------------------

  Dipole Moment: [D]
     X:    -1.1848      Y:     1.7475      Z:     0.7401     Total:     2.2372

*** Psi4 exiting successfully. Buy a developer a beer!
