                               Psi4 1.3.2 release

  ==> Input File <==

--------------------------------------------------------------------------
#psi4
#
memory 32 gb

molecule  {
0 1
  P       -2.2900960    -0.9400430     0.3446780
  O       -0.9821530    -0.2015620     0.9382890
  O        1.3422500    -1.6754830     1.2308510
  O        0.0787050     2.3596040     0.4621680
  O        3.0685150    -2.1870720    -0.8085900
  O        2.8473350     2.5031130     0.3715350
  O        4.1956880     0.4353970    -0.9728740
  O       -2.8268630     0.0333510    -0.8075310
  O       -3.2591210    -0.7232820     1.6216710
  O       -2.1189930    -2.3436440    -0.0996680
  C        0.0810542     0.0026464     0.0430114
  C        0.9532920    -1.2442050    -0.0757250
  C        0.8985890     1.2026440     0.5648510
  C        2.2718006    -1.0654179    -0.8106045
  C        2.1770750     1.3964720    -0.2280410
  C        3.0258420     0.1487050    -0.2103220
  C       -3.1242130     1.4315980    -0.4888860
  C       -3.5363170     2.0851650    -1.7841190
  H       -0.2830920     0.2988010    -0.9702380
  H        0.3702690    -2.0293640    -0.5720320
  H        1.1571200     0.9978770     1.6121560
  H        2.0609340    -0.7886600    -1.8727560
  H        1.9169870     1.6362870    -1.2735830
  H        3.2958550    -0.0945320     0.8276460
  H        0.5217750    -1.8880320     1.7115100
  H        0.6655400     3.1093110     0.6831840
  H        2.9735430    -2.5473740     0.0946540
  H        3.7214290     2.5491860    -0.0588690
  H        4.6397270    -0.4238340    -1.0970870
  H       -3.8083950    -1.5223380     1.7347280
  H       -3.9305460     1.4455410     0.2493860
  H       -2.2297620     1.8928800    -0.0590960
  H       -3.8005210     3.1308820    -1.6026710
  H       -2.7171960     2.0533230    -2.5048750
  H       -4.4009440     1.5743230    -2.2127240
units angstrom
no_reorient  #important for SAPT in psi4, default
symmetry c1  #important for SAPT in psi4, default
}

set PROPERTIES_ORIGIN ["COM"]
properties('MP2/aug-cc-pvtz', properties = ['dipole'])
--------------------------------------------------------------------------

    Molecular point group: c1
  Charge       = 0
  Multiplicity = 1
  Basis Set: AUG-CC-PVTZ
    Blend: AUG-CC-PVTZ
  Basis Set: (AUG-CC-PVTZ AUX)
    Blend: AUG-CC-PVTZ-JKFIT

    Orbital Energies [Eh]
    ---------------------

    Doubly Occupied:

       1A    -80.120256     2A    -20.617019     3A    -20.613447
       4A    -20.600651     5A    -20.581329     6A    -20.580067
       7A    -20.574967     8A    -20.571924     9A    -20.571198
      10A    -20.525757    11A    -11.319772    12A    -11.300212
      13A    -11.300067    14A    -11.299410    15A    -11.296565
      16A    -11.294228    17A    -11.288669    18A    -11.230207
      19A     -7.635759    20A     -5.534281    21A     -5.533871
      22A     -5.532654    23A     -1.469226    24A     -1.417372
      25A     -1.405563    26A     -1.393168    27A     -1.388886
      28A     -1.374442    29A     -1.368692    30A     -1.354363
      31A     -1.306358    32A     -1.108927    33A     -1.041157
      34A     -1.007046    35A     -0.997733    36A     -0.882824
      37A     -0.865551    38A     -0.857991    39A     -0.823658
      40A     -0.808179    41A     -0.753608    42A     -0.745771
      43A     -0.735271    44A     -0.730679    45A     -0.707423
      46A     -0.686289    47A     -0.682979    48A     -0.674486
      49A     -0.663721    50A     -0.660746    51A     -0.645541
      52A     -0.635830    53A     -0.632892    54A     -0.617430
      55A     -0.607045    56A     -0.598736    57A     -0.580617
      58A     -0.578042    59A     -0.572680    60A     -0.560032
      61A     -0.554190    62A     -0.548714    63A     -0.542813
      64A     -0.537938    65A     -0.528948    66A     -0.518580
      67A     -0.512491    68A     -0.501162    69A     -0.496800
      70A     -0.482124    71A     -0.480428    72A     -0.477949
      73A     -0.460697    74A     -0.453767    75A     -0.445829
      76A     -0.424980

  @DF-RHF Final Energy: -1327.85750404571354

   => Energetics <=

    Nuclear Repulsion Energy =           1772.5402294975485802
    One-Electron Energy =               -5357.1341125600920350
    Two-Electron Energy =                2256.7363790168301421
    Total Energy =                      -1327.8575040457135401
  Basis Set: (AUG-CC-PVTZ AUX)
    Blend: AUG-CC-PVTZ-RI
    Molecular point group: c1

    Geometry (in Angstrom), charge = 0, multiplicity = 1:

       Center              X                  Y                   Z               Mass
    ------------   -----------------  -----------------  -----------------  -----------------
         P           -2.289055887530    -0.936773945776     0.343256421127    30.973761998420
         O           -0.981112887530    -0.198292945776     0.936867421127    15.994914619570
         O            1.343290112470    -1.672213945776     1.229429421127    15.994914619570
         O            0.079745112470     2.362873054224     0.460746421127    15.994914619570
         O            3.069555112470    -2.183802945776    -0.810011578873    15.994914619570
         O            2.848375112470     2.506382054224     0.370113421127    15.994914619570
         O            4.196728112470     0.438666054224    -0.974295578873    15.994914619570
         O           -2.825822887530     0.036620054224    -0.808952578873    15.994914619570
         O           -3.258080887530    -0.720012945776     1.620249421127    15.994914619570
         O           -2.117952887530    -2.340374945776    -0.101089578873    15.994914619570
         C            0.082094312470     0.005915454224     0.041589821127    12.000000000000
         C            0.954332112470    -1.240935945776    -0.077146578873    12.000000000000
         C            0.899629112470     1.205913054224     0.563429421127    12.000000000000
         C            2.272840712470    -1.062148845776    -0.812026078873    12.000000000000
         C            2.178115112470     1.399741054224    -0.229462578873    12.000000000000
         C            3.026882112470     0.151974054224    -0.211743578873    12.000000000000
         C           -3.123172887530     1.434867054224    -0.490307578873    12.000000000000
         C           -3.535276887530     2.088434054224    -1.785540578873    12.000000000000
         H           -0.282051887530     0.302070054224    -0.971659578873     1.007825032230
         H            0.371309112470    -2.026094945776    -0.573453578873     1.007825032230
         H            1.158160112470     1.001146054224     1.610734421127     1.007825032230
         H            2.061974112470    -0.785390945776    -1.874177578873     1.007825032230
         H            1.918027112470     1.639556054224    -1.275004578873     1.007825032230
         H            3.296895112470    -0.091262945776     0.826224421127     1.007825032230
         H            0.522815112470    -1.884762945776     1.710088421127     1.007825032230
         H            0.666580112470     3.112580054224     0.681762421127     1.007825032230
         H            2.974583112470    -2.544104945776     0.093232421127     1.007825032230
         H            3.722469112470     2.552455054224    -0.060290578873     1.007825032230
         H            4.640767112470    -0.420564945776    -1.098508578873     1.007825032230
         H           -3.807354887530    -1.519068945776     1.733306421127     1.007825032230
         H           -3.929505887530     1.448810054224     0.247964421127     1.007825032230
         H           -2.228721887530     1.896149054224    -0.060517578873     1.007825032230
         H           -3.799480887530     3.134151054224    -1.604092578873     1.007825032230
         H           -2.716155887530     2.056592054224    -2.506296578873     1.007825032230
         H           -4.399903887530     1.577592054224    -2.214145578873     1.007825032230

  Basis Set: AUG-CC-PVTZ
    Blend: AUG-CC-PVTZ
  Basis Set: (AUG-CC-PVTZ AUX)
    Blend: AUG-CC-PVTZ-JKFIT
	 Reference Energy          =   -1327.8575040457135401 [Eh]
	 Singles Energy            =      -0.0000000000000000 [Eh]
	 Same-Spin Energy          =      -1.0144759427590870 [Eh]
	 Opposite-Spin Energy      =      -3.0751856761405403 [Eh]
	 Correlation Energy        =      -4.0896616188996271 [Eh]
	 Total Energy              =   -1331.9471656646130668 [Eh]

	 ================> DF-SCS-MP2 Energies <==================
	-----------------------------------------------------------
	 SCS Same-Spin Scale       =       0.3333333333333333 [-]
	 SCS Opposite-Spin Scale   =       1.2000000000000000 [-]
	 SCS Same-Spin Energy      =      -0.3381586475863623 [Eh]
	 SCS Opposite-Spin Energy  =      -3.6902228113686482 [Eh]
	 SCS Correlation Energy    =      -4.0283814589550104 [Eh]
	 SCS Total Energy          =   -1331.8858855046685221 [Eh]
	-----------------------------------------------------------

  Dipole Moment: [D]
     X:    -1.2715      Y:     1.6268      Z:     0.7765     Total:     2.2060

*** Psi4 exiting successfully. Buy a developer a beer!
