                               Psi4 1.3.2 release

  ==> Input File <==

--------------------------------------------------------------------------
#psi4
#
memory 32 gb

molecule  {
0 1
  P       -2.2914003    -0.9188544     0.3628471
  O       -0.9821530    -0.2015620     0.9382890
  O        1.3422500    -1.6754830     1.2308510
  O        0.0787050     2.3596040     0.4621680
  O        3.0685150    -2.1870720    -0.8085900
  O        2.8473350     2.5031130     0.3715350
  O        4.1956880     0.4353970    -0.9728740
  O       -2.8268630     0.0333510    -0.8075310
  O       -3.2591210    -0.7232820     1.6216710
  O       -2.1189930    -2.3436440    -0.0996680
  C        0.1181620     0.0300090     0.0163190
  C        0.9532920    -1.2442050    -0.0757250
  C        0.8985890     1.2026440     0.5648510
  C        2.2596600    -1.0143070    -0.8180370
  C        2.1770750     1.3964720    -0.2280410
  C        3.0258420     0.1487050    -0.2103220
  C       -3.1172568     1.4273236    -0.4646632
  C       -3.5363170     2.0851650    -1.7841190
  H       -0.2830920     0.2988010    -0.9702380
  H        0.3702690    -2.0293640    -0.5720320
  H        1.1571200     0.9978770     1.6121560
  H        2.0609340    -0.7886600    -1.8727560
  H        1.9169870     1.6362870    -1.2735830
  H        3.2958550    -0.0945320     0.8276460
  H        0.5217750    -1.8880320     1.7115100
  H        0.6655400     3.1093110     0.6831840
  H        2.9735430    -2.5473740     0.0946540
  H        3.7214290     2.5491860    -0.0588690
  H        4.6397270    -0.4238340    -1.0970870
  H       -3.8083950    -1.5223380     1.7347280
  H       -3.9305460     1.4455410     0.2493860
  H       -2.2297620     1.8928800    -0.0590960
  H       -3.8005210     3.1308820    -1.6026710
  H       -2.7171960     2.0533230    -2.5048750
  H       -4.4009440     1.5743230    -2.2127240
units angstrom
no_reorient  #important for SAPT in psi4, default
symmetry c1  #important for SAPT in psi4, default
}

set PROPERTIES_ORIGIN ["COM"]
properties('MP2/aug-cc-pvtz', properties = ['dipole'])
--------------------------------------------------------------------------

    Molecular point group: c1
  Charge       = 0
  Multiplicity = 1
  Basis Set: AUG-CC-PVTZ
    Blend: AUG-CC-PVTZ
  Basis Set: (AUG-CC-PVTZ AUX)
    Blend: AUG-CC-PVTZ-JKFIT

    Orbital Energies [Eh]
    ---------------------

    Doubly Occupied:

       1A    -80.117264     2A    -20.618397     3A    -20.609690
       4A    -20.600201     5A    -20.583331     6A    -20.577387
       7A    -20.574752     8A    -20.574551     9A    -20.574385
      10A    -20.517526    11A    -11.322676    12A    -11.303682
      13A    -11.299699    14A    -11.299588    15A    -11.298771
      16A    -11.297397    17A    -11.291805    18A    -11.230704
      19A     -7.632526    20A     -5.531125    21A     -5.530716
      22A     -5.529281    23A     -1.465349    24A     -1.412955
      25A     -1.398065    26A     -1.394067    27A     -1.389916
      28A     -1.374362    29A     -1.364488    30A     -1.354384
      31A     -1.288079    32A     -1.120177    33A     -1.035631
      34A     -1.013683    35A     -1.003979    36A     -0.882293
      37A     -0.866903    38A     -0.859832    39A     -0.826512
      40A     -0.811478    41A     -0.753115    42A     -0.747679
      43A     -0.733545    44A     -0.730934    45A     -0.710174
      46A     -0.688410    47A     -0.678819    48A     -0.675346
      49A     -0.664361    50A     -0.662147    51A     -0.644834
      52A     -0.636197    53A     -0.628230    54A     -0.615906
      55A     -0.605488    56A     -0.598781    57A     -0.579750
      58A     -0.577000    59A     -0.570839    60A     -0.558909
      61A     -0.555595    62A     -0.548255    63A     -0.540547
      64A     -0.536657    65A     -0.531704    66A     -0.520641
      67A     -0.511496    68A     -0.504388    69A     -0.497282
      70A     -0.486943    71A     -0.478142    72A     -0.467557
      73A     -0.460735    74A     -0.456443    75A     -0.449704
      76A     -0.435889

  @DF-RHF Final Energy: -1327.85980498885488

   => Energetics <=

    Nuclear Repulsion Energy =           1772.9381648896167007
    One-Electron Energy =               -5357.9558347916736238
    Two-Electron Energy =                2257.1578649132015926
    Total Energy =                      -1327.8598049888551031
  Basis Set: (AUG-CC-PVTZ AUX)
    Blend: AUG-CC-PVTZ-RI
    Molecular point group: c1

    Geometry (in Angstrom), charge = 0, multiplicity = 1:

       Center              X                  Y                   Z               Mass
    ------------   -----------------  -----------------  -----------------  -----------------
         P           -2.291549802575    -0.920954624335     0.359884388695    30.973761998420
         O           -0.982302502575    -0.203662224335     0.935326288695    15.994914619570
         O            1.342100497425    -1.677583224335     1.227888288695    15.994914619570
         O            0.078555497425     2.357503775665     0.459205288695    15.994914619570
         O            3.068365497425    -2.189172224335    -0.811552711305    15.994914619570
         O            2.847185497425     2.501012775665     0.368572288695    15.994914619570
         O            4.195538497425     0.433296775665    -0.975836711305    15.994914619570
         O           -2.827012502575     0.031250775665    -0.810493711305    15.994914619570
         O           -3.259270502575    -0.725382224335     1.618708288695    15.994914619570
         O           -2.119142502575    -2.345744224335    -0.102630711305    15.994914619570
         C            0.118012497425     0.027908775665     0.013356288695    12.000000000000
         C            0.953142497425    -1.246305224335    -0.078687711305    12.000000000000
         C            0.898439497425     1.200543775665     0.561888288695    12.000000000000
         C            2.259510497425    -1.016407224335    -0.820999711305    12.000000000000
         C            2.176925497425     1.394371775665    -0.231003711305    12.000000000000
         C            3.025692497425     0.146604775665    -0.213284711305    12.000000000000
         C           -3.117406302575     1.425223375665    -0.467625911305    12.000000000000
         C           -3.536466502575     2.083064775665    -1.787081711305    12.000000000000
         H           -0.283241502575     0.296700775665    -0.973200711305     1.007825032230
         H            0.370119497425    -2.031464224335    -0.574994711305     1.007825032230
         H            1.156970497425     0.995776775665     1.609193288695     1.007825032230
         H            2.060784497425    -0.790760224335    -1.875718711305     1.007825032230
         H            1.916837497425     1.634186775665    -1.276545711305     1.007825032230
         H            3.295705497425    -0.096632224335     0.824683288695     1.007825032230
         H            0.521625497425    -1.890132224335     1.708547288695     1.007825032230
         H            0.665390497425     3.107210775665     0.680221288695     1.007825032230
         H            2.973393497425    -2.549474224335     0.091691288695     1.007825032230
         H            3.721279497425     2.547085775665    -0.061831711305     1.007825032230
         H            4.639577497425    -0.425934224335    -1.100049711305     1.007825032230
         H           -3.808544502575    -1.524438224335     1.731765288695     1.007825032230
         H           -3.930695502575     1.443440775665     0.246423288695     1.007825032230
         H           -2.229911502575     1.890779775665    -0.062058711305     1.007825032230
         H           -3.800670502575     3.128781775665    -1.605633711305     1.007825032230
         H           -2.717345502575     2.051222775665    -2.507837711305     1.007825032230
         H           -4.401093502575     1.572222775665    -2.215686711305     1.007825032230

  Basis Set: AUG-CC-PVTZ
    Blend: AUG-CC-PVTZ
  Basis Set: (AUG-CC-PVTZ AUX)
    Blend: AUG-CC-PVTZ-JKFIT
	 Reference Energy          =   -1327.8598049888548758 [Eh]
	 Singles Energy            =      -0.0000000000000000 [Eh]
	 Same-Spin Energy          =      -1.0146440353481572 [Eh]
	 Opposite-Spin Energy      =      -3.0761688521155914 [Eh]
	 Correlation Energy        =      -4.0908128874637484 [Eh]
	 Total Energy              =   -1331.9506178763185744 [Eh]

	 ================> DF-SCS-MP2 Energies <==================
	-----------------------------------------------------------
	 SCS Same-Spin Scale       =       0.3333333333333333 [-]
	 SCS Opposite-Spin Scale   =       1.2000000000000000 [-]
	 SCS Same-Spin Energy      =      -0.3382146784493857 [Eh]
	 SCS Opposite-Spin Energy  =      -3.6914026225387095 [Eh]
	 SCS Correlation Energy    =      -4.0296173009880949 [Eh]
	 SCS Total Energy          =   -1331.8894222898429689 [Eh]
	-----------------------------------------------------------

  Dipole Moment: [D]
     X:    -1.0786      Y:     2.0374      Z:     0.9014     Total:     2.4753

*** Psi4 exiting successfully. Buy a developer a beer!
