                               Psi4 1.3.2 release

  ==> Input File <==

--------------------------------------------------------------------------
#psi4
#
memory 32 gb

molecule  {
0 1
  P       -2.2900960    -0.9400430     0.3446780
  O       -0.9821530    -0.2015620     0.9382890
  O        1.3422500    -1.6754830     1.2308510
  O        0.0969130     2.3731336     0.4722242
  O        3.0685150    -2.1870720    -0.8085900
  O        2.8473350     2.5031130     0.3715350
  O        4.1956880     0.4353970    -0.9728740
  O       -2.8268630     0.0333510    -0.8075310
  O       -3.2591210    -0.7232820     1.6216710
  O       -2.1189930    -2.3436440    -0.0996680
  C        0.1386674     0.0142368     0.0214967
  C        0.9532920    -1.2442050    -0.0757250
  C        0.8985890     1.2026440     0.5648510
  C        2.2596600    -1.0143070    -0.8180370
  C        2.1770750     1.3964720    -0.2280410
  C        3.0258420     0.1487050    -0.2103220
  C       -3.1242130     1.4315980    -0.4888860
  C       -3.5363170     2.0851650    -1.7841190
  H       -0.2830920     0.2988010    -0.9702380
  H        0.3702690    -2.0293640    -0.5720320
  H        1.1571200     0.9978770     1.6121560
  H        2.0609340    -0.7886600    -1.8727560
  H        1.9169870     1.6362870    -1.2735830
  H        3.2958550    -0.0945320     0.8276460
  H        0.5217750    -1.8880320     1.7115100
  H        0.6655400     3.1093110     0.6831840
  H        2.9735430    -2.5473740     0.0946540
  H        3.7214290     2.5491860    -0.0588690
  H        4.6397270    -0.4238340    -1.0970870
  H       -3.8083950    -1.5223380     1.7347280
  H       -3.9305460     1.4455410     0.2493860
  H       -2.2297620     1.8928800    -0.0590960
  H       -3.8005210     3.1308820    -1.6026710
  H       -2.7171960     2.0533230    -2.5048750
  H       -4.4009440     1.5743230    -2.2127240
units angstrom
no_reorient  #important for SAPT in psi4, default
symmetry c1  #important for SAPT in psi4, default
}

set PROPERTIES_ORIGIN ["COM"]
properties('MP2/aug-cc-pvtz', properties = ['dipole'])
--------------------------------------------------------------------------

    Molecular point group: c1
  Charge       = 0
  Multiplicity = 1
  Basis Set: AUG-CC-PVTZ
    Blend: AUG-CC-PVTZ
  Basis Set: (AUG-CC-PVTZ AUX)
    Blend: AUG-CC-PVTZ-JKFIT

    Orbital Energies [Eh]
    ---------------------

    Doubly Occupied:

       1A    -80.116519     2A    -20.614438     3A    -20.605985
       4A    -20.598665     5A    -20.583705     6A    -20.576448
       7A    -20.575350     8A    -20.574400     9A    -20.571244
      10A    -20.523186    11A    -11.322831    12A    -11.304023
      13A    -11.300336    14A    -11.299547    15A    -11.299389
      16A    -11.296614    17A    -11.291781    18A    -11.229813
      19A     -7.631951    20A     -5.530452    21A     -5.530081
      22A     -5.528897    23A     -1.459011    24A     -1.411505
      25A     -1.395296    26A     -1.393142    27A     -1.386625
      28A     -1.373354    29A     -1.365293    30A     -1.354430
      31A     -1.303547    32A     -1.122420    33A     -1.040376
      34A     -1.013693    35A     -1.005785    36A     -0.879696
      37A     -0.864674    38A     -0.861698    39A     -0.821855
      40A     -0.809886    41A     -0.753853    42A     -0.744776
      43A     -0.733109    44A     -0.727537    45A     -0.708414
      46A     -0.689382    47A     -0.679213    48A     -0.673521
      49A     -0.662217    50A     -0.661019    51A     -0.644916
      52A     -0.635192    53A     -0.627066    54A     -0.615983
      55A     -0.603562    56A     -0.599301    57A     -0.582101
      58A     -0.575360    59A     -0.570799    60A     -0.558903
      61A     -0.557073    62A     -0.548662    63A     -0.541112
      64A     -0.537183    65A     -0.528411    66A     -0.521342
      67A     -0.513066    68A     -0.504327    69A     -0.496742
      70A     -0.484848    71A     -0.480071    72A     -0.476718
      73A     -0.463258    74A     -0.455965    75A     -0.452274
      76A     -0.437147

  @DF-RHF Final Energy: -1327.86144288856849

   => Energetics <=

    Nuclear Repulsion Energy =           1772.2677053794998301
    One-Electron Energy =               -5356.6335721679752169
    Two-Electron Energy =                2256.5044238999071240
    Total Energy =                      -1327.8614428885684902
  Basis Set: (AUG-CC-PVTZ AUX)
    Blend: AUG-CC-PVTZ-RI
    Molecular point group: c1

    Geometry (in Angstrom), charge = 0, multiplicity = 1:

       Center              X                  Y                   Z               Mass
    ------------   -----------------  -----------------  -----------------  -----------------
         P           -2.291961197689    -0.940137192910     0.343903917065    30.973761998420
         O           -0.984018197689    -0.201656192910     0.937514917065    15.994914619570
         O            1.340384802311    -1.675577192910     1.230076917065    15.994914619570
         O            0.095047802311     2.373039407090     0.471450117065    15.994914619570
         O            3.066649802311    -2.187166192910    -0.809364082935    15.994914619570
         O            2.845469802311     2.503018807090     0.370760917065    15.994914619570
         O            4.193822802311     0.435302807090    -0.973648082935    15.994914619570
         O           -2.828728197689     0.033256807090    -0.808305082935    15.994914619570
         O           -3.260986197689    -0.723376192910     1.620896917065    15.994914619570
         O           -2.120858197689    -2.343738192910    -0.100442082935    15.994914619570
         C            0.136802202311     0.014142607090     0.020722617065    12.000000000000
         C            0.951426802311    -1.244299192910    -0.076499082935    12.000000000000
         C            0.896723802311     1.202549807090     0.564076917065    12.000000000000
         C            2.257794802311    -1.014401192910    -0.818811082935    12.000000000000
         C            2.175209802311     1.396377807090    -0.228815082935    12.000000000000
         C            3.023976802311     0.148610807090    -0.211096082935    12.000000000000
         C           -3.126078197689     1.431503807090    -0.489660082935    12.000000000000
         C           -3.538182197689     2.085070807090    -1.784893082935    12.000000000000
         H           -0.284957197689     0.298706807090    -0.971012082935     1.007825032230
         H            0.368403802311    -2.029458192910    -0.572806082935     1.007825032230
         H            1.155254802311     0.997782807090     1.611381917065     1.007825032230
         H            2.059068802311    -0.788754192910    -1.873530082935     1.007825032230
         H            1.915121802311     1.636192807090    -1.274357082935     1.007825032230
         H            3.293989802311    -0.094626192910     0.826871917065     1.007825032230
         H            0.519909802311    -1.888126192910     1.710735917065     1.007825032230
         H            0.663674802311     3.109216807090     0.682409917065     1.007825032230
         H            2.971677802311    -2.547468192910     0.093879917065     1.007825032230
         H            3.719563802311     2.549091807090    -0.059643082935     1.007825032230
         H            4.637861802311    -0.423928192910    -1.097861082935     1.007825032230
         H           -3.810260197689    -1.522432192910     1.733953917065     1.007825032230
         H           -3.932411197689     1.445446807090     0.248611917065     1.007825032230
         H           -2.231627197689     1.892785807090    -0.059870082935     1.007825032230
         H           -3.802386197689     3.130787807090    -1.603445082935     1.007825032230
         H           -2.719061197689     2.053228807090    -2.505649082935     1.007825032230
         H           -4.402809197689     1.574228807090    -2.213498082935     1.007825032230

  Basis Set: AUG-CC-PVTZ
    Blend: AUG-CC-PVTZ
  Basis Set: (AUG-CC-PVTZ AUX)
    Blend: AUG-CC-PVTZ-JKFIT
	 Reference Energy          =   -1327.8614428885684902 [Eh]
	 Singles Energy            =      -0.0000000000000000 [Eh]
	 Same-Spin Energy          =      -1.0143829882691495 [Eh]
	 Opposite-Spin Energy      =      -3.0754060804127898 [Eh]
	 Correlation Energy        =      -4.0897890686819398 [Eh]
	 Total Energy              =   -1331.9512319572504566 [Eh]

	 ================> DF-SCS-MP2 Energies <==================
	-----------------------------------------------------------
	 SCS Same-Spin Scale       =       0.3333333333333333 [-]
	 SCS Opposite-Spin Scale   =       1.2000000000000000 [-]
	 SCS Same-Spin Energy      =      -0.3381276627563832 [Eh]
	 SCS Opposite-Spin Energy  =      -3.6904872964953475 [Eh]
	 SCS Correlation Energy    =      -4.0286149592517306 [Eh]
	 SCS Total Energy          =   -1331.8900578478201169 [Eh]
	-----------------------------------------------------------

  Dipole Moment: [D]
     X:    -1.0784      Y:     1.8171      Z:     0.6958     Total:     2.2246

*** Psi4 exiting successfully. Buy a developer a beer!
