                               Psi4 1.3.2 release

  ==> Input File <==

--------------------------------------------------------------------------
#psi4
#
memory 32 gb

molecule  {
0 1
  P       -2.2900960    -0.9400430     0.3446780
  O       -0.9821530    -0.2015620     0.9382890
  O        1.3422500    -1.6754830     1.2308510
  O        0.0787050     2.3596040     0.4621680
  O        3.0685150    -2.1870720    -0.8085900
  O        2.8473350     2.5031130     0.3715350
  O        4.1956880     0.4353970    -0.9728740
  O       -2.8268630     0.0333510    -0.8075310
  O       -3.2591210    -0.7232820     1.6216710
  O       -2.1189930    -2.3436440    -0.0996680
  C        0.1384801     0.0421655     0.0285253
  C        0.9532920    -1.2442050    -0.0757250
  C        0.8985890     1.2026440     0.5648510
  C        2.2596600    -1.0143070    -0.8180370
  C        2.1770750     1.3964720    -0.2280410
  C        3.0258420     0.1487050    -0.2103220
  C       -3.1242130     1.4315980    -0.4888860
  C       -3.5363170     2.0851650    -1.7841190
  H       -0.2830920     0.2988010    -0.9702380
  H        0.3850758    -2.0413400    -0.5701106
  H        1.1571200     0.9978770     1.6121560
  H        2.0609340    -0.7886600    -1.8727560
  H        1.9169870     1.6362870    -1.2735830
  H        3.2958550    -0.0945320     0.8276460
  H        0.5217750    -1.8880320     1.7115100
  H        0.6655400     3.1093110     0.6831840
  H        2.9735430    -2.5473740     0.0946540
  H        3.7214290     2.5491860    -0.0588690
  H        4.6397270    -0.4238340    -1.0970870
  H       -3.8083950    -1.5223380     1.7347280
  H       -3.9305460     1.4455410     0.2493860
  H       -2.2297620     1.8928800    -0.0590960
  H       -3.8005210     3.1308820    -1.6026710
  H       -2.7171960     2.0533230    -2.5048750
  H       -4.4009440     1.5743230    -2.2127240
units angstrom
no_reorient  #important for SAPT in psi4, default
symmetry c1  #important for SAPT in psi4, default
}

set PROPERTIES_ORIGIN ["COM"]
properties('MP2/aug-cc-pvtz', properties = ['dipole'])
--------------------------------------------------------------------------

    Molecular point group: c1
  Charge       = 0
  Multiplicity = 1
  Basis Set: AUG-CC-PVTZ
    Blend: AUG-CC-PVTZ
  Basis Set: (AUG-CC-PVTZ AUX)
    Blend: AUG-CC-PVTZ-JKFIT

    Orbital Energies [Eh]
    ---------------------

    Doubly Occupied:

       1A    -80.116263     2A    -20.614169     3A    -20.604931
       4A    -20.598254     5A    -20.582752     6A    -20.577407
       7A    -20.574929     8A    -20.574525     9A    -20.574378
      10A    -20.522622    11A    -11.322262    12A    -11.304373
      13A    -11.299457    14A    -11.298931    15A    -11.298693
      16A    -11.297619    17A    -11.291946    18A    -11.229539
      19A     -7.631631    20A     -5.530126    21A     -5.529787
      22A     -5.528578    23A     -1.458363    24A     -1.410855
      25A     -1.394544    26A     -1.392692    27A     -1.386226
      28A     -1.372128    29A     -1.364538    30A     -1.354229
      31A     -1.302962    32A     -1.121986    33A     -1.040046
      34A     -1.013244    35A     -1.005200    36A     -0.880070
      37A     -0.864646    38A     -0.859923    39A     -0.822017
      40A     -0.809978    41A     -0.752344    42A     -0.744405
      43A     -0.731770    44A     -0.727182    45A     -0.708442
      46A     -0.687020    47A     -0.678395    48A     -0.673061
      49A     -0.662584    50A     -0.660870    51A     -0.643276
      52A     -0.635166    53A     -0.626712    54A     -0.615451
      55A     -0.603425    56A     -0.599368    57A     -0.582549
      58A     -0.574820    59A     -0.570287    60A     -0.559242
      61A     -0.556612    62A     -0.547920    63A     -0.540700
      64A     -0.537385    65A     -0.528103    66A     -0.522964
      67A     -0.512896    68A     -0.503990    69A     -0.497463
      70A     -0.483987    71A     -0.479514    72A     -0.475907
      73A     -0.463258    74A     -0.456443    75A     -0.451735
      76A     -0.437021

  @DF-RHF Final Energy: -1327.86023032724370

   => Energetics <=

    Nuclear Repulsion Energy =           1772.4647184027080584
    One-Electron Energy =               -5357.0717187140444366
    Two-Electron Energy =                2256.7467699840926798
    Total Energy =                      -1327.8602303272436984
  Basis Set: (AUG-CC-PVTZ AUX)
    Blend: AUG-CC-PVTZ-RI
    Molecular point group: c1

    Geometry (in Angstrom), charge = 0, multiplicity = 1:

       Center              X                  Y                   Z               Mass
    ------------   -----------------  -----------------  -----------------  -----------------
         P           -2.290994179164    -0.940507496017     0.344162780362    30.973761998420
         O           -0.983051179164    -0.202026496017     0.937773780362    15.994914619570
         O            1.341351820836    -1.675947496017     1.230335780362    15.994914619570
         O            0.077806820836     2.359139503983     0.461652780362    15.994914619570
         O            3.067616820836    -2.187536496017    -0.809105219638    15.994914619570
         O            2.846436820836     2.502648503983     0.371019780362    15.994914619570
         O            4.194789820836     0.434932503983    -0.973389219638    15.994914619570
         O           -2.827761179164     0.032886503983    -0.808046219638    15.994914619570
         O           -3.260019179164    -0.723746496017     1.621155780362    15.994914619570
         O           -2.119891179164    -2.344108496017    -0.100183219638    15.994914619570
         C            0.137581920836     0.041701003983     0.028010080362    12.000000000000
         C            0.952393820836    -1.244669496017    -0.076240219638    12.000000000000
         C            0.897690820836     1.202179503983     0.564335780362    12.000000000000
         C            2.258761820836    -1.014771496017    -0.818552219638    12.000000000000
         C            2.176176820836     1.396007503983    -0.228556219638    12.000000000000
         C            3.024943820836     0.148240503983    -0.210837219638    12.000000000000
         C           -3.125111179164     1.431133503983    -0.489401219638    12.000000000000
         C           -3.537215179164     2.084700503982    -1.784634219638    12.000000000000
         H           -0.283990179164     0.298336503983    -0.970753219638     1.007825032230
         H            0.384177620836    -2.041804496017    -0.570625819638     1.007825032230
         H            1.156221820836     0.997412503983     1.611640780362     1.007825032230
         H            2.060035820836    -0.789124496017    -1.873271219638     1.007825032230
         H            1.916088820836     1.635822503983    -1.274098219638     1.007825032230
         H            3.294956820836    -0.094996496017     0.827130780362     1.007825032230
         H            0.520876820836    -1.888496496017     1.710994780362     1.007825032230
         H            0.664641820836     3.108846503983     0.682668780362     1.007825032230
         H            2.972644820836    -2.547838496017     0.094138780362     1.007825032230
         H            3.720530820836     2.548721503983    -0.059384219638     1.007825032230
         H            4.638828820836    -0.424298496017    -1.097602219638     1.007825032230
         H           -3.809293179164    -1.522802496017     1.734212780362     1.007825032230
         H           -3.931444179164     1.445076503983     0.248870780362     1.007825032230
         H           -2.230660179164     1.892415503983    -0.059611219638     1.007825032230
         H           -3.801419179164     3.130417503983    -1.603186219638     1.007825032230
         H           -2.718094179164     2.052858503983    -2.505390219638     1.007825032230
         H           -4.401842179164     1.573858503983    -2.213239219638     1.007825032230

  Basis Set: AUG-CC-PVTZ
    Blend: AUG-CC-PVTZ
  Basis Set: (AUG-CC-PVTZ AUX)
    Blend: AUG-CC-PVTZ-JKFIT
	 Reference Energy          =   -1327.8602303272436984 [Eh]
	 Singles Energy            =      -0.0000000000000000 [Eh]
	 Same-Spin Energy          =      -1.0147536880522305 [Eh]
	 Opposite-Spin Energy      =      -3.0762681146295514 [Eh]
	 Correlation Energy        =      -4.0910218026817819 [Eh]
	 Total Energy              =   -1331.9512521299254786 [Eh]

	 ================> DF-SCS-MP2 Energies <==================
	-----------------------------------------------------------
	 SCS Same-Spin Scale       =       0.3333333333333333 [-]
	 SCS Opposite-Spin Scale   =       1.2000000000000000 [-]
	 SCS Same-Spin Energy      =      -0.3382512293507435 [Eh]
	 SCS Opposite-Spin Energy  =      -3.6915217375554614 [Eh]
	 SCS Correlation Energy    =      -4.0297729669062052 [Eh]
	 SCS Total Energy          =   -1331.8900032941498921 [Eh]
	-----------------------------------------------------------

  Dipole Moment: [D]
     X:    -1.0282      Y:     1.8828      Z:     0.7175     Total:     2.2621

*** Psi4 exiting successfully. Buy a developer a beer!
