                               Psi4 1.3.2 release

  ==> Input File <==

--------------------------------------------------------------------------
#psi4
#
memory 32 gb

molecule  {
0 1
  P       -2.2900960    -0.9400430     0.3446780
  O       -0.9821530    -0.2015620     0.9382890
  O        1.3422500    -1.6754830     1.2308510
  O        0.0787050     2.3596040     0.4621680
  O        3.0685150    -2.1870720    -0.8085900
  O        2.8473350     2.5031130     0.3715350
  O        4.1956880     0.4353970    -0.9728740
  O       -2.8268630     0.0333510    -0.8075310
  O       -3.2591210    -0.7232820     1.6216710
  O       -2.1189930    -2.3436440    -0.0996680
  C        0.1181620     0.0300090     0.0163190
  C        0.9532920    -1.2442050    -0.0757250
  C        0.8985890     1.2026440     0.5648510
  C        2.2477267    -1.0232095    -0.7705898
  C        2.1770750     1.3964720    -0.2280410
  C        3.0258420     0.1487050    -0.2103220
  C       -3.1242130     1.4315980    -0.4888860
  C       -3.5363170     2.0851650    -1.7841190
  H       -0.2830920     0.2988010    -0.9702380
  H        0.3702690    -2.0293640    -0.5720320
  H        1.1571200     0.9978770     1.6121560
  H        2.0609340    -0.7886600    -1.8727560
  H        1.9169870     1.6362870    -1.2735830
  H        3.2958550    -0.0945320     0.8276460
  H        0.5217750    -1.8880320     1.7115100
  H        0.6655400     3.1093110     0.6831840
  H        2.9527096    -2.5214378     0.1021655
  H        3.7214290     2.5491860    -0.0588690
  H        4.6397270    -0.4238340    -1.0970870
  H       -3.8083950    -1.5223380     1.7347280
  H       -3.9305460     1.4455410     0.2493860
  H       -2.2297620     1.8928800    -0.0590960
  H       -3.8005210     3.1308820    -1.6026710
  H       -2.7171960     2.0533230    -2.5048750
  H       -4.4009440     1.5743230    -2.2127240
units angstrom
no_reorient  #important for SAPT in psi4, default
symmetry c1  #important for SAPT in psi4, default
}

set PROPERTIES_ORIGIN ["COM"]
properties('MP2/aug-cc-pvtz', properties = ['dipole'])
--------------------------------------------------------------------------

    Molecular point group: c1
  Charge       = 0
  Multiplicity = 1
  Basis Set: AUG-CC-PVTZ
    Blend: AUG-CC-PVTZ
  Basis Set: (AUG-CC-PVTZ AUX)
    Blend: AUG-CC-PVTZ-JKFIT

    Orbital Energies [Eh]
    ---------------------

    Doubly Occupied:

       1A    -80.117591     2A    -20.615250     3A    -20.608125
       4A    -20.599392     5A    -20.584117     6A    -20.576796
       7A    -20.576706     8A    -20.575423     9A    -20.573903
      10A    -20.524099    11A    -11.322101    12A    -11.303648
      13A    -11.300394    14A    -11.299716    15A    -11.299205
      16A    -11.296921    17A    -11.291862    18A    -11.230066
      19A     -7.633044    20A     -5.531550    21A     -5.531177
      22A     -5.529974    23A     -1.461038    24A     -1.412999
      25A     -1.395275    26A     -1.394822    27A     -1.387355
      28A     -1.373673    29A     -1.365266    30A     -1.354818
      31A     -1.304486    32A     -1.121909    33A     -1.040758
      34A     -1.012993    35A     -1.006973    36A     -0.882436
      37A     -0.865806    38A     -0.856909    39A     -0.822305
      40A     -0.809096    41A     -0.754488    42A     -0.746646
      43A     -0.732833    44A     -0.729268    45A     -0.708613
      46A     -0.687814    47A     -0.677989    48A     -0.674712
      49A     -0.662611    50A     -0.659076    51A     -0.644443
      52A     -0.635047    53A     -0.628332    54A     -0.615954
      55A     -0.603723    56A     -0.598485    57A     -0.581818
      58A     -0.575524    59A     -0.572790    60A     -0.559640
      61A     -0.555732    62A     -0.549012    63A     -0.541662
      64A     -0.535930    65A     -0.528814    66A     -0.520685
      67A     -0.513202    68A     -0.505775    69A     -0.497802
      70A     -0.487076    71A     -0.480457    72A     -0.477290
      73A     -0.463643    74A     -0.456304    75A     -0.451187
      76A     -0.437422

  @DF-RHF Final Energy: -1327.85642544162397

   => Energetics <=

    Nuclear Repulsion Energy =           1773.3403832548881383
    One-Electron Energy =               -5358.7100689461212824
    Two-Electron Energy =                2257.5132602496087202
    Total Energy =                      -1327.8564254416241965
  Basis Set: (AUG-CC-PVTZ AUX)
    Blend: AUG-CC-PVTZ-RI
    Molecular point group: c1

    Geometry (in Angstrom), charge = 0, multiplicity = 1:

       Center              X                  Y                   Z               Mass
    ------------   -----------------  -----------------  -----------------  -----------------
         P           -2.289525962857    -0.939762865118     0.342675162760    30.973761998420
         O           -0.981582962857    -0.201281865118     0.936286162760    15.994914619570
         O            1.342820037143    -1.675202865118     1.228848162760    15.994914619570
         O            0.079275037143     2.359884134882     0.460165162760    15.994914619570
         O            3.069085037143    -2.186791865118    -0.810592837240    15.994914619570
         O            2.847905037143     2.503393134882     0.369532162760    15.994914619570
         O            4.196258037143     0.435677134882    -0.974876837240    15.994914619570
         O           -2.826292962857     0.033631134882    -0.809533837240    15.994914619570
         O           -3.258550962857    -0.723001865118     1.619668162760    15.994914619570
         O           -2.118422962857    -2.343363865118    -0.101670837240    15.994914619570
         C            0.118732037143     0.030289134882     0.014316162760    12.000000000000
         C            0.953862037143    -1.243924865118    -0.077727837240    12.000000000000
         C            0.899159037143     1.202924134882     0.562848162760    12.000000000000
         C            2.248296737143    -1.022929365118    -0.772592637240    12.000000000000
         C            2.177645037143     1.396752134882    -0.230043837240    12.000000000000
         C            3.026412037143     0.148985134882    -0.212324837240    12.000000000000
         C           -3.123642962857     1.431878134882    -0.490888837240    12.000000000000
         C           -3.535746962857     2.085445134882    -1.786121837240    12.000000000000
         H           -0.282521962857     0.299081134882    -0.972240837240     1.007825032230
         H            0.370839037143    -2.029083865118    -0.574034837240     1.007825032230
         H            1.157690037143     0.998157134882     1.610153162760     1.007825032230
         H            2.061504037143    -0.788379865118    -1.874758837240     1.007825032230
         H            1.917557037143     1.636567134882    -1.275585837240     1.007825032230
         H            3.296425037143    -0.094251865118     0.825643162760     1.007825032230
         H            0.522345037143    -1.887751865118     1.709507162760     1.007825032230
         H            0.666110037143     3.109591134882     0.681181162760     1.007825032230
         H            2.953279637143    -2.521157665118     0.100162662760     1.007825032230
         H            3.721999037143     2.549466134882    -0.060871837240     1.007825032230
         H            4.640297037143    -0.423553865118    -1.099089837240     1.007825032230
         H           -3.807824962857    -1.522057865118     1.732725162760     1.007825032230
         H           -3.929975962857     1.445821134882     0.247383162760     1.007825032230
         H           -2.229191962857     1.893160134882    -0.061098837240     1.007825032230
         H           -3.799950962857     3.131162134882    -1.604673837240     1.007825032230
         H           -2.716625962857     2.053603134882    -2.506877837240     1.007825032230
         H           -4.400373962857     1.574603134882    -2.214726837240     1.007825032230

  Basis Set: AUG-CC-PVTZ
    Blend: AUG-CC-PVTZ
  Basis Set: (AUG-CC-PVTZ AUX)
    Blend: AUG-CC-PVTZ-JKFIT
	 Reference Energy          =   -1327.8564254416239692 [Eh]
	 Singles Energy            =      -0.0000000000000000 [Eh]
	 Same-Spin Energy          =      -1.0153077514769191 [Eh]
	 Opposite-Spin Energy      =      -3.0771800844444646 [Eh]
	 Correlation Energy        =      -4.0924878359213839 [Eh]
	 Total Energy              =   -1331.9489132775454436 [Eh]

	 ================> DF-SCS-MP2 Energies <==================
	-----------------------------------------------------------
	 SCS Same-Spin Scale       =       0.3333333333333333 [-]
	 SCS Opposite-Spin Scale   =       1.2000000000000000 [-]
	 SCS Same-Spin Energy      =      -0.3384359171589730 [Eh]
	 SCS Opposite-Spin Energy  =      -3.6926161013333574 [Eh]
	 SCS Correlation Energy    =      -4.0310520184923302 [Eh]
	 SCS Total Energy          =   -1331.8874774601163153 [Eh]
	-----------------------------------------------------------

  Dipole Moment: [D]
     X:    -1.1796      Y:     1.8906      Z:     0.7748     Total:     2.3593

*** Psi4 exiting successfully. Buy a developer a beer!
