                               Psi4 1.4a3.dev225

  ==> Input File <==

--------------------------------------------------------------------------
#psi4
#
memory 32 gb

molecule  {
0 1
  P       -2.3219140    -1.0563120    -0.0968450
  O       -1.0285840    -0.5623410     0.7549430
  O        1.3695440    -1.8069540     1.2202350
  O       -0.1592450     2.1412630     0.5207450
  O        3.3269040    -2.0858120    -0.6453880
  O        2.5724350     2.5270130     0.6374560
  O        4.2203020     0.6406430    -0.6358120
  O       -2.8737010     0.2643620    -0.8096810
  O       -3.3065970    -1.3497020     1.1531960
  O       -2.1044560    -2.1814480    -1.0350500
  C        0.1200290    -0.1583450    -0.0432010
  C        1.0822430    -1.3683592    -0.1054770
  C        0.7441670     1.0454510     0.6308160
  C        2.4193320    -0.9866070    -0.7068450
  C        2.0603010     1.3853380    -0.0470020
  C        3.0180900     0.2181970     0.0056710
  C       -3.2473180     1.4231610     0.0025120
  C       -3.2076300     2.6262440    -0.9075720
  H       -0.2047330     0.1313700    -1.0514980
  H        0.5965010    -2.1549610    -0.6866410
  H        0.9371260     0.8063110     1.6860210
  H        2.3054700    -0.7437210    -1.7704410
  H        1.8633300     1.6367370    -1.1028410
  H        3.2142070    -0.0417910     1.0561650
  H        0.5126160    -2.0057500     1.6426110
  H        0.3598300     2.9232990     0.7925780
  H        3.1793900    -2.4823080     0.2360710
  H        3.4672560     2.6739710     0.2770410
  H        4.7639490    -0.1654590    -0.7244900
  H       -3.7873380    -2.1826420     0.9908450
  H       -4.2474700     1.2335250     0.4005830
  H       -2.5352900     1.5309660     0.8217280
  H       -3.5402110     3.5125760    -0.3587690
  H       -2.1856630     2.7912820    -1.2511950
  H       -3.8637180     2.4807570    -1.7684970
units angstrom
no_reorient  #important for SAPT in psi4, default
symmetry c1  #important for SAPT in psi4, default
}

set PROPERTIES_ORIGIN ["COM"]
properties('MP2/aug-cc-pvtz', properties = ['dipole'])
--------------------------------------------------------------------------

    Molecular point group: c1
  Charge       = 0
  Multiplicity = 1
  Basis Set: AUG-CC-PVTZ
    Blend: AUG-CC-PVTZ
  Basis Set: (AUG-CC-PVTZ AUX)
    Blend: AUG-CC-PVTZ-JKFIT

    Orbital Energies [Eh]
    ---------------------

    Doubly Occupied:

       1A    -80.116693     2A    -20.614919     3A    -20.607861
       4A    -20.595865     5A    -20.584671     6A    -20.578426
       7A    -20.575612     8A    -20.574776     9A    -20.574393
      10A    -20.522490    11A    -11.321353    12A    -11.305296
      13A    -11.300285    14A    -11.299910    15A    -11.298270
      16A    -11.296022    17A    -11.293283    18A    -11.222781
      19A     -7.631955    20A     -5.530489    21A     -5.529986
      22A     -5.528928    23A     -1.458218    24A     -1.411542
      25A     -1.395704    26A     -1.392936    27A     -1.385056
      28A     -1.373245    29A     -1.364504    30A     -1.354471
      31A     -1.302658    32A     -1.117347    33A     -1.035361
      34A     -1.009609    35A     -1.004240    36A     -0.878299
      37A     -0.862425    38A     -0.858742    39A     -0.822598
      40A     -0.810392    41A     -0.754098    42A     -0.746183
      43A     -0.729438    44A     -0.726001    45A     -0.705316
      46A     -0.686991    47A     -0.679696    48A     -0.675135
      49A     -0.662639    50A     -0.659400    51A     -0.641638
      52A     -0.637713    53A     -0.624270    54A     -0.613171
      55A     -0.604029    56A     -0.597184    57A     -0.580552
      58A     -0.577930    59A     -0.570036    60A     -0.560024
      61A     -0.555198    62A     -0.548286    63A     -0.538933
      64A     -0.537977    65A     -0.530742    66A     -0.517847
      67A     -0.508275    68A     -0.503850    69A     -0.494892
      70A     -0.486760    71A     -0.477870    72A     -0.475126
      73A     -0.462044    74A     -0.457269    75A     -0.449501
      76A     -0.437472

  @DF-RHF Final Energy: -1327.86095716313639

   => Energetics <=

    Nuclear Repulsion Energy =           1774.3446180778653343
    One-Electron Energy =               -5360.9009616858238587
    Two-Electron Energy =                2258.6953864448219065
    Total Energy =                      -1327.8609571631363906
  Basis Set: (AUG-CC-PVTZ AUX)
    Blend: AUG-CC-PVTZ-RI
    Molecular point group: c1

    Geometry (in Angstrom), charge = 0, multiplicity = 1:

       Center              X                  Y                   Z               Mass
    ------------   -----------------  -----------------  -----------------  -----------------
         P           -2.311670757300    -1.017881362530    -0.099255943086    30.973761998420
         O           -1.018340757300    -0.523910362530     0.752532056914    15.994914619570
         O            1.379787242700    -1.768523362530     1.217824056914    15.994914619570
         O           -0.149001757300     2.179693637470     0.518334056914    15.994914619570
         O            3.337147242700    -2.047381362530    -0.647798943086    15.994914619570
         O            2.582678242700     2.565443637470     0.635045056914    15.994914619570
         O            4.230545242700     0.679073637470    -0.638222943086    15.994914619570
         O           -2.863457757300     0.302792637470    -0.812091943086    15.994914619570
         O           -3.296353757300    -1.311271362530     1.150785056914    15.994914619570
         O           -2.094212757300    -2.143017362530    -1.037460943086    15.994914619570
         C            0.130272242700    -0.119914362530    -0.045611943086    12.000000000000
         C            1.092486242700    -1.329928562530    -0.107887943086    12.000000000000
         C            0.754410242700     1.083881637470     0.628405056914    12.000000000000
         C            2.429575242700    -0.948176362530    -0.709255943086    12.000000000000
         C            2.070544242700     1.423768637470    -0.049412943086    12.000000000000
         C            3.028333242700     0.256627637470     0.003260056914    12.000000000000
         C           -3.237074757300     1.461591637470     0.000101056914    12.000000000000
         C           -3.197386757300     2.664674637470    -0.909982943086    12.000000000000
         H           -0.194489757300     0.169800637470    -1.053908943086     1.007825032230
         H            0.606744242700    -2.116530362530    -0.689051943086     1.007825032230
         H            0.947369242700     0.844741637470     1.683610056914     1.007825032230
         H            2.315713242700    -0.705290362530    -1.772851943086     1.007825032230
         H            1.873573242700     1.675167637470    -1.105251943086     1.007825032230
         H            3.224450242700    -0.003360362530     1.053754056914     1.007825032230
         H            0.522859242700    -1.967319362530     1.640200056914     1.007825032230
         H            0.370073242700     2.961729637470     0.790167056914     1.007825032230
         H            3.189633242700    -2.443877362530     0.233660056914     1.007825032230
         H            3.477499242700     2.712401637470     0.274630056914     1.007825032230
         H            4.774192242700    -0.127028362530    -0.726900943086     1.007825032230
         H           -3.777094757300    -2.144211362530     0.988434056914     1.007825032230
         H           -4.237226757300     1.271955637470     0.398172056914     1.007825032230
         H           -2.525046757300     1.569396637470     0.819317056914     1.007825032230
         H           -3.529967757300     3.551006637470    -0.361179943086     1.007825032230
         H           -2.175419757300     2.829712637470    -1.253605943086     1.007825032230
         H           -3.853474757300     2.519187637470    -1.770907943086     1.007825032230

  Basis Set: AUG-CC-PVTZ
    Blend: AUG-CC-PVTZ
  Basis Set: (AUG-CC-PVTZ AUX)
    Blend: AUG-CC-PVTZ-JKFIT
	 Reference Energy          =   -1327.8609571631363906 [Eh]
	 Singles Energy            =      -0.0000000000000000 [Eh]
	 Same-Spin Energy          =      -1.0145952752353704 [Eh]
	 Opposite-Spin Energy      =      -3.0763574234291124 [Eh]
	 Correlation Energy        =      -4.0909526986644824 [Eh]
	 Total Energy              =   -1331.9519098618009139 [Eh]

	 ================> DF-SCS-MP2 Energies <==================
	-----------------------------------------------------------
	 SCS Same-Spin Scale       =       0.3333333333333333 [-]
	 SCS Opposite-Spin Scale   =       1.2000000000000000 [-]
	 SCS Same-Spin Energy      =      -0.3381984250784568 [Eh]
	 SCS Opposite-Spin Energy  =      -3.6916289081149349 [Eh]
	 SCS Correlation Energy    =      -4.0298273331933920 [Eh]
	 SCS Total Energy          =   -1331.8907844963298430 [Eh]
	-----------------------------------------------------------

  Dipole Moment: [D]
     X:    -0.8496      Y:     1.3995      Z:     1.8857     Total:     2.4972

*** Psi4 exiting successfully. Buy a developer a beer!
