                               Psi4 1.3.2 release

  ==> Input File <==

--------------------------------------------------------------------------
#psi4
#
memory 32 gb

molecule  {
0 1
  P       -2.2900960    -0.9400430     0.3446780
  O       -0.9821530    -0.2015620     0.9382890
  O        1.3422500    -1.6754830     1.2308510
  O        0.0787050     2.3596040     0.4621680
  O        3.0687821    -2.1867218    -0.7961652
  O        2.8473350     2.5031130     0.3715350
  O        4.1956880     0.4353970    -0.9728740
  O       -2.8268630     0.0333510    -0.8075310
  O       -3.2591210    -0.7232820     1.6216710
  O       -2.1189930    -2.3436440    -0.0996680
  C        0.1181620     0.0300090     0.0163190
  C        0.9532920    -1.2442050    -0.0757250
  C        0.8985890     1.2026440     0.5648510
  C        2.2596600    -1.0143070    -0.8180370
  C        2.1770750     1.3964720    -0.2280410
  C        3.0258420     0.1487050    -0.2103220
  C       -3.1242130     1.4315980    -0.4888860
  C       -3.5363170     2.0851650    -1.7841190
  H       -0.2830920     0.2988010    -0.9702380
  H        0.3702690    -2.0293640    -0.5720320
  H        1.1571200     0.9978770     1.6121560
  H        2.0557869    -0.7810366    -1.8701118
  H        1.9169870     1.6362870    -1.2735830
  H        3.2958550    -0.0945320     0.8276460
  H        0.5217750    -1.8880320     1.7115100
  H        0.6655400     3.1093110     0.6831840
  H        2.9735430    -2.5473740     0.0946540
  H        3.7214290     2.5491860    -0.0588690
  H        4.6397270    -0.4238340    -1.0970870
  H       -3.8083950    -1.5223380     1.7347280
  H       -3.9305460     1.4455410     0.2493860
  H       -2.2297620     1.8928800    -0.0590960
  H       -3.8005210     3.1308820    -1.6026710
  H       -2.7171960     2.0533230    -2.5048750
  H       -4.4009440     1.5743230    -2.2127240
units angstrom
no_reorient  #important for SAPT in psi4, default
symmetry c1  #important for SAPT in psi4, default
}

set PROPERTIES_ORIGIN ["COM"]
properties('MP2/aug-cc-pvtz', properties = ['dipole'])
--------------------------------------------------------------------------

    Molecular point group: c1
  Charge       = 0
  Multiplicity = 1
  Basis Set: AUG-CC-PVTZ
    Blend: AUG-CC-PVTZ
  Basis Set: (AUG-CC-PVTZ AUX)
    Blend: AUG-CC-PVTZ-JKFIT

    Orbital Energies [Eh]
    ---------------------

    Doubly Occupied:

       1A    -80.116933     2A    -20.614722     3A    -20.607001
       4A    -20.598939     5A    -20.582908     6A    -20.576783
       7A    -20.574143     8A    -20.573491     9A    -20.573464
      10A    -20.523429    11A    -11.320725    12A    -11.303446
      13A    -11.299713    14A    -11.299388    15A    -11.298607
      16A    -11.296651    17A    -11.291318    18A    -11.229875
      19A     -7.632383    20A     -5.530889    21A     -5.530516
      22A     -5.529314    23A     -1.460272    24A     -1.411152
      25A     -1.394731    26A     -1.393519    27A     -1.386877
      28A     -1.372698    29A     -1.364566    30A     -1.354307
      31A     -1.303825    32A     -1.119259    33A     -1.040470
      34A     -1.012126    35A     -1.003857    36A     -0.880298
      37A     -0.864929    38A     -0.859676    39A     -0.822413
      40A     -0.810764    41A     -0.751823    42A     -0.745177
      43A     -0.731520    44A     -0.728629    45A     -0.708157
      46A     -0.687168    47A     -0.679316    48A     -0.673711
      49A     -0.662468    50A     -0.661693    51A     -0.643120
      52A     -0.635107    53A     -0.627298    54A     -0.615398
      55A     -0.603645    56A     -0.598662    57A     -0.581814
      58A     -0.575598    59A     -0.571041    60A     -0.559381
      61A     -0.556898    62A     -0.548488    63A     -0.541212
      64A     -0.536941    65A     -0.529973    66A     -0.521748
      67A     -0.513041    68A     -0.504310    69A     -0.497033
      70A     -0.484630    71A     -0.479835    72A     -0.476588
      73A     -0.462386    74A     -0.455811    75A     -0.450117
      76A     -0.436264

  @DF-RHF Final Energy: -1327.86209145633075

   => Energetics <=

    Nuclear Repulsion Energy =           1772.6288020193196644
    One-Electron Energy =               -5357.3890259739928297
    Two-Electron Energy =                2256.8981324983424201
    Total Energy =                      -1327.8620914563307451
  Basis Set: (AUG-CC-PVTZ AUX)
    Blend: AUG-CC-PVTZ-RI
    Molecular point group: c1

    Geometry (in Angstrom), charge = 0, multiplicity = 1:

       Center              X                  Y                   Z               Mass
    ------------   -----------------  -----------------  -----------------  -----------------
         P           -2.290092790288    -0.940089099195     0.343978838532    30.973761998420
         O           -0.982149790288    -0.201608099195     0.937589838532    15.994914619570
         O            1.342253209712    -1.675529099195     1.230151838532    15.994914619570
         O            0.078708209712     2.359557900805     0.461468838532    15.994914619570
         O            3.068785309712    -2.186767899195    -0.796864361468    15.994914619570
         O            2.847338209712     2.503066900805     0.370835838532    15.994914619570
         O            4.195691209712     0.435350900805    -0.973573161468    15.994914619570
         O           -2.826859790288     0.033304900805    -0.808230161468    15.994914619570
         O           -3.259117790288    -0.723328099195     1.620971838532    15.994914619570
         O           -2.118989790288    -2.343690099195    -0.100367161468    15.994914619570
         C            0.118165209712     0.029962900805     0.015619838532    12.000000000000
         C            0.953295209712    -1.244251099195    -0.076424161468    12.000000000000
         C            0.898592209712     1.202597900805     0.564151838532    12.000000000000
         C            2.259663209712    -1.014353099195    -0.818736161468    12.000000000000
         C            2.177078209712     1.396425900805    -0.228740161468    12.000000000000
         C            3.025845209712     0.148658900805    -0.211021161468    12.000000000000
         C           -3.124209790288     1.431551900805    -0.489585161468    12.000000000000
         C           -3.536313790288     2.085118900805    -1.784818161468    12.000000000000
         H           -0.283088790288     0.298754900805    -0.970937161468     1.007825032230
         H            0.370272209712    -2.029410099195    -0.572731161468     1.007825032230
         H            1.157123209712     0.997830900805     1.611456838532     1.007825032230
         H            2.055790109712    -0.781082699195    -1.870810961468     1.007825032230
         H            1.916990209712     1.636240900805    -1.274282161468     1.007825032230
         H            3.295858209712    -0.094578099195     0.826946838532     1.007825032230
         H            0.521778209712    -1.888078099195     1.710810838532     1.007825032230
         H            0.665543209712     3.109264900805     0.682484838532     1.007825032230
         H            2.973546209712    -2.547420099195     0.093954838532     1.007825032230
         H            3.721432209712     2.549139900805    -0.059568161468     1.007825032230
         H            4.639730209712    -0.423880099195    -1.097786161468     1.007825032230
         H           -3.808391790288    -1.522384099195     1.734028838532     1.007825032230
         H           -3.930542790288     1.445494900805     0.248686838532     1.007825032230
         H           -2.229758790288     1.892833900805    -0.059795161468     1.007825032230
         H           -3.800517790288     3.130835900805    -1.603370161468     1.007825032230
         H           -2.717192790288     2.053276900805    -2.505574161468     1.007825032230
         H           -4.400940790288     1.574276900805    -2.213423161468     1.007825032230

  Basis Set: AUG-CC-PVTZ
    Blend: AUG-CC-PVTZ
  Basis Set: (AUG-CC-PVTZ AUX)
    Blend: AUG-CC-PVTZ-JKFIT
	 Reference Energy          =   -1327.8620914563307451 [Eh]
	 Singles Energy            =      -0.0000000000000000 [Eh]
	 Same-Spin Energy          =      -1.0144380453902713 [Eh]
	 Opposite-Spin Energy      =      -3.0756816149970416 [Eh]
	 Correlation Energy        =      -4.0901196603873125 [Eh]
	 Total Energy              =   -1331.9522111167179901 [Eh]

	 ================> DF-SCS-MP2 Energies <==================
	-----------------------------------------------------------
	 SCS Same-Spin Scale       =       0.3333333333333333 [-]
	 SCS Opposite-Spin Scale   =       1.2000000000000000 [-]
	 SCS Same-Spin Energy      =      -0.3381460151300904 [Eh]
	 SCS Opposite-Spin Energy  =      -3.6908179379964499 [Eh]
	 SCS Correlation Energy    =      -4.0289639531265404 [Eh]
	 SCS Total Energy          =   -1331.8910554094572944 [Eh]
	-----------------------------------------------------------

  Dipole Moment: [D]
     X:    -1.1146      Y:     1.8630      Z:     0.7042     Total:     2.2823

*** Psi4 exiting successfully. Buy a developer a beer!
