                               Psi4 1.3.2 release

  ==> Input File <==

--------------------------------------------------------------------------
#psi4
#
memory 32 gb

molecule  {
0 1
  P       -2.2900960    -0.9400430     0.3446780
  O       -0.9821530    -0.2015620     0.9382890
  O        1.3422500    -1.6754830     1.2308510
  O        0.0787050     2.3596040     0.4621680
  O        3.0685150    -2.1870720    -0.8085900
  O        2.8473350     2.5031130     0.3715350
  O        4.1956880     0.4353970    -0.9728740
  O       -2.8268630     0.0333510    -0.8075310
  O       -3.2712944    -0.8070632     1.6238465
  O       -2.1664729    -2.3654494    -0.0422964
  C        0.1181620     0.0300090     0.0163190
  C        0.9532920    -1.2442050    -0.0757250
  C        0.8985890     1.2026440     0.5648510
  C        2.2596600    -1.0143070    -0.8180370
  C        2.1770750     1.3964720    -0.2280410
  C        3.0258420     0.1487050    -0.2103220
  C       -3.1242130     1.4315980    -0.4888860
  C       -3.5363170     2.0851650    -1.7841190
  H       -0.2830920     0.2988010    -0.9702380
  H        0.3702690    -2.0293640    -0.5720320
  H        1.1571200     0.9978770     1.6121560
  H        2.0609340    -0.7886600    -1.8727560
  H        1.9169870     1.6362870    -1.2735830
  H        3.2958550    -0.0945320     0.8276460
  H        0.5217750    -1.8880320     1.7115100
  H        0.6655400     3.1093110     0.6831840
  H        2.9735430    -2.5473740     0.0946540
  H        3.7214290     2.5491860    -0.0588690
  H        4.6397270    -0.4238340    -1.0970870
  H       -3.8083950    -1.5223380     1.7347280
  H       -3.9305460     1.4455410     0.2493860
  H       -2.2297620     1.8928800    -0.0590960
  H       -3.8005210     3.1308820    -1.6026710
  H       -2.7171960     2.0533230    -2.5048750
  H       -4.4009440     1.5743230    -2.2127240
units angstrom
no_reorient  #important for SAPT in psi4, default
symmetry c1  #important for SAPT in psi4, default
}

set PROPERTIES_ORIGIN ["COM"]
properties('MP2/aug-cc-pvtz', properties = ['dipole'])
--------------------------------------------------------------------------

    Molecular point group: c1
  Charge       = 0
  Multiplicity = 1
  Basis Set: AUG-CC-PVTZ
    Blend: AUG-CC-PVTZ
  Basis Set: (AUG-CC-PVTZ AUX)
    Blend: AUG-CC-PVTZ-JKFIT

    Orbital Energies [Eh]
    ---------------------

    Doubly Occupied:

       1A    -80.118172     2A    -20.611448     3A    -20.603562
       4A    -20.599904     5A    -20.584477     6A    -20.578080
       7A    -20.575855     8A    -20.575258     9A    -20.575200
      10A    -20.517985    11A    -11.323778    12A    -11.305834
      13A    -11.302325    14A    -11.300954    15A    -11.300539
      16A    -11.298228    17A    -11.292798    18A    -11.231816
      19A     -7.633298    20A     -5.531772    21A     -5.531502
      22A     -5.530225    23A     -1.463501    24A     -1.414180
      25A     -1.399945    26A     -1.395120    27A     -1.392274
      28A     -1.374837    29A     -1.365385    30A     -1.355215
      31A     -1.299831    32A     -1.121041    33A     -1.043019
      34A     -1.014251    35A     -1.005233    36A     -0.885030
      37A     -0.867316    38A     -0.861149    39A     -0.832079
      40A     -0.812591    41A     -0.755657    42A     -0.750485
      43A     -0.736601    44A     -0.730279    45A     -0.711911
      46A     -0.688706    47A     -0.679371    48A     -0.673622
      49A     -0.663097    50A     -0.660296    51A     -0.645020
      52A     -0.636644    53A     -0.629534    54A     -0.617248
      55A     -0.604979    56A     -0.599876    57A     -0.581464
      58A     -0.576905    59A     -0.572858    60A     -0.559749
      61A     -0.557125    62A     -0.549891    63A     -0.542219
      64A     -0.537775    65A     -0.531995    66A     -0.523321
      67A     -0.515223    68A     -0.505980    69A     -0.497277
      70A     -0.486629    71A     -0.480199    72A     -0.471560
      73A     -0.462955    74A     -0.457251    75A     -0.451549
      76A     -0.437663

  @DF-RHF Final Energy: -1327.85909224106877

   => Energetics <=

    Nuclear Repulsion Energy =           1771.2623583418205726
    One-Electron Energy =               -5354.4270567551157001
    Two-Electron Energy =                2255.3056061722259074
    Total Energy =                      -1327.8590922410689927
  Basis Set: (AUG-CC-PVTZ AUX)
    Blend: AUG-CC-PVTZ-RI
    Molecular point group: c1

    Geometry (in Angstrom), charge = 0, multiplicity = 1:

       Center              X                  Y                   Z               Mass
    ------------   -----------------  -----------------  -----------------  -----------------
         P           -2.286783650063    -0.934180166673     0.341371570542    30.973761998420
         O           -0.978840650063    -0.195699166673     0.934982570542    15.994914619570
         O            1.345562349937    -1.669620166673     1.227544570542    15.994914619570
         O            0.082017349937     2.365466833327     0.458861570542    15.994914619570
         O            3.071827349937    -2.181209166673    -0.811896429458    15.994914619570
         O            2.850647349937     2.508975833327     0.368228570542    15.994914619570
         O            4.199000349937     0.441259833327    -0.976180429458    15.994914619570
         O           -2.823550650063     0.039213833327    -0.810837429458    15.994914619570
         O           -3.267982050063    -0.801200366673     1.620540070542    15.994914619570
         O           -2.163160550063    -2.359586566673    -0.045602829458    15.994914619570
         C            0.121474349937     0.035871833327     0.013012570542    12.000000000000
         C            0.956604349937    -1.238342166673    -0.079031429458    12.000000000000
         C            0.901901349937     1.208506833327     0.561544570542    12.000000000000
         C            2.262972349937    -1.008444166673    -0.821343429458    12.000000000000
         C            2.180387349937     1.402334833327    -0.231347429458    12.000000000000
         C            3.029154349937     0.154567833327    -0.213628429458    12.000000000000
         C           -3.120900650063     1.437460833327    -0.492192429458    12.000000000000
         C           -3.533004650063     2.091027833327    -1.787425429458    12.000000000000
         H           -0.279779650063     0.304663833327    -0.973544429458     1.007825032230
         H            0.373581349937    -2.023501166673    -0.575338429458     1.007825032230
         H            1.160432349937     1.003739833327     1.608849570542     1.007825032230
         H            2.064246349937    -0.782797166673    -1.876062429458     1.007825032230
         H            1.920299349937     1.642149833327    -1.276889429458     1.007825032230
         H            3.299167349937    -0.088669166673     0.824339570542     1.007825032230
         H            0.525087349937    -1.882169166673     1.708203570542     1.007825032230
         H            0.668852349937     3.115173833327     0.679877570542     1.007825032230
         H            2.976855349937    -2.541511166673     0.091347570542     1.007825032230
         H            3.724741349937     2.555048833327    -0.062175429458     1.007825032230
         H            4.643039349937    -0.417971166673    -1.100393429458     1.007825032230
         H           -3.805082650063    -1.516475166673     1.731421570542     1.007825032230
         H           -3.927233650063     1.451403833327     0.246079570542     1.007825032230
         H           -2.226449650063     1.898742833327    -0.062402429458     1.007825032230
         H           -3.797208650063     3.136744833327    -1.605977429458     1.007825032230
         H           -2.713883650063     2.059185833327    -2.508181429458     1.007825032230
         H           -4.397631650063     1.580185833327    -2.216030429458     1.007825032230

  Basis Set: AUG-CC-PVTZ
    Blend: AUG-CC-PVTZ
  Basis Set: (AUG-CC-PVTZ AUX)
    Blend: AUG-CC-PVTZ-JKFIT
	 Reference Energy          =   -1327.8590922410687654 [Eh]
	 Singles Energy            =      -0.0000000000000000 [Eh]
	 Same-Spin Energy          =      -1.0133471725254619 [Eh]
	 Opposite-Spin Energy      =      -3.0734023057296347 [Eh]
	 Correlation Energy        =      -4.0867494782550970 [Eh]
	 Total Energy              =   -1331.9458417193238802 [Eh]

	 ================> DF-SCS-MP2 Energies <==================
	-----------------------------------------------------------
	 SCS Same-Spin Scale       =       0.3333333333333333 [-]
	 SCS Opposite-Spin Scale   =       1.2000000000000000 [-]
	 SCS Same-Spin Energy      =      -0.3377823908418206 [Eh]
	 SCS Opposite-Spin Energy  =      -3.6880827668755614 [Eh]
	 SCS Correlation Energy    =      -4.0258651577173818 [Eh]
	 SCS Total Energy          =   -1331.8849573987861277 [Eh]
	-----------------------------------------------------------

  Dipole Moment: [D]
     X:    -0.8413      Y:     2.1961      Z:     0.4803     Total:     2.4003

*** Psi4 exiting successfully. Buy a developer a beer!
