                               Psi4 1.3.2 release

  ==> Input File <==

--------------------------------------------------------------------------
#psi4
#
memory 32 gb

molecule  {
0 1
  P       -2.2900960    -0.9400430     0.3446780
  O       -0.9821530    -0.2015620     0.9382890
  O        1.3179154    -1.6363686     1.2500530
  O        0.0787050     2.3596040     0.4621680
  O        3.0685150    -2.1870720    -0.8085900
  O        2.8473350     2.5031130     0.3715350
  O        4.1956880     0.4353970    -0.9728740
  O       -2.8268630     0.0333510    -0.8075310
  O       -3.2591210    -0.7232820     1.6216710
  O       -2.1189930    -2.3436440    -0.0996680
  C        0.1233796     0.0284867     0.0693156
  C        0.9532920    -1.2442050    -0.0757250
  C        0.8985890     1.2026440     0.5648510
  C        2.2596600    -1.0143070    -0.8180370
  C        2.1770750     1.3964720    -0.2280410
  C        3.0258420     0.1487050    -0.2103220
  C       -3.1242130     1.4315980    -0.4888860
  C       -3.5363170     2.0851650    -1.7841190
  H       -0.2830920     0.2988010    -0.9702380
  H        0.3702690    -2.0293640    -0.5720320
  H        1.1571200     0.9978770     1.6121560
  H        2.0609340    -0.7886600    -1.8727560
  H        1.9169870     1.6362870    -1.2735830
  H        3.2958550    -0.0945320     0.8276460
  H        0.5217750    -1.8880320     1.7115100
  H        0.6655400     3.1093110     0.6831840
  H        2.9735430    -2.5473740     0.0946540
  H        3.7214290     2.5491860    -0.0588690
  H        4.6397270    -0.4238340    -1.0970870
  H       -3.8083950    -1.5223380     1.7347280
  H       -3.9305460     1.4455410     0.2493860
  H       -2.2297620     1.8928800    -0.0590960
  H       -3.8005210     3.1308820    -1.6026710
  H       -2.7171960     2.0533230    -2.5048750
  H       -4.4009440     1.5743230    -2.2127240
units angstrom
no_reorient  #important for SAPT in psi4, default
symmetry c1  #important for SAPT in psi4, default
}

set PROPERTIES_ORIGIN ["COM"]
properties('MP2/aug-cc-pvtz', properties = ['dipole'])
--------------------------------------------------------------------------

    Molecular point group: c1
  Charge       = 0
  Multiplicity = 1
  Basis Set: AUG-CC-PVTZ
    Blend: AUG-CC-PVTZ
  Basis Set: (AUG-CC-PVTZ AUX)
    Blend: AUG-CC-PVTZ-JKFIT

    Orbital Energies [Eh]
    ---------------------

    Doubly Occupied:

       1A    -80.118794     2A    -20.615780     3A    -20.608229
       4A    -20.599046     5A    -20.579053     6A    -20.576567
       7A    -20.576145     8A    -20.574170     9A    -20.572810
      10A    -20.524339    11A    -11.320377    12A    -11.303510
      13A    -11.300245    14A    -11.299117    15A    -11.296981
      16A    -11.296128    17A    -11.291468    18A    -11.229460
      19A     -7.634105    20A     -5.532597    21A     -5.532271
      22A     -5.531043    23A     -1.463830    24A     -1.413338
      25A     -1.397224    26A     -1.393733    27A     -1.387286
      28A     -1.374675    29A     -1.365105    30A     -1.354438
      31A     -1.304872    32A     -1.118957    33A     -1.040237
      34A     -1.012203    35A     -1.004374    36A     -0.883177
      37A     -0.864873    38A     -0.860467    39A     -0.823404
      40A     -0.807492    41A     -0.751918    42A     -0.744304
      43A     -0.733542    44A     -0.730493    45A     -0.708156
      46A     -0.687029    47A     -0.683024    48A     -0.672609
      49A     -0.663004    50A     -0.661428    51A     -0.644341
      52A     -0.636131    53A     -0.628621    54A     -0.615045
      55A     -0.605792    56A     -0.598846    57A     -0.581507
      58A     -0.576490    59A     -0.569926    60A     -0.558893
      61A     -0.556466    62A     -0.547602    63A     -0.541112
      64A     -0.536632    65A     -0.526748    66A     -0.522521
      67A     -0.513017    68A     -0.504384    69A     -0.497635
      70A     -0.480231    71A     -0.479299    72A     -0.475745
      73A     -0.462242    74A     -0.455365    75A     -0.448897
      76A     -0.437378

  @DF-RHF Final Energy: -1327.85918332361371

   => Energetics <=

    Nuclear Repulsion Energy =           1773.5955697867395884
    One-Electron Energy =               -5359.2729195998263094
    Two-Electron Energy =                2257.8181664894732421
    Total Energy =                      -1327.8591833236137063
  Basis Set: (AUG-CC-PVTZ AUX)
    Blend: AUG-CC-PVTZ-RI
    Molecular point group: c1

    Geometry (in Angstrom), charge = 0, multiplicity = 1:

       Center              X                  Y                   Z               Mass
    ------------   -----------------  -----------------  -----------------  -----------------
         P           -2.288962114865    -0.942151437993     0.341404054041    30.973761998420
         O           -0.981019114865    -0.203670437993     0.935015054041    15.994914619570
         O            1.319049285135    -1.638477037993     1.246779054041    15.994914619570
         O            0.079838885135     2.357495562007     0.458894054041    15.994914619570
         O            3.069648885135    -2.189180437993    -0.811863945959    15.994914619570
         O            2.848468885135     2.501004562007     0.368261054041    15.994914619570
         O            4.196821885135     0.433288562007    -0.976147945959    15.994914619570
         O           -2.825729114865     0.031242562007    -0.810804945959    15.994914619570
         O           -3.257987114865    -0.725390437993     1.618397054041    15.994914619570
         O           -2.117859114865    -2.345752437993    -0.102941945959    15.994914619570
         C            0.124513485135     0.026378262007     0.066041654041    12.000000000000
         C            0.954425885135    -1.246313437993    -0.078998945959    12.000000000000
         C            0.899722885135     1.200535562007     0.561577054041    12.000000000000
         C            2.260793885135    -1.016415437993    -0.821310945959    12.000000000000
         C            2.178208885135     1.394363562007    -0.231314945959    12.000000000000
         C            3.026975885135     0.146596562007    -0.213595945959    12.000000000000
         C           -3.123079114865     1.429489562007    -0.492159945959    12.000000000000
         C           -3.535183114865     2.083056562007    -1.787392945959    12.000000000000
         H           -0.281958114865     0.296692562007    -0.973511945959     1.007825032230
         H            0.371402885135    -2.031472437993    -0.575305945959     1.007825032230
         H            1.158253885135     0.995768562007     1.608882054041     1.007825032230
         H            2.062067885135    -0.790768437993    -1.876029945959     1.007825032230
         H            1.918120885135     1.634178562007    -1.276856945959     1.007825032230
         H            3.296988885135    -0.096640437993     0.824372054041     1.007825032230
         H            0.522908885135    -1.890140437993     1.708236054041     1.007825032230
         H            0.666673885135     3.107202562007     0.679910054041     1.007825032230
         H            2.974676885135    -2.549482437993     0.091380054041     1.007825032230
         H            3.722562885135     2.547077562007    -0.062142945959     1.007825032230
         H            4.640860885135    -0.425942437993    -1.100360945959     1.007825032230
         H           -3.807261114865    -1.524446437993     1.731454054041     1.007825032230
         H           -3.929412114865     1.443432562007     0.246112054041     1.007825032230
         H           -2.228628114865     1.890771562007    -0.062369945959     1.007825032230
         H           -3.799387114865     3.128773562007    -1.605944945959     1.007825032230
         H           -2.716062114865     2.051214562007    -2.508148945959     1.007825032230
         H           -4.399810114865     1.572214562007    -2.215997945959     1.007825032230

  Basis Set: AUG-CC-PVTZ
    Blend: AUG-CC-PVTZ
  Basis Set: (AUG-CC-PVTZ AUX)
    Blend: AUG-CC-PVTZ-JKFIT
	 Reference Energy          =   -1327.8591833236137063 [Eh]
	 Singles Energy            =      -0.0000000000000000 [Eh]
	 Same-Spin Energy          =      -1.0144393367663176 [Eh]
	 Opposite-Spin Energy      =      -3.0753035456931830 [Eh]
	 Correlation Energy        =      -4.0897428824595004 [Eh]
	 Total Energy              =   -1331.9489262060731107 [Eh]

	 ================> DF-SCS-MP2 Energies <==================
	-----------------------------------------------------------
	 SCS Same-Spin Scale       =       0.3333333333333333 [-]
	 SCS Opposite-Spin Scale   =       1.2000000000000000 [-]
	 SCS Same-Spin Energy      =      -0.3381464455887725 [Eh]
	 SCS Opposite-Spin Energy  =      -3.6903642548318194 [Eh]
	 SCS Correlation Energy    =      -4.0285107004205916 [Eh]
	 SCS Total Energy          =   -1331.8876940240343174 [Eh]
	-----------------------------------------------------------

  Dipole Moment: [D]
     X:    -1.1126      Y:     1.7324      Z:     0.7382     Total:     2.1873

*** Psi4 exiting successfully. Buy a developer a beer!
