                               Psi4 1.3.2 release

  ==> Input File <==

--------------------------------------------------------------------------
#psi4
#
memory 32 gb

molecule  {
0 1
  P       -2.2900960    -0.9400430     0.3446780
  O       -0.9821530    -0.2015620     0.9382890
  O        1.3422500    -1.6754830     1.2308510
  O        0.0787050     2.3596040     0.4621680
  O        3.0685150    -2.1870720    -0.8085900
  O        2.8073853     2.5312774     0.3621452
  O        4.1956880     0.4353970    -0.9728740
  O       -2.8268630     0.0333510    -0.8075310
  O       -3.2591210    -0.7232820     1.6216710
  O       -2.1189930    -2.3436440    -0.0996680
  C        0.1181620     0.0300090     0.0163190
  C        0.9532920    -1.2442050    -0.0757250
  C        0.8985890     1.2026440     0.5648510
  C        2.2596600    -1.0143070    -0.8180370
  C        2.1770750     1.3964720    -0.2280410
  C        2.9867660     0.1228938    -0.2344427
  C       -3.1242130     1.4315980    -0.4888860
  C       -3.5363170     2.0851650    -1.7841190
  H       -0.2830920     0.2988010    -0.9702380
  H        0.3702690    -2.0293640    -0.5720320
  H        1.1571200     0.9978770     1.6121560
  H        2.0609340    -0.7886600    -1.8727560
  H        1.9169870     1.6362870    -1.2735830
  H        3.2958550    -0.0945320     0.8276460
  H        0.5217750    -1.8880320     1.7115100
  H        0.6655400     3.1093110     0.6831840
  H        2.9735430    -2.5473740     0.0946540
  H        3.7214290     2.5491860    -0.0588690
  H        4.6397270    -0.4238340    -1.0970870
  H       -3.8083950    -1.5223380     1.7347280
  H       -3.9305460     1.4455410     0.2493860
  H       -2.2297620     1.8928800    -0.0590960
  H       -3.8005210     3.1308820    -1.6026710
  H       -2.7171960     2.0533230    -2.5048750
  H       -4.4009440     1.5743230    -2.2127240
units angstrom
no_reorient  #important for SAPT in psi4, default
symmetry c1  #important for SAPT in psi4, default
}

set PROPERTIES_ORIGIN ["COM"]
properties('MP2/aug-cc-pvtz', properties = ['dipole'])
--------------------------------------------------------------------------

    Molecular point group: c1
  Charge       = 0
  Multiplicity = 1
  Basis Set: AUG-CC-PVTZ
    Blend: AUG-CC-PVTZ
  Basis Set: (AUG-CC-PVTZ AUX)
    Blend: AUG-CC-PVTZ-JKFIT

    Orbital Energies [Eh]
    ---------------------

    Doubly Occupied:

       1A    -80.117025     2A    -20.614795     3A    -20.607124
       4A    -20.598940     5A    -20.583841     6A    -20.582453
       7A    -20.576406     8A    -20.572958     9A    -20.572215
      10A    -20.523607    11A    -11.320818    12A    -11.304935
      13A    -11.299952    14A    -11.299271    15A    -11.297933
      16A    -11.297261    17A    -11.294397    18A    -11.229755
      19A     -7.632478    20A     -5.530984    21A     -5.530609
      22A     -5.529410    23A     -1.460365    24A     -1.411038
      25A     -1.393636    26A     -1.391813    27A     -1.386792
      28A     -1.370765    29A     -1.362704    30A     -1.350032
      31A     -1.303998    32A     -1.123641    33A     -1.040457
      34A     -1.016635    35A     -1.004785    36A     -0.880960
      37A     -0.865116    38A     -0.859864    39A     -0.821182
      40A     -0.810722    41A     -0.751275    42A     -0.744659
      43A     -0.731441    44A     -0.728191    45A     -0.705973
      46A     -0.687500    47A     -0.679517    48A     -0.673259
      49A     -0.661065    50A     -0.660168    51A     -0.640100
      52A     -0.633387    53A     -0.627627    54A     -0.616392
      55A     -0.603788    56A     -0.596660    57A     -0.581385
      58A     -0.575579    59A     -0.571422    60A     -0.559985
      61A     -0.556530    62A     -0.548472    63A     -0.541652
      64A     -0.537558    65A     -0.529275    66A     -0.521250
      67A     -0.513072    68A     -0.502291    69A     -0.496880
      70A     -0.484296    71A     -0.479882    72A     -0.476812
      73A     -0.462030    74A     -0.455272    75A     -0.450973
      76A     -0.443553

  @DF-RHF Final Energy: -1327.85329803356103

   => Energetics <=

    Nuclear Repulsion Energy =           1773.1081014255769333
    One-Electron Energy =               -5358.3211033988736745
    Two-Electron Energy =                2257.3597039397354820
    Total Energy =                      -1327.8532980335612592
  Basis Set: (AUG-CC-PVTZ AUX)
    Blend: AUG-CC-PVTZ-RI
    Molecular point group: c1

    Geometry (in Angstrom), charge = 0, multiplicity = 1:

       Center              X                  Y                   Z               Mass
    ------------   -----------------  -----------------  -----------------  -----------------
         P           -2.286249893011    -0.940531603708     0.346204186333    30.973761998420
         O           -0.978306893011    -0.202050603708     0.939815186333    15.994914619570
         O            1.346096106989    -1.675971603708     1.232377186333    15.994914619570
         O            0.082551106989     2.359115396292     0.463694186333    15.994914619570
         O            3.072361106989    -2.187560603708    -0.807063813667    15.994914619570
         O            2.811231406989     2.530788796292     0.363671386333    15.994914619570
         O            4.199534106989     0.434908396292    -0.971347813667    15.994914619570
         O           -2.823016893011     0.032862396292    -0.806004813667    15.994914619570
         O           -3.255274893011    -0.723770603708     1.623197186333    15.994914619570
         O           -2.115146893011    -2.344132603708    -0.098141813667    15.994914619570
         C            0.122008106989     0.029520396292     0.017845186333    12.000000000000
         C            0.957138106989    -1.244693603708    -0.074198813667    12.000000000000
         C            0.902435106989     1.202155396292     0.566377186333    12.000000000000
         C            2.263506106989    -1.014795603708    -0.816510813667    12.000000000000
         C            2.180921106989     1.395983396292    -0.226514813667    12.000000000000
         C            2.990612106989     0.122405196292    -0.232916513667    12.000000000000
         C           -3.120366893011     1.431109396292    -0.487359813667    12.000000000000
         C           -3.532470893011     2.084676396292    -1.782592813667    12.000000000000
         H           -0.279245893011     0.298312396292    -0.968711813667     1.007825032230
         H            0.374115106989    -2.029852603708    -0.570505813667     1.007825032230
         H            1.160966106989     0.997388396292     1.613682186333     1.007825032230
         H            2.064780106989    -0.789148603708    -1.871229813667     1.007825032230
         H            1.920833106989     1.635798396292    -1.272056813667     1.007825032230
         H            3.299701106989    -0.095020603708     0.829172186333     1.007825032230
         H            0.525621106989    -1.888520603708     1.713036186333     1.007825032230
         H            0.669386106989     3.108822396292     0.684710186333     1.007825032230
         H            2.977389106989    -2.547862603708     0.096180186333     1.007825032230
         H            3.725275106989     2.548697396292    -0.057342813667     1.007825032230
         H            4.643573106989    -0.424322603708    -1.095560813667     1.007825032230
         H           -3.804548893011    -1.522826603708     1.736254186333     1.007825032230
         H           -3.926699893011     1.445052396292     0.250912186333     1.007825032230
         H           -2.225915893011     1.892391396292    -0.057569813667     1.007825032230
         H           -3.796674893011     3.130393396292    -1.601144813667     1.007825032230
         H           -2.713349893011     2.052834396292    -2.503348813667     1.007825032230
         H           -4.397097893011     1.573834396292    -2.211197813667     1.007825032230

  Basis Set: AUG-CC-PVTZ
    Blend: AUG-CC-PVTZ
  Basis Set: (AUG-CC-PVTZ AUX)
    Blend: AUG-CC-PVTZ-JKFIT
	 Reference Energy          =   -1327.8532980335610318 [Eh]
	 Singles Energy            =      -0.0000000000000000 [Eh]
	 Same-Spin Energy          =      -1.0157544361405151 [Eh]
	 Opposite-Spin Energy      =      -3.0783900234526822 [Eh]
	 Correlation Energy        =      -4.0941444595931973 [Eh]
	 Total Energy              =   -1331.9474424931543126 [Eh]

	 ================> DF-SCS-MP2 Energies <==================
	-----------------------------------------------------------
	 SCS Same-Spin Scale       =       0.3333333333333333 [-]
	 SCS Opposite-Spin Scale   =       1.2000000000000000 [-]
	 SCS Same-Spin Energy      =      -0.3385848120468383 [Eh]
	 SCS Opposite-Spin Energy  =      -3.6940680281432186 [Eh]
	 SCS Correlation Energy    =      -4.0326528401900568 [Eh]
	 SCS Total Energy          =   -1331.8859508737511987 [Eh]
	-----------------------------------------------------------

  Dipole Moment: [D]
     X:    -1.1058      Y:     1.7962      Z:     0.7598     Total:     2.2419

*** Psi4 exiting successfully. Buy a developer a beer!
