                               Psi4 1.3.2 release

  ==> Input File <==

--------------------------------------------------------------------------
#psi4
#
memory 32 gb

molecule  {
0 1
  P       -2.2900960    -0.9400430     0.3446780
  O       -0.9821530    -0.2015620     0.9382890
  O        1.3422500    -1.6754830     1.2308510
  O        0.0787050     2.3596040     0.4621680
  O        3.0685150    -2.1870720    -0.8085900
  O        2.8473350     2.5031130     0.3715350
  O        4.1956880     0.4353970    -0.9728740
  O       -2.8268630     0.0333510    -0.8075310
  O       -3.2591210    -0.7232820     1.6216710
  O       -2.1189930    -2.3436440    -0.0996680
  C        0.1181620     0.0300090     0.0163190
  C        0.9532920    -1.2442050    -0.0757250
  C        0.8985890     1.2026440     0.5648510
  C        2.2596600    -1.0143070    -0.8180370
  C        2.1770750     1.3964720    -0.2280410
  C        3.0258420     0.1487050    -0.2103220
  C       -3.1242130     1.4315980    -0.4888860
  C       -3.5363170     2.0851650    -1.7841190
  H       -0.2830920     0.2988010    -0.9702380
  H        0.2639441    -2.1725521    -0.6625427
  H        1.1571200     0.9978770     1.6121560
  H        2.0609340    -0.7886600    -1.8727560
  H        1.9169870     1.6362870    -1.2735830
  H        3.2958550    -0.0945320     0.8276460
  H        0.5217750    -1.8880320     1.7115100
  H        0.6655400     3.1093110     0.6831840
  H        2.9735430    -2.5473740     0.0946540
  H        3.7214290     2.5491860    -0.0588690
  H        4.6397270    -0.4238340    -1.0970870
  H       -3.8083950    -1.5223380     1.7347280
  H       -3.9305460     1.4455410     0.2493860
  H       -2.2297620     1.8928800    -0.0590960
  H       -3.8005210     3.1308820    -1.6026710
  H       -2.7171960     2.0533230    -2.5048750
  H       -4.4009440     1.5743230    -2.2127240
units angstrom
no_reorient  #important for SAPT in psi4, default
symmetry c1  #important for SAPT in psi4, default
}

set PROPERTIES_ORIGIN ["COM"]
properties('MP2/aug-cc-pvtz', properties = ['dipole'])
--------------------------------------------------------------------------

    Molecular point group: c1
  Charge       = 0
  Multiplicity = 1
  Basis Set: AUG-CC-PVTZ
    Blend: AUG-CC-PVTZ
  Basis Set: (AUG-CC-PVTZ AUX)
    Blend: AUG-CC-PVTZ-JKFIT

    Orbital Energies [Eh]
    ---------------------

    Doubly Occupied:

       1A    -80.116672     2A    -20.614528     3A    -20.606943
       4A    -20.598731     5A    -20.585975     6A    -20.577257
       7A    -20.574683     8A    -20.574160     9A    -20.574076
      10A    -20.522527    11A    -11.322483    12A    -11.321845
      13A    -11.300161    14A    -11.299532    15A    -11.299306
      16A    -11.297252    17A    -11.292231    18A    -11.229787
      19A     -7.632107    20A     -5.530612    21A     -5.530244
      22A     -5.529035    23A     -1.460087    24A     -1.411098
      25A     -1.395046    26A     -1.393247    27A     -1.386683
      28A     -1.373350    29A     -1.364348    30A     -1.354179
      31A     -1.303331    32A     -1.118843    33A     -1.040371
      34A     -1.011822    35A     -0.998958    36A     -0.877743
      37A     -0.864192    38A     -0.855048    39A     -0.822144
      40A     -0.810905    41A     -0.752390    42A     -0.744122
      43A     -0.728918    44A     -0.724092    45A     -0.705853
      46A     -0.685713    47A     -0.676184    48A     -0.671368
      49A     -0.662473    50A     -0.661051    51A     -0.638436
      52A     -0.634230    53A     -0.626637    54A     -0.613234
      55A     -0.602906    56A     -0.598650    57A     -0.581508
      58A     -0.575445    59A     -0.570785    60A     -0.559458
      61A     -0.555024    62A     -0.546904    63A     -0.539901
      64A     -0.535925    65A     -0.528538    66A     -0.521580
      67A     -0.513169    68A     -0.503229    69A     -0.495149
      70A     -0.485215    71A     -0.479187    72A     -0.476188
      73A     -0.462158    74A     -0.456295    75A     -0.447752
      76A     -0.426784

  @DF-RHF Final Energy: -1327.83997963916522

   => Energetics <=

    Nuclear Repulsion Energy =           1771.3424912417501673
    One-Electron Energy =               -5354.8489583546579524
    Two-Electron Energy =                2255.6664874737425635
    Total Energy =                      -1327.8399796391649943
  Basis Set: (AUG-CC-PVTZ AUX)
    Blend: AUG-CC-PVTZ-RI
    Molecular point group: c1

    Geometry (in Angstrom), charge = 0, multiplicity = 1:

       Center              X                  Y                   Z               Mass
    ------------   -----------------  -----------------  -----------------  -----------------
         P           -2.289723973426    -0.939542017107     0.344994656140    30.973761998420
         O           -0.981780973426    -0.201061017107     0.938605656140    15.994914619570
         O            1.342622026574    -1.674982017107     1.231167656140    15.994914619570
         O            0.079077026574     2.360104982893     0.462484656140    15.994914619570
         O            3.068887026574    -2.186571017107    -0.808273343860    15.994914619570
         O            2.847707026574     2.503613982893     0.371851656140    15.994914619570
         O            4.196060026574     0.435897982893    -0.972557343860    15.994914619570
         O           -2.826490973426     0.033851982893    -0.807214343860    15.994914619570
         O           -3.258748973426    -0.722781017107     1.621987656140    15.994914619570
         O           -2.118620973426    -2.343143017107    -0.099351343860    15.994914619570
         C            0.118534026574     0.030509982893     0.016635656140    12.000000000000
         C            0.953664026574    -1.243704017107    -0.075408343860    12.000000000000
         C            0.898961026574     1.203144982893     0.565167656140    12.000000000000
         C            2.260032026574    -1.013806017107    -0.817720343860    12.000000000000
         C            2.177447026574     1.396972982893    -0.227724343860    12.000000000000
         C            3.026214026574     0.149205982893    -0.210005343860    12.000000000000
         C           -3.123840973426     1.432098982893    -0.488569343860    12.000000000000
         C           -3.535944973426     2.085665982893    -1.783802343860    12.000000000000
         H           -0.282719973426     0.299301982893    -0.969921343860     1.007825032230
         H            0.264316126574    -2.172051117107    -0.662226043860     1.007825032230
         H            1.157492026574     0.998377982893     1.612472656140     1.007825032230
         H            2.061306026574    -0.788159017107    -1.872439343860     1.007825032230
         H            1.917359026574     1.636787982893    -1.273266343860     1.007825032230
         H            3.296227026574    -0.094031017107     0.827962656140     1.007825032230
         H            0.522147026574    -1.887531017107     1.711826656140     1.007825032230
         H            0.665912026574     3.109811982893     0.683500656140     1.007825032230
         H            2.973915026574    -2.546873017107     0.094970656140     1.007825032230
         H            3.721801026574     2.549686982893    -0.058552343860     1.007825032230
         H            4.640099026574    -0.423333017107    -1.096770343860     1.007825032230
         H           -3.808022973426    -1.521837017107     1.735044656140     1.007825032230
         H           -3.930173973426     1.446041982893     0.249702656140     1.007825032230
         H           -2.229389973426     1.893380982893    -0.058779343860     1.007825032230
         H           -3.800148973426     3.131382982893    -1.602354343860     1.007825032230
         H           -2.716823973426     2.053823982893    -2.504558343860     1.007825032230
         H           -4.400571973426     1.574823982893    -2.212407343860     1.007825032230

  Basis Set: AUG-CC-PVTZ
    Blend: AUG-CC-PVTZ
  Basis Set: (AUG-CC-PVTZ AUX)
    Blend: AUG-CC-PVTZ-JKFIT
	 Reference Energy          =   -1327.8399796391652217 [Eh]
	 Singles Energy            =      -0.0000000000000000 [Eh]
	 Same-Spin Energy          =      -1.0155010114645318 [Eh]
	 Opposite-Spin Energy      =      -3.0786744895973222 [Eh]
	 Correlation Energy        =      -4.0941755010618541 [Eh]
	 Total Energy              =   -1331.9341551402271762 [Eh]

	 ================> DF-SCS-MP2 Energies <==================
	-----------------------------------------------------------
	 SCS Same-Spin Scale       =       0.3333333333333333 [-]
	 SCS Opposite-Spin Scale   =       1.2000000000000000 [-]
	 SCS Same-Spin Energy      =      -0.3385003371548439 [Eh]
	 SCS Opposite-Spin Energy  =      -3.6944093875167865 [Eh]
	 SCS Correlation Energy    =      -4.0329097246716303 [Eh]
	 SCS Total Energy          =   -1331.8728893638367481 [Eh]
	-----------------------------------------------------------

  Dipole Moment: [D]
     X:    -1.0927      Y:     1.8931      Z:     0.7810     Total:     2.3212

*** Psi4 exiting successfully. Buy a developer a beer!
