                               Psi4 1.3.2 release

  ==> Input File <==

--------------------------------------------------------------------------
#psi4
#
memory 32 gb

molecule  {
0 1
  P       -2.2900960    -0.9400430     0.3446780
  O       -0.9821530    -0.2015620     0.9382890
  O        1.3422500    -1.6754830     1.2308510
  O        0.0787050     2.3596040     0.4621680
  O        3.0685150    -2.1870720    -0.8085900
  O        2.8473350     2.5031130     0.3715350
  O        4.1956880     0.4353970    -0.9728740
  O       -2.8268630     0.0333510    -0.8075310
  O       -3.2591210    -0.7232820     1.6216710
  O       -2.1189930    -2.3436440    -0.0996680
  C        0.1181620     0.0300090     0.0163190
  C        0.9532920    -1.2442050    -0.0757250
  C        0.8985890     1.2026440     0.5648510
  C        2.2596600    -1.0143070    -0.8180370
  C        2.1770750     1.3964720    -0.2280410
  C        3.0258420     0.1487050    -0.2103220
  C       -3.1242130     1.4315980    -0.4888860
  C       -3.5363170     2.0851650    -1.7841190
  H       -0.2830920     0.2988010    -0.9702380
  H        0.3702690    -2.0293640    -0.5720320
  H        1.1806655     0.9792280     1.7075385
  H        2.0609340    -0.7886600    -1.8727560
  H        1.9169870     1.6362870    -1.2735830
  H        3.2958550    -0.0945320     0.8276460
  H        0.5217750    -1.8880320     1.7115100
  H        0.6655400     3.1093110     0.6831840
  H        2.9735430    -2.5473740     0.0946540
  H        3.7214290     2.5491860    -0.0588690
  H        4.6397270    -0.4238340    -1.0970870
  H       -3.8083950    -1.5223380     1.7347280
  H       -3.9305460     1.4455410     0.2493860
  H       -2.2297620     1.8928800    -0.0590960
  H       -3.8005210     3.1308820    -1.6026710
  H       -2.7171960     2.0533230    -2.5048750
  H       -4.4009440     1.5743230    -2.2127240
units angstrom
no_reorient  #important for SAPT in psi4, default
symmetry c1  #important for SAPT in psi4, default
}

set PROPERTIES_ORIGIN ["COM"]
properties('MP2/aug-cc-pvtz', properties = ['dipole'])
--------------------------------------------------------------------------

    Molecular point group: c1
  Charge       = 0
  Multiplicity = 1
  Basis Set: AUG-CC-PVTZ
    Blend: AUG-CC-PVTZ
  Basis Set: (AUG-CC-PVTZ AUX)
    Blend: AUG-CC-PVTZ-JKFIT

    Orbital Energies [Eh]
    ---------------------

    Doubly Occupied:

       1A    -80.116941     2A    -20.614743     3A    -20.607036
       4A    -20.599058     5A    -20.582605     6A    -20.576789
       7A    -20.575314     8A    -20.574581     9A    -20.574074
      10A    -20.523448    11A    -11.321698    12A    -11.309481
      13A    -11.303570    14A    -11.299583    15A    -11.299361
      16A    -11.297703    17A    -11.291367    18A    -11.230045
      19A     -7.632397    20A     -5.530902    21A     -5.530531
      22A     -5.529328    23A     -1.460307    24A     -1.410721
      25A     -1.394697    26A     -1.393130    27A     -1.386950
      28A     -1.372861    29A     -1.364217    30A     -1.353941
      31A     -1.303851    32A     -1.118401    33A     -1.040640
      34A     -1.012091    35A     -1.001527    36A     -0.880264
      37A     -0.865084    38A     -0.856055    39A     -0.822504
      40A     -0.806572    41A     -0.750923    42A     -0.744550
      43A     -0.729718    44A     -0.728720    45A     -0.707422
      46A     -0.685431    47A     -0.678027    48A     -0.673787
      49A     -0.662148    50A     -0.660858    51A     -0.642298
      52A     -0.633011    53A     -0.627340    54A     -0.615429
      55A     -0.600594    56A     -0.598439    57A     -0.581921
      58A     -0.575456    59A     -0.570914    60A     -0.558912
      61A     -0.556672    62A     -0.548555    63A     -0.541237
      64A     -0.536466    65A     -0.529954    66A     -0.521179
      67A     -0.512799    68A     -0.503911    69A     -0.496608
      70A     -0.483815    71A     -0.479918    72A     -0.476667
      73A     -0.461098    74A     -0.455727    75A     -0.446489
      76A     -0.436240

  @DF-RHF Final Energy: -1327.85444236257968

   => Energetics <=

    Nuclear Repulsion Energy =           1771.8308096289465539
    One-Electron Energy =               -5355.8152974923887086
    Two-Electron Energy =                2256.1300455008622521
    Total Energy =                      -1327.8544423625799027
  Basis Set: (AUG-CC-PVTZ AUX)
    Blend: AUG-CC-PVTZ-RI
    Molecular point group: c1

    Geometry (in Angstrom), charge = 0, multiplicity = 1:

       Center              X                  Y                   Z               Mass
    ------------   -----------------  -----------------  -----------------  -----------------
         P           -2.290178344658    -0.939977735979     0.344344280671    30.973761998420
         O           -0.982235344658    -0.201496735979     0.937955280671    15.994914619570
         O            1.342167655342    -1.675417735979     1.230517280671    15.994914619570
         O            0.078622655342     2.359669264021     0.461834280671    15.994914619570
         O            3.068432655342    -2.187006735979    -0.808923719329    15.994914619570
         O            2.847252655342     2.503178264021     0.371201280671    15.994914619570
         O            4.195605655342     0.435462264021    -0.973207719329    15.994914619570
         O           -2.826945344658     0.033416264021    -0.807864719329    15.994914619570
         O           -3.259203344658    -0.723216735979     1.621337280671    15.994914619570
         O           -2.119075344658    -2.343578735979    -0.100001719329    15.994914619570
         C            0.118079655342     0.030074264021     0.015985280671    12.000000000000
         C            0.953209655342    -1.244139735979    -0.076058719329    12.000000000000
         C            0.898506655342     1.202709264021     0.564517280671    12.000000000000
         C            2.259577655342    -1.014241735979    -0.818370719329    12.000000000000
         C            2.176992655342     1.396537264021    -0.228374719329    12.000000000000
         C            3.025759655342     0.148770264021    -0.210655719329    12.000000000000
         C           -3.124295344658     1.431663264021    -0.489219719329    12.000000000000
         C           -3.536399344658     2.085230264021    -1.784452719329    12.000000000000
         H           -0.283174344658     0.298866264021    -0.970571719329     1.007825032230
         H            0.370186655342    -2.029298735979    -0.572365719329     1.007825032230
         H            1.180583155342     0.979293264021     1.707204780671     1.007825032230
         H            2.060851655342    -0.788594735979    -1.873089719329     1.007825032230
         H            1.916904655342     1.636352264021    -1.273916719329     1.007825032230
         H            3.295772655342    -0.094466735979     0.827312280671     1.007825032230
         H            0.521692655342    -1.887966735979     1.711176280671     1.007825032230
         H            0.665457655342     3.109376264021     0.682850280671     1.007825032230
         H            2.973460655342    -2.547308735979     0.094320280671     1.007825032230
         H            3.721346655342     2.549251264021    -0.059202719329     1.007825032230
         H            4.639644655342    -0.423768735979    -1.097420719329     1.007825032230
         H           -3.808477344658    -1.522272735979     1.734394280671     1.007825032230
         H           -3.930628344658     1.445606264021     0.249052280671     1.007825032230
         H           -2.229844344658     1.892945264021    -0.059429719329     1.007825032230
         H           -3.800603344658     3.130947264021    -1.603004719329     1.007825032230
         H           -2.717278344658     2.053388264021    -2.505208719329     1.007825032230
         H           -4.401026344658     1.574388264021    -2.213057719329     1.007825032230

  Basis Set: AUG-CC-PVTZ
    Blend: AUG-CC-PVTZ
  Basis Set: (AUG-CC-PVTZ AUX)
    Blend: AUG-CC-PVTZ-JKFIT
	 Reference Energy          =   -1327.8544423625796753 [Eh]
	 Singles Energy            =      -0.0000000000000000 [Eh]
	 Same-Spin Energy          =      -1.0149423379439104 [Eh]
	 Opposite-Spin Energy      =      -3.0771776095121623 [Eh]
	 Correlation Energy        =      -4.0921199474560730 [Eh]
	 Total Energy              =   -1331.9465623100356879 [Eh]

	 ================> DF-SCS-MP2 Energies <==================
	-----------------------------------------------------------
	 SCS Same-Spin Scale       =       0.3333333333333333 [-]
	 SCS Opposite-Spin Scale   =       1.2000000000000000 [-]
	 SCS Same-Spin Energy      =      -0.3383141126479701 [Eh]
	 SCS Opposite-Spin Energy  =      -3.6926131314145945 [Eh]
	 SCS Correlation Energy    =      -4.0309272440625650 [Eh]
	 SCS Total Energy          =   -1331.8853696066421435 [Eh]
	-----------------------------------------------------------

  Dipole Moment: [D]
     X:    -1.1353      Y:     1.8887      Z:     0.6898     Total:     2.3091

*** Psi4 exiting successfully. Buy a developer a beer!
