                               Psi4 1.3.2 release

  ==> Input File <==

--------------------------------------------------------------------------
#psi4
#
memory 32 gb

molecule  {
0 1
  P       -2.2900960    -0.9400430     0.3446780
  O       -0.9821530    -0.2015620     0.9382890
  O        1.3422500    -1.6754830     1.2308510
  O        0.0787050     2.3596040     0.4621680
  O        3.0685150    -2.1870720    -0.8085900
  O        2.8473350     2.5031130     0.3715350
  O        4.1956880     0.4353970    -0.9728740
  O       -2.8268630     0.0333510    -0.8075310
  O       -3.2591210    -0.7232820     1.6216710
  O       -2.1189930    -2.3436440    -0.0996680
  C        0.1134895     0.0681518    -0.0528648
  C        0.9532920    -1.2442050    -0.0757250
  C        0.8985890     1.2026440     0.5648510
  C        2.2596600    -1.0143070    -0.8180370
  C        2.1770750     1.3964720    -0.2280410
  C        3.0258420     0.1487050    -0.2103220
  C       -3.1242130     1.4315980    -0.4888860
  C       -3.5363170     2.0851650    -1.7841190
  H       -0.2830920     0.2988010    -0.9702380
  H        0.3702690    -2.0293640    -0.5720320
  H        1.1834963     1.0489184     1.6140468
  H        2.0609340    -0.7886600    -1.8727560
  H        1.9169870     1.6362870    -1.2735830
  H        3.2958550    -0.0945320     0.8276460
  H        0.5217750    -1.8880320     1.7115100
  H        0.6655400     3.1093110     0.6831840
  H        2.9735430    -2.5473740     0.0946540
  H        3.7214290     2.5491860    -0.0588690
  H        4.6397270    -0.4238340    -1.0970870
  H       -3.8083950    -1.5223380     1.7347280
  H       -3.9305460     1.4455410     0.2493860
  H       -2.2297620     1.8928800    -0.0590960
  H       -3.8005210     3.1308820    -1.6026710
  H       -2.7171960     2.0533230    -2.5048750
  H       -4.4009440     1.5743230    -2.2127240
units angstrom
no_reorient  #important for SAPT in psi4, default
symmetry c1  #important for SAPT in psi4, default
}

set PROPERTIES_ORIGIN ["COM"]
properties('MP2/aug-cc-pvtz', properties = ['dipole'])
--------------------------------------------------------------------------

    Molecular point group: c1
  Charge       = 0
  Multiplicity = 1
  Basis Set: AUG-CC-PVTZ
    Blend: AUG-CC-PVTZ
  Basis Set: (AUG-CC-PVTZ AUX)
    Blend: AUG-CC-PVTZ-JKFIT

    Orbital Energies [Eh]
    ---------------------

    Doubly Occupied:

       1A    -80.113519     2A    -20.612454     3A    -20.602540
       4A    -20.597867     5A    -20.585058     6A    -20.577674
       7A    -20.574576     8A    -20.574090     9A    -20.572766
      10A    -20.521399    11A    -11.321638    12A    -11.306444
      13A    -11.300619    14A    -11.298991    15A    -11.298964
      16A    -11.296893    17A    -11.292000    18A    -11.229829
      19A     -7.629074    20A     -5.527597    21A     -5.527183
      22A     -5.526005    23A     -1.454563    24A     -1.409216
      25A     -1.394149    26A     -1.389196    27A     -1.385349
      28A     -1.369238    29A     -1.364183    30A     -1.353765
      31A     -1.301523    32A     -1.119977    33A     -1.040096
      34A     -1.012462    35A     -1.003535    36A     -0.878030
      37A     -0.865502    38A     -0.857287    39A     -0.823228
      40A     -0.815410    41A     -0.750538    42A     -0.746690
      43A     -0.730967    44A     -0.724956    45A     -0.706754
      46A     -0.687110    47A     -0.676581    48A     -0.674231
      49A     -0.662350    50A     -0.660384    51A     -0.639879
      52A     -0.634667    53A     -0.625072    54A     -0.615131
      55A     -0.600700    56A     -0.597925    57A     -0.583220
      58A     -0.572842    59A     -0.569982    60A     -0.559969
      61A     -0.557622    62A     -0.549575    63A     -0.541157
      64A     -0.537680    65A     -0.533193    66A     -0.521995
      67A     -0.512995    68A     -0.506369    69A     -0.497214
      70A     -0.486743    71A     -0.478386    72A     -0.475131
      73A     -0.460055    74A     -0.456502    75A     -0.448871
      76A     -0.436584

  @DF-RHF Final Energy: -1327.85265407662018

   => Energetics <=

    Nuclear Repulsion Energy =           1771.5695949192274838
    One-Electron Energy =               -5355.3566847045658506
    Two-Electron Energy =                2255.9344357087179560
    Total Energy =                      -1327.8526540766201833
  Basis Set: (AUG-CC-PVTZ AUX)
    Blend: AUG-CC-PVTZ-RI
    Molecular point group: c1

    Geometry (in Angstrom), charge = 0, multiplicity = 1:

       Center              X                  Y                   Z               Mass
    ------------   -----------------  -----------------  -----------------  -----------------
         P           -2.289993602380    -0.941810505062     0.347553423228    30.973761998420
         O           -0.982050602380    -0.203329505062     0.941164423228    15.994914619570
         O            1.342352397620    -1.677250505062     1.233726423228    15.994914619570
         O            0.078807397620     2.357836494938     0.465043423228    15.994914619570
         O            3.068617397620    -2.188839505062    -0.805714576772    15.994914619570
         O            2.847437397620     2.501345494938     0.374410423228    15.994914619570
         O            4.195790397620     0.433629494938    -0.969998576772    15.994914619570
         O           -2.826760602380     0.031583494938    -0.804655576772    15.994914619570
         O           -3.259018602380    -0.725049505062     1.624546423228    15.994914619570
         O           -2.118890602380    -2.345411505062    -0.096792576772    15.994914619570
         C            0.113591897620     0.066384294938    -0.049989376772    12.000000000000
         C            0.953394397620    -1.245972505062    -0.072849576772    12.000000000000
         C            0.898691397620     1.200876494938     0.567726423228    12.000000000000
         C            2.259762397620    -1.016074505062    -0.815161576772    12.000000000000
         C            2.177177397620     1.394704494938    -0.225165576772    12.000000000000
         C            3.025944397620     0.146937494938    -0.207446576772    12.000000000000
         C           -3.124110602380     1.429830494938    -0.486010576772    12.000000000000
         C           -3.536214602380     2.083397494938    -1.781243576772    12.000000000000
         H           -0.282989602380     0.297033494938    -0.967362576772     1.007825032230
         H            0.370371397620    -2.031131505062    -0.569156576772     1.007825032230
         H            1.183598697620     1.047150894938     1.616922223228     1.007825032230
         H            2.061036397620    -0.790427505062    -1.869880576772     1.007825032230
         H            1.917089397620     1.634519494938    -1.270707576772     1.007825032230
         H            3.295957397620    -0.096299505062     0.830521423228     1.007825032230
         H            0.521877397620    -1.889799505062     1.714385423228     1.007825032230
         H            0.665642397620     3.107543494938     0.686059423228     1.007825032230
         H            2.973645397620    -2.549141505062     0.097529423228     1.007825032230
         H            3.721531397620     2.547418494938    -0.055993576772     1.007825032230
         H            4.639829397620    -0.425601505062    -1.094211576772     1.007825032230
         H           -3.808292602380    -1.524105505062     1.737603423228     1.007825032230
         H           -3.930443602380     1.443773494938     0.252261423228     1.007825032230
         H           -2.229659602380     1.891112494938    -0.056220576772     1.007825032230
         H           -3.800418602380     3.129114494938    -1.599795576772     1.007825032230
         H           -2.717093602380     2.051555494938    -2.501999576772     1.007825032230
         H           -4.400841602380     1.572555494938    -2.209848576772     1.007825032230

  Basis Set: AUG-CC-PVTZ
    Blend: AUG-CC-PVTZ
  Basis Set: (AUG-CC-PVTZ AUX)
    Blend: AUG-CC-PVTZ-JKFIT
	 Reference Energy          =   -1327.8526540766201833 [Eh]
	 Singles Energy            =      -0.0000000000000000 [Eh]
	 Same-Spin Energy          =      -1.0146708145885959 [Eh]
	 Opposite-Spin Energy      =      -3.0769486263945636 [Eh]
	 Correlation Energy        =      -4.0916194409831590 [Eh]
	 Total Energy              =   -1331.9442735176032784 [Eh]

	 ================> DF-SCS-MP2 Energies <==================
	-----------------------------------------------------------
	 SCS Same-Spin Scale       =       0.3333333333333333 [-]
	 SCS Opposite-Spin Scale   =       1.2000000000000000 [-]
	 SCS Same-Spin Energy      =      -0.3382236048628653 [Eh]
	 SCS Opposite-Spin Energy  =      -3.6923383516734760 [Eh]
	 SCS Correlation Energy    =      -4.0305619565363413 [Eh]
	 SCS Total Energy          =   -1331.8832160331564864 [Eh]
	-----------------------------------------------------------

  Dipole Moment: [D]
     X:    -0.9742      Y:     1.9415      Z:     0.6665     Total:     2.2722

*** Psi4 exiting successfully. Buy a developer a beer!
