                               Psi4 1.3.2 release

  ==> Input File <==

--------------------------------------------------------------------------
#psi4
#
memory 32 gb

molecule  {
0 1
  P       -2.2900960    -0.9400430     0.3446780
  O       -0.9821530    -0.2015620     0.9382890
  O        1.3422500    -1.6754830     1.2308510
  O        0.0787050     2.3596040     0.4621680
  O        3.0858479    -2.1749593    -0.8216713
  O        2.8473350     2.5031130     0.3715350
  O        4.1956880     0.4353970    -0.9728740
  O       -2.8268630     0.0333510    -0.8075310
  O       -3.2591210    -0.7232820     1.6216710
  O       -2.1189930    -2.3436440    -0.0996680
  C        0.1181620     0.0300090     0.0163190
  C        0.9461493    -1.2192121    -0.0810288
  C        0.8985890     1.2026440     0.5648510
  C        2.2596600    -1.0143070    -0.8180370
  C        2.1770750     1.3964720    -0.2280410
  C        3.0258420     0.1487050    -0.2103220
  C       -3.1242130     1.4315980    -0.4888860
  C       -3.5363170     2.0851650    -1.7841190
  H       -0.2830920     0.2988010    -0.9702380
  H        0.3702690    -2.0293640    -0.5720320
  H        1.1571200     0.9978770     1.6121560
  H        2.0609340    -0.7886600    -1.8727560
  H        1.9169870     1.6362870    -1.2735830
  H        3.2958550    -0.0945320     0.8276460
  H        0.5217750    -1.8880320     1.7115100
  H        0.6655400     3.1093110     0.6831840
  H        2.9735430    -2.5473740     0.0946540
  H        3.7214290     2.5491860    -0.0588690
  H        4.6397270    -0.4238340    -1.0970870
  H       -3.8083950    -1.5223380     1.7347280
  H       -3.9305460     1.4455410     0.2493860
  H       -2.2297620     1.8928800    -0.0590960
  H       -3.8005210     3.1308820    -1.6026710
  H       -2.7171960     2.0533230    -2.5048750
  H       -4.4009440     1.5743230    -2.2127240
units angstrom
no_reorient  #important for SAPT in psi4, default
symmetry c1  #important for SAPT in psi4, default
}

set PROPERTIES_ORIGIN ["COM"]
properties('MP2/aug-cc-pvtz', properties = ['dipole'])
--------------------------------------------------------------------------

    Molecular point group: c1
  Charge       = 0
  Multiplicity = 1
  Basis Set: AUG-CC-PVTZ
    Blend: AUG-CC-PVTZ
  Basis Set: (AUG-CC-PVTZ AUX)
    Blend: AUG-CC-PVTZ-JKFIT

    Orbital Energies [Eh]
    ---------------------

    Doubly Occupied:

       1A    -80.117383     2A    -20.615062     3A    -20.608004
       4A    -20.599346     5A    -20.582106     6A    -20.577558
       7A    -20.576729     8A    -20.573770     9A    -20.573273
      10A    -20.523668    11A    -11.321447    12A    -11.304645
      13A    -11.299704    14A    -11.299657    15A    -11.299042
      16A    -11.296657    17A    -11.290810    18A    -11.230111
      19A     -7.632835    20A     -5.531340    21A     -5.530969
      22A     -5.529762    23A     -1.460925    24A     -1.409553
      25A     -1.394680    26A     -1.391248    27A     -1.387201
      28A     -1.371534    29A     -1.362541    30A     -1.352358
      31A     -1.304089    32A     -1.121843    33A     -1.040770
      34A     -1.014406    35A     -1.003391    36A     -0.880012
      37A     -0.864996    38A     -0.859317    39A     -0.822690
      40A     -0.810052    41A     -0.752297    42A     -0.744930
      43A     -0.730756    44A     -0.728968    45A     -0.708276
      46A     -0.687087    47A     -0.675762    48A     -0.673584
      49A     -0.661932    50A     -0.659184    51A     -0.643647
      52A     -0.634843    53A     -0.627176    54A     -0.614913
      55A     -0.603944    56A     -0.598358    57A     -0.581892
      58A     -0.575939    59A     -0.571002    60A     -0.559368
      61A     -0.555987    62A     -0.548100    63A     -0.541172
      64A     -0.535508    65A     -0.528999    66A     -0.521372
      67A     -0.513340    68A     -0.504583    69A     -0.496854
      70A     -0.487671    71A     -0.480263    72A     -0.477105
      73A     -0.463647    74A     -0.455682    75A     -0.451914
      76A     -0.435056

  @DF-RHF Final Energy: -1327.85816506894912

   => Energetics <=

    Nuclear Repulsion Energy =           1772.5704169092844040
    One-Electron Energy =               -5357.2639730693244928
    Two-Electron Energy =                2256.8353910910914237
    Total Energy =                      -1327.8581650689488924
  Basis Set: (AUG-CC-PVTZ AUX)
    Blend: AUG-CC-PVTZ-RI
    Molecular point group: c1

    Geometry (in Angstrom), charge = 0, multiplicity = 1:

       Center              X                  Y                   Z               Mass
    ------------   -----------------  -----------------  -----------------  -----------------
         P           -2.290760846629    -0.941756703967     0.345625289635    30.973761998420
         O           -0.982817846629    -0.203275703967     0.939236289635    15.994914619570
         O            1.341585153371    -1.677196703967     1.231798289635    15.994914619570
         O            0.078040153371     2.357890296033     0.463115289635    15.994914619570
         O            3.085183053371    -2.176673003967    -0.820724010365    15.994914619570
         O            2.846670153371     2.501399296033     0.372482289635    15.994914619570
         O            4.195023153371     0.433683296033    -0.971926710365    15.994914619570
         O           -2.827527846629     0.031637296033    -0.806583710365    15.994914619570
         O           -3.259785846629    -0.724995703967     1.622618289635    15.994914619570
         O           -2.119657846629    -2.345357703967    -0.098720710365    15.994914619570
         C            0.117497153371     0.028295296033     0.017266289635    12.000000000000
         C            0.945484453371    -1.220925803967    -0.080081510365    12.000000000000
         C            0.897924153371     1.200930296033     0.565798289635    12.000000000000
         C            2.258995153371    -1.016020703967    -0.817089710365    12.000000000000
         C            2.176410153371     1.394758296033    -0.227093710365    12.000000000000
         C            3.025177153371     0.146991296033    -0.209374710365    12.000000000000
         C           -3.124877846629     1.429884296033    -0.487938710365    12.000000000000
         C           -3.536981846629     2.083451296033    -1.783171710365    12.000000000000
         H           -0.283756846629     0.297087296033    -0.969290710365     1.007825032230
         H            0.369604153371    -2.031077703967    -0.571084710365     1.007825032230
         H            1.156455153371     0.996163296033     1.613103289635     1.007825032230
         H            2.060269153371    -0.790373703967    -1.871808710365     1.007825032230
         H            1.916322153371     1.634573296033    -1.272635710365     1.007825032230
         H            3.295190153371    -0.096245703967     0.828593289635     1.007825032230
         H            0.521110153371    -1.889745703967     1.712457289635     1.007825032230
         H            0.664875153371     3.107597296033     0.684131289635     1.007825032230
         H            2.972878153371    -2.549087703967     0.095601289635     1.007825032230
         H            3.720764153371     2.547472296033    -0.057921710365     1.007825032230
         H            4.639062153371    -0.425547703967    -1.096139710365     1.007825032230
         H           -3.809059846629    -1.524051703967     1.735675289635     1.007825032230
         H           -3.931210846629     1.443827296033     0.250333289635     1.007825032230
         H           -2.230426846629     1.891166296033    -0.058148710365     1.007825032230
         H           -3.801185846629     3.129168296033    -1.601723710365     1.007825032230
         H           -2.717860846629     2.051609296033    -2.503927710365     1.007825032230
         H           -4.401608846629     1.572609296033    -2.211776710365     1.007825032230

  Basis Set: AUG-CC-PVTZ
    Blend: AUG-CC-PVTZ
  Basis Set: (AUG-CC-PVTZ AUX)
    Blend: AUG-CC-PVTZ-JKFIT
	 Reference Energy          =   -1327.8581650689491198 [Eh]
	 Singles Energy            =      -0.0000000000000000 [Eh]
	 Same-Spin Energy          =      -1.0151742958279639 [Eh]
	 Opposite-Spin Energy      =      -3.0772925467781107 [Eh]
	 Correlation Energy        =      -4.0924668426060746 [Eh]
	 Total Energy              =   -1331.9506319115550923 [Eh]

	 ================> DF-SCS-MP2 Energies <==================
	-----------------------------------------------------------
	 SCS Same-Spin Scale       =       0.3333333333333333 [-]
	 SCS Opposite-Spin Scale   =       1.2000000000000000 [-]
	 SCS Same-Spin Energy      =      -0.3383914319426546 [Eh]
	 SCS Opposite-Spin Energy  =      -3.6927510561337327 [Eh]
	 SCS Correlation Energy    =      -4.0311424880763873 [Eh]
	 SCS Total Energy          =   -1331.8893075570254041 [Eh]
	-----------------------------------------------------------

  Dipole Moment: [D]
     X:    -1.1732      Y:     1.8619      Z:     0.7123     Total:     2.3131

*** Psi4 exiting successfully. Buy a developer a beer!
