                               Psi4 1.4a3.dev225

  ==> Input File <==

--------------------------------------------------------------------------
#psi4
#
memory 32 gb

molecule  {
0 1
  P       -2.3219140    -1.0563120    -0.0968450
  O       -1.0285840    -0.5623410     0.7549430
  O        1.3695440    -1.8069540     1.2202350
  O       -0.1592450     2.1412630     0.5207450
  O        3.3269040    -2.0858120    -0.6453880
  O        2.5724350     2.5270130     0.6374560
  O        4.2203020     0.6406430    -0.6358120
  O       -2.8737010     0.2643620    -0.8096810
  O       -3.3065970    -1.3497020     1.1531960
  O       -2.1044560    -2.1814480    -1.0350500
  C        0.1200290    -0.1583450    -0.0432010
  C        1.0698050    -1.3527180    -0.1046720
  C        0.7441670     1.0454510     0.6308160
  C        2.4193320    -0.9866070    -0.7068450
  C        2.0603010     1.3853380    -0.0470020
  C        3.0180900     0.2181970     0.0056710
  C       -3.2473180     1.4231610     0.0025120
  C       -3.2076300     2.6262440    -0.9075720
  H       -0.2047330     0.1313700    -1.0514980
  H        0.5965010    -2.1549610    -0.6866410
  H        0.9371260     0.8063110     1.6860210
  H        2.3054700    -0.7437210    -1.7704410
  H        1.8597587     1.6412951    -1.1219844
  H        3.2142070    -0.0417910     1.0561650
  H        0.5126160    -2.0057500     1.6426110
  H        0.3598300     2.9232990     0.7925780
  H        3.1793900    -2.4823080     0.2360710
  H        3.4672560     2.6739710     0.2770410
  H        4.7639490    -0.1654590    -0.7244900
  H       -3.7873380    -2.1826420     0.9908450
  H       -4.2474700     1.2335250     0.4005830
  H       -2.5352900     1.5309660     0.8217280
  H       -3.5402110     3.5125760    -0.3587690
  H       -2.1856630     2.7912820    -1.2511950
  H       -3.8637180     2.4807570    -1.7684970
units angstrom
no_reorient  #important for SAPT in psi4, default
symmetry c1  #important for SAPT in psi4, default
}

set PROPERTIES_ORIGIN ["COM"]
properties('MP2/aug-cc-pvtz', properties = ['dipole'])
--------------------------------------------------------------------------

    Molecular point group: c1
  Charge       = 0
  Multiplicity = 1
  Basis Set: AUG-CC-PVTZ
    Blend: AUG-CC-PVTZ
  Basis Set: (AUG-CC-PVTZ AUX)
    Blend: AUG-CC-PVTZ-JKFIT

    Orbital Energies [Eh]
    ---------------------

    Doubly Occupied:

       1A    -80.116837     2A    -20.615016     3A    -20.608101
       4A    -20.596026     5A    -20.584135     6A    -20.578943
       7A    -20.575375     8A    -20.575195     9A    -20.574672
      10A    -20.522546    11A    -11.321417    12A    -11.305265
      13A    -11.301137    14A    -11.300475    15A    -11.300305
      16A    -11.296154    17A    -11.293264    18A    -11.222892
      19A     -7.632100    20A     -5.530635    21A     -5.530132
      22A     -5.529071    23A     -1.458510    24A     -1.410964
      25A     -1.395549    26A     -1.392737    27A     -1.385194
      28A     -1.372776    29A     -1.364331    30A     -1.354376
      31A     -1.302730    32A     -1.118639    33A     -1.035508
      34A     -1.011262    35A     -1.003344    36A     -0.877658
      37A     -0.862358    38A     -0.859190    39A     -0.822615
      40A     -0.809319    41A     -0.754259    42A     -0.745905
      43A     -0.728767    44A     -0.726019    45A     -0.705752
      46A     -0.686554    47A     -0.679299    48A     -0.674215
      49A     -0.662466    50A     -0.659441    51A     -0.641987
      52A     -0.637697    53A     -0.623584    54A     -0.613013
      55A     -0.603997    56A     -0.596887    57A     -0.580819
      58A     -0.577742    59A     -0.570293    60A     -0.559580
      61A     -0.555339    62A     -0.548146    63A     -0.538584
      64A     -0.537798    65A     -0.530086    66A     -0.517653
      67A     -0.508512    68A     -0.503500    69A     -0.494660
      70A     -0.487468    71A     -0.478689    72A     -0.475500
      73A     -0.462503    74A     -0.456951    75A     -0.450823
      76A     -0.436813

  @DF-RHF Final Energy: -1327.86031453587293

   => Energetics <=

    Nuclear Repulsion Energy =           1774.4973325073112846
    One-Electron Energy =               -5361.1991840914406566
    Two-Electron Energy =                2258.8415370482562139
    Total Energy =                      -1327.8603145358729307
  Basis Set: (AUG-CC-PVTZ AUX)
    Blend: AUG-CC-PVTZ-RI
    Molecular point group: c1

    Geometry (in Angstrom), charge = 0, multiplicity = 1:

       Center              X                  Y                   Z               Mass
    ------------   -----------------  -----------------  -----------------  -----------------
         P           -2.311140122346    -1.018548888348    -0.099222501568    30.973761998420
         O           -1.017810122346    -0.524577888348     0.752565498432    15.994914619570
         O            1.380317877654    -1.769190888348     1.217857498432    15.994914619570
         O           -0.148471122346     2.179026111652     0.518367498432    15.994914619570
         O            3.337677877654    -2.048048888348    -0.647765501568    15.994914619570
         O            2.583208877654     2.564776111652     0.635078498432    15.994914619570
         O            4.231075877654     0.678406111652    -0.638189501568    15.994914619570
         O           -2.862927122346     0.302125111652    -0.812058501568    15.994914619570
         O           -3.295823122346    -1.311938888348     1.150818498432    15.994914619570
         O           -2.093682122346    -2.143684888348    -1.037427501568    15.994914619570
         C            0.130802877654    -0.120581888348    -0.045578501568    12.000000000000
         C            1.080578877654    -1.314954888348    -0.107049501568    12.000000000000
         C            0.754940877654     1.083214111652     0.628438498432    12.000000000000
         C            2.430105877654    -0.948843888348    -0.709222501568    12.000000000000
         C            2.071074877654     1.423101111652    -0.049379501568    12.000000000000
         C            3.028863877654     0.255960111652     0.003293498432    12.000000000000
         C           -3.236544122346     1.460924111652     0.000134498432    12.000000000000
         C           -3.196856122346     2.664007111652    -0.909949501568    12.000000000000
         H           -0.193959122346     0.169133111652    -1.053875501568     1.007825032230
         H            0.607274877654    -2.117197888348    -0.689018501568     1.007825032230
         H            0.947899877654     0.844074111652     1.683643498432     1.007825032230
         H            2.316243877654    -0.705957888348    -1.772818501568     1.007825032230
         H            1.870532577654     1.679058211652    -1.124361901568     1.007825032230
         H            3.224980877654    -0.004027888348     1.053787498432     1.007825032230
         H            0.523389877654    -1.967986888348     1.640233498432     1.007825032230
         H            0.370603877654     2.961062111652     0.790200498432     1.007825032230
         H            3.190163877654    -2.444544888348     0.233693498432     1.007825032230
         H            3.478029877654     2.711734111652     0.274663498432     1.007825032230
         H            4.774722877654    -0.127695888348    -0.726867501568     1.007825032230
         H           -3.776564122346    -2.144878888348     0.988467498432     1.007825032230
         H           -4.236696122346     1.271288111652     0.398205498432     1.007825032230
         H           -2.524516122346     1.568729111652     0.819350498432     1.007825032230
         H           -3.529437122346     3.550339111652    -0.361146501568     1.007825032230
         H           -2.174889122346     2.829045111652    -1.253572501568     1.007825032230
         H           -3.852944122346     2.518520111652    -1.770874501568     1.007825032230

  Basis Set: AUG-CC-PVTZ
    Blend: AUG-CC-PVTZ
  Basis Set: (AUG-CC-PVTZ AUX)
    Blend: AUG-CC-PVTZ-JKFIT
	 Reference Energy          =   -1327.8603145358729307 [Eh]
	 Singles Energy            =      -0.0000000000000000 [Eh]
	 Same-Spin Energy          =      -1.0147623936676220 [Eh]
	 Opposite-Spin Energy      =      -3.0767641747958816 [Eh]
	 Correlation Energy        =      -4.0915265684635038 [Eh]
	 Total Energy              =   -1331.9518411043363812 [Eh]

	 ================> DF-SCS-MP2 Energies <==================
	-----------------------------------------------------------
	 SCS Same-Spin Scale       =       0.3333333333333333 [-]
	 SCS Opposite-Spin Scale   =       1.2000000000000000 [-]
	 SCS Same-Spin Energy      =      -0.3382541312225407 [Eh]
	 SCS Opposite-Spin Energy  =      -3.6921170097550577 [Eh]
	 SCS Correlation Energy    =      -4.0303711409775982 [Eh]
	 SCS Total Energy          =   -1331.8906856768505804 [Eh]
	-----------------------------------------------------------

  Dipole Moment: [D]
     X:    -0.8577      Y:     1.4213      Z:     1.8890     Total:     2.5148

*** Psi4 exiting successfully. Buy a developer a beer!
