                               Psi4 1.3.2 release

  ==> Input File <==

--------------------------------------------------------------------------
#psi4
#
memory 32 gb

molecule  {
0 1
  P       -2.2900960    -0.9400430     0.3446780
  O       -0.9821530    -0.2015620     0.9382890
  O        1.3422500    -1.6754830     1.2308510
  O        0.0787050     2.3596040     0.4621680
  O        3.1049361    -2.1607268    -0.7873221
  O        2.8473350     2.5031130     0.3715350
  O        4.1956880     0.4353970    -0.9728740
  O       -2.8268630     0.0333510    -0.8075310
  O       -3.2591210    -0.7232820     1.6216710
  O       -2.1189930    -2.3436440    -0.0996680
  C        0.1181620     0.0300090     0.0163190
  C        0.9532920    -1.2442050    -0.0757250
  C        0.8985890     1.2026440     0.5648510
  C        2.2596600    -1.0143070    -0.8180370
  C        2.1770750     1.3964720    -0.2280410
  C        3.0671076     0.1162865    -0.2026217
  C       -3.1242130     1.4315980    -0.4888860
  C       -3.5363170     2.0851650    -1.7841190
  H       -0.2830920     0.2988010    -0.9702380
  H        0.3702690    -2.0293640    -0.5720320
  H        1.1571200     0.9978770     1.6121560
  H        2.0609340    -0.7886600    -1.8727560
  H        1.9169870     1.6362870    -1.2735830
  H        3.2958550    -0.0945320     0.8276460
  H        0.5217750    -1.8880320     1.7115100
  H        0.6655400     3.1093110     0.6831840
  H        2.9735430    -2.5473740     0.0946540
  H        3.7214290     2.5491860    -0.0588690
  H        4.6397270    -0.4238340    -1.0970870
  H       -3.8083950    -1.5223380     1.7347280
  H       -3.9305460     1.4455410     0.2493860
  H       -2.2297620     1.8928800    -0.0590960
  H       -3.8005210     3.1308820    -1.6026710
  H       -2.7171960     2.0533230    -2.5048750
  H       -4.4009440     1.5743230    -2.2127240
units angstrom
no_reorient  #important for SAPT in psi4, default
symmetry c1  #important for SAPT in psi4, default
}

set PROPERTIES_ORIGIN ["COM"]
properties('MP2/aug-cc-pvtz', properties = ['dipole'])
--------------------------------------------------------------------------

    Molecular point group: c1
  Charge       = 0
  Multiplicity = 1
  Basis Set: AUG-CC-PVTZ
    Blend: AUG-CC-PVTZ
  Basis Set: (AUG-CC-PVTZ AUX)
    Blend: AUG-CC-PVTZ-JKFIT

    Orbital Energies [Eh]
    ---------------------

    Doubly Occupied:

       1A    -80.116946     2A    -20.614721     3A    -20.606960
       4A    -20.598874     5A    -20.583508     6A    -20.576583
       7A    -20.574715     8A    -20.572392     9A    -20.572166
      10A    -20.523561    11A    -11.320656    12A    -11.304686
      13A    -11.299233    14A    -11.298414    15A    -11.297048
      16A    -11.295448    17A    -11.289261    18A    -11.229738
      19A     -7.632398    20A     -5.530904    21A     -5.530529
      22A     -5.529331    23A     -1.460236    24A     -1.411867
      25A     -1.397123    26A     -1.392247    27A     -1.386945
      28A     -1.375347    29A     -1.363545    30A     -1.355275
      31A     -1.303952    32A     -1.114568    33A     -1.040268
      34A     -1.008032    35A     -1.000734    36A     -0.881124
      37A     -0.865107    38A     -0.856096    39A     -0.822686
      40A     -0.810553    41A     -0.751686    42A     -0.745300
      43A     -0.731267    44A     -0.728457    45A     -0.707027
      46A     -0.688492    47A     -0.679155    48A     -0.673967
      49A     -0.662235    50A     -0.660029    51A     -0.642492
      52A     -0.634507    53A     -0.627124    54A     -0.614827
      55A     -0.602927    56A     -0.600554    57A     -0.583205
      58A     -0.575663    59A     -0.571854    60A     -0.559135
      61A     -0.558345    62A     -0.549031    63A     -0.541408
      64A     -0.535084    65A     -0.530477    66A     -0.520983
      67A     -0.512067    68A     -0.506793    69A     -0.496410
      70A     -0.485242    71A     -0.479809    72A     -0.476731
      73A     -0.462042    74A     -0.450302    75A     -0.447960
      76A     -0.432417

  @DF-RHF Final Energy: -1327.85874031813023

   => Energetics <=

    Nuclear Repulsion Energy =           1771.9250166776771493
    One-Electron Energy =               -5356.0299534300393134
    Two-Electron Energy =                2256.2461964342314786
    Total Energy =                      -1327.8587403181304580
  Basis Set: (AUG-CC-PVTZ AUX)
    Blend: AUG-CC-PVTZ-RI
    Molecular point group: c1

    Geometry (in Angstrom), charge = 0, multiplicity = 1:

       Center              X                  Y                   Z               Mass
    ------------   -----------------  -----------------  -----------------  -----------------
         P           -2.293837325813    -0.940155344716     0.343176288644    30.973761998420
         O           -0.985894325813    -0.201674344716     0.936787288644    15.994914619570
         O            1.338508674187    -1.675595344716     1.229349288644    15.994914619570
         O            0.074963674187     2.359491655284     0.460666288644    15.994914619570
         O            3.101194774187    -2.160839144716    -0.788823811356    15.994914619570
         O            2.843593674187     2.503000655284     0.370033288644    15.994914619570
         O            4.191946674187     0.435284655284    -0.974375711356    15.994914619570
         O           -2.830604325813     0.033238655284    -0.809032711356    15.994914619570
         O           -3.262862325813    -0.723394344716     1.620169288644    15.994914619570
         O           -2.122734325813    -2.343756344716    -0.101169711356    15.994914619570
         C            0.114420674187     0.029896655284     0.014817288644    12.000000000000
         C            0.949550674187    -1.244317344716    -0.077226711356    12.000000000000
         C            0.894847674187     1.202531655284     0.563349288644    12.000000000000
         C            2.255918674187    -1.014419344716    -0.819538711356    12.000000000000
         C            2.173333674187     1.396359655284    -0.229542711356    12.000000000000
         C            3.063366274187     0.116174155284    -0.204123411356    12.000000000000
         C           -3.127954325813     1.431485655284    -0.490387711356    12.000000000000
         C           -3.540058325813     2.085052655284    -1.785620711356    12.000000000000
         H           -0.286833325813     0.298688655284    -0.971739711356     1.007825032230
         H            0.366527674187    -2.029476344716    -0.573533711356     1.007825032230
         H            1.153378674187     0.997764655284     1.610654288644     1.007825032230
         H            2.057192674187    -0.788772344716    -1.874257711356     1.007825032230
         H            1.913245674187     1.636174655284    -1.275084711356     1.007825032230
         H            3.292113674187    -0.094644344716     0.826144288644     1.007825032230
         H            0.518033674187    -1.888144344716     1.710008288644     1.007825032230
         H            0.661798674187     3.109198655284     0.681682288644     1.007825032230
         H            2.969801674187    -2.547486344716     0.093152288644     1.007825032230
         H            3.717687674187     2.549073655284    -0.060370711356     1.007825032230
         H            4.635985674187    -0.423946344716    -1.098588711356     1.007825032230
         H           -3.812136325813    -1.522450344716     1.733226288644     1.007825032230
         H           -3.934287325813     1.445428655284     0.247884288644     1.007825032230
         H           -2.233503325813     1.892767655284    -0.060597711356     1.007825032230
         H           -3.804262325813     3.130769655284    -1.604172711356     1.007825032230
         H           -2.720937325813     2.053210655284    -2.506376711356     1.007825032230
         H           -4.404685325813     1.574210655284    -2.214225711356     1.007825032230

  Basis Set: AUG-CC-PVTZ
    Blend: AUG-CC-PVTZ
  Basis Set: (AUG-CC-PVTZ AUX)
    Blend: AUG-CC-PVTZ-JKFIT
	 Reference Energy          =   -1327.8587403181302307 [Eh]
	 Singles Energy            =      -0.0000000000000000 [Eh]
	 Same-Spin Energy          =      -1.0143976829578794 [Eh]
	 Opposite-Spin Energy      =      -3.0757411868614124 [Eh]
	 Correlation Energy        =      -4.0901388698192918 [Eh]
	 Total Energy              =   -1331.9488791879496148 [Eh]

	 ================> DF-SCS-MP2 Energies <==================
	-----------------------------------------------------------
	 SCS Same-Spin Scale       =       0.3333333333333333 [-]
	 SCS Opposite-Spin Scale   =       1.2000000000000000 [-]
	 SCS Same-Spin Energy      =      -0.3381325609859598 [Eh]
	 SCS Opposite-Spin Energy  =      -3.6908894242336947 [Eh]
	 SCS Correlation Energy    =      -4.0290219852196545 [Eh]
	 SCS Total Energy          =   -1331.8877623033499731 [Eh]
	-----------------------------------------------------------

  Dipole Moment: [D]
     X:    -1.1016      Y:     1.7825      Z:     0.6632     Total:     2.1979

*** Psi4 exiting successfully. Buy a developer a beer!
