                               Psi4 1.4a3.dev225

  ==> Input File <==

--------------------------------------------------------------------------
#psi4
#
memory 32 gb

molecule  {
0 1
  P       -2.3219140    -1.0563120    -0.0968450
  O       -1.0285840    -0.5623410     0.7549430
  O        1.3695440    -1.8069540     1.2202350
  O       -0.1592450     2.1412630     0.5207450
  O        3.3269040    -2.0858120    -0.6453880
  O        2.5724350     2.5270130     0.6374560
  O        4.2203020     0.6406430    -0.6358120
  O       -2.8737010     0.2643620    -0.8096810
  O       -3.3065970    -1.3497020     1.1531960
  O       -2.1044560    -2.1814480    -1.0350500
  C        0.1200290    -0.1583450    -0.0432010
  C        1.0698050    -1.3527180    -0.1046720
  C        0.7441670     1.0454510     0.6308160
  C        2.4193320    -0.9866070    -0.7068450
  C        2.0603010     1.3853380    -0.0470020
  C        3.0180900     0.2181970     0.0056710
  C       -3.2473180     1.4231610     0.0025120
  C       -3.2076300     2.6262440    -0.9075720
  H       -0.2047330     0.1313700    -1.0514980
  H        0.5965010    -2.1549610    -0.6866410
  H        0.9336146     0.8106628     1.6668186
  H        2.3054700    -0.7437210    -1.7704410
  H        1.8633300     1.6367370    -1.1028410
  H        3.2142070    -0.0417910     1.0561650
  H        0.5126160    -2.0057500     1.6426110
  H        0.3598300     2.9232990     0.7925780
  H        3.1793900    -2.4823080     0.2360710
  H        3.4672560     2.6739710     0.2770410
  H        4.7639490    -0.1654590    -0.7244900
  H       -3.7873380    -2.1826420     0.9908450
  H       -4.2474700     1.2335250     0.4005830
  H       -2.5352900     1.5309660     0.8217280
  H       -3.5402110     3.5125760    -0.3587690
  H       -2.1856630     2.7912820    -1.2511950
  H       -3.8637180     2.4807570    -1.7684970
units angstrom
no_reorient  #important for SAPT in psi4, default
symmetry c1  #important for SAPT in psi4, default
}

set PROPERTIES_ORIGIN ["COM"]
properties('MP2/aug-cc-pvtz', properties = ['dipole'])
--------------------------------------------------------------------------

    Molecular point group: c1
  Charge       = 0
  Multiplicity = 1
  Basis Set: AUG-CC-PVTZ
    Blend: AUG-CC-PVTZ
  Basis Set: (AUG-CC-PVTZ AUX)
    Blend: AUG-CC-PVTZ-JKFIT

    Orbital Energies [Eh]
    ---------------------

    Doubly Occupied:

       1A    -80.116850     2A    -20.615023     3A    -20.608118
       4A    -20.596025     5A    -20.584222     6A    -20.578543
       7A    -20.575371     8A    -20.575205     9A    -20.574348
      10A    -20.522555    11A    -11.321277    12A    -11.305277
      13A    -11.300337    14A    -11.298627    15A    -11.297967
      16A    -11.296141    17A    -11.293060    18A    -11.222875
      19A     -7.632112    20A     -5.530647    21A     -5.530144
      22A     -5.529082    23A     -1.458522    24A     -1.410984
      25A     -1.395486    26A     -1.392724    27A     -1.385193
      28A     -1.372755    29A     -1.364222    30A     -1.354294
      31A     -1.302738    32A     -1.119025    33A     -1.035498
      34A     -1.011460    35A     -1.004114    36A     -0.877862
      37A     -0.862411    38A     -0.860412    39A     -0.822837
      40A     -0.811123    41A     -0.754804    42A     -0.746060
      43A     -0.729486    44A     -0.726161    45A     -0.705867
      46A     -0.687161    47A     -0.679399    48A     -0.674325
      49A     -0.662473    50A     -0.659398    51A     -0.642726
      52A     -0.637808    53A     -0.623759    54A     -0.613133
      55A     -0.604741    56A     -0.596976    57A     -0.580871
      58A     -0.577811    59A     -0.570355    60A     -0.560019
      61A     -0.555355    62A     -0.548160    63A     -0.538671
      64A     -0.537882    65A     -0.530102    66A     -0.517795
      67A     -0.508776    68A     -0.503551    69A     -0.494776
      70A     -0.487677    71A     -0.478695    72A     -0.475522
      73A     -0.462954    74A     -0.457351    75A     -0.451525
      76A     -0.436781

  @DF-RHF Final Energy: -1327.86111248365910

   => Energetics <=

    Nuclear Repulsion Energy =           1774.7466855735817717
    One-Electron Energy =               -5361.6868551530878904
    Two-Electron Energy =                2259.0790570958465651
    Total Energy =                      -1327.8611124836593262
  Basis Set: (AUG-CC-PVTZ AUX)
    Blend: AUG-CC-PVTZ-RI
    Molecular point group: c1

    Geometry (in Angstrom), charge = 0, multiplicity = 1:

       Center              X                  Y                   Z               Mass
    ------------   -----------------  -----------------  -----------------  -----------------
         P           -2.311140331915    -1.018548166576    -0.099222295148    30.973761998420
         O           -1.017810331915    -0.524577166576     0.752565704852    15.994914619570
         O            1.380317668085    -1.769190166576     1.217857704852    15.994914619570
         O           -0.148471331915     2.179026833424     0.518367704852    15.994914619570
         O            3.337677668085    -2.048048166576    -0.647765295148    15.994914619570
         O            2.583208668085     2.564776833424     0.635078704852    15.994914619570
         O            4.231075668085     0.678406833424    -0.638189295148    15.994914619570
         O           -2.862927331915     0.302125833424    -0.812058295148    15.994914619570
         O           -3.295823331915    -1.311938166576     1.150818704852    15.994914619570
         O           -2.093682331915    -2.143684166576    -1.037427295148    15.994914619570
         C            0.130802668085    -0.120581166576    -0.045578295148    12.000000000000
         C            1.080578668085    -1.314954166576    -0.107049295148    12.000000000000
         C            0.754940668085     1.083214833424     0.628438704852    12.000000000000
         C            2.430105668085    -0.948843166576    -0.709222295148    12.000000000000
         C            2.071074668085     1.423101833424    -0.049379295148    12.000000000000
         C            3.028863668085     0.255960833424     0.003293704852    12.000000000000
         C           -3.236544331915     1.460924833424     0.000134704852    12.000000000000
         C           -3.196856331915     2.664007833424    -0.909949295148    12.000000000000
         H           -0.193959331915     0.169133833424    -1.053875295148     1.007825032230
         H            0.607274668085    -2.117197166576    -0.689018295148     1.007825032230
         H            0.944388268085     0.848426633424     1.664441304852     1.007825032230
         H            2.316243668085    -0.705957166576    -1.772818295148     1.007825032230
         H            1.874103668085     1.674500833424    -1.105218295148     1.007825032230
         H            3.224980668085    -0.004027166576     1.053787704852     1.007825032230
         H            0.523389668085    -1.967986166576     1.640233704852     1.007825032230
         H            0.370603668085     2.961062833424     0.790200704852     1.007825032230
         H            3.190163668085    -2.444544166576     0.233693704852     1.007825032230
         H            3.478029668085     2.711734833424     0.274663704852     1.007825032230
         H            4.774722668085    -0.127695166576    -0.726867295148     1.007825032230
         H           -3.776564331915    -2.144878166576     0.988467704852     1.007825032230
         H           -4.236696331915     1.271288833424     0.398205704852     1.007825032230
         H           -2.524516331915     1.568729833424     0.819350704852     1.007825032230
         H           -3.529437331915     3.550339833424    -0.361146295148     1.007825032230
         H           -2.174889331915     2.829045833424    -1.253572295148     1.007825032230
         H           -3.852944331915     2.518520833424    -1.770874295148     1.007825032230

  Basis Set: AUG-CC-PVTZ
    Blend: AUG-CC-PVTZ
  Basis Set: (AUG-CC-PVTZ AUX)
    Blend: AUG-CC-PVTZ-JKFIT
	 Reference Energy          =   -1327.8611124836590989 [Eh]
	 Singles Energy            =      -0.0000000000000000 [Eh]
	 Same-Spin Energy          =      -1.0146516516544219 [Eh]
	 Opposite-Spin Energy      =      -3.0763946590740581 [Eh]
	 Correlation Energy        =      -4.0910463107284798 [Eh]
	 Total Energy              =   -1331.9521587943875147 [Eh]

	 ================> DF-SCS-MP2 Energies <==================
	-----------------------------------------------------------
	 SCS Same-Spin Scale       =       0.3333333333333333 [-]
	 SCS Opposite-Spin Scale   =       1.2000000000000000 [-]
	 SCS Same-Spin Energy      =      -0.3382172172181406 [Eh]
	 SCS Opposite-Spin Energy  =      -3.6916735908888696 [Eh]
	 SCS Correlation Energy    =      -4.0298908081070106 [Eh]
	 SCS Total Energy          =   -1331.8910032917660828 [Eh]
	-----------------------------------------------------------

  Dipole Moment: [D]
     X:    -0.8586      Y:     1.4145      Z:     1.8824     Total:     2.5062

*** Psi4 exiting successfully. Buy a developer a beer!
