                               Psi4 1.3.2 release

  ==> Input File <==

--------------------------------------------------------------------------
#psi4
#
memory 32 gb

molecule  {
0 1
  P       -2.2900960    -0.9400430     0.3446780
  O       -0.9821530    -0.2015620     0.9382890
  O        1.3422500    -1.6754830     1.2308510
  O        0.0787050     2.3596040     0.4621680
  O        3.0685150    -2.1870720    -0.8085900
  O        2.8473350     2.5031130     0.3715350
  O        4.1956880     0.4353970    -0.9728740
  O       -2.8268630     0.0333510    -0.8075310
  O       -3.2495275    -0.6677438     1.6182754
  O       -2.0875923    -2.3269656    -0.1372487
  C        0.1181620     0.0300090     0.0163190
  C        0.9532920    -1.2442050    -0.0757250
  C        0.8985890     1.2026440     0.5648510
  C        2.2596600    -1.0143070    -0.8180370
  C        2.1770750     1.3964720    -0.2280410
  C        3.0258420     0.1487050    -0.2103220
  C       -3.1242130     1.4315980    -0.4888860
  C       -3.5363170     2.0851650    -1.7841190
  H       -0.2830920     0.2988010    -0.9702380
  H        0.3702690    -2.0293640    -0.5720320
  H        1.1571200     0.9978770     1.6121560
  H        2.0609340    -0.7886600    -1.8727560
  H        1.9169870     1.6362870    -1.2735830
  H        3.2958550    -0.0945320     0.8276460
  H        0.5217750    -1.8880320     1.7115100
  H        0.6655400     3.1093110     0.6831840
  H        2.9735430    -2.5473740     0.0946540
  H        3.7214290     2.5491860    -0.0588690
  H        4.6397270    -0.4238340    -1.0970870
  H       -3.8083950    -1.5223380     1.7347280
  H       -3.9305460     1.4455410     0.2493860
  H       -2.2297620     1.8928800    -0.0590960
  H       -3.8005210     3.1308820    -1.6026710
  H       -2.7171960     2.0533230    -2.5048750
  H       -4.4009440     1.5743230    -2.2127240
units angstrom
no_reorient  #important for SAPT in psi4, default
symmetry c1  #important for SAPT in psi4, default
}

set PROPERTIES_ORIGIN ["COM"]
properties('MP2/aug-cc-pvtz', properties = ['dipole'])
--------------------------------------------------------------------------

    Molecular point group: c1
  Charge       = 0
  Multiplicity = 1
  Basis Set: AUG-CC-PVTZ
    Blend: AUG-CC-PVTZ
  Basis Set: (AUG-CC-PVTZ AUX)
    Blend: AUG-CC-PVTZ-JKFIT

    Orbital Energies [Eh]
    ---------------------

    Doubly Occupied:

       1A    -80.116488     2A    -20.623477     3A    -20.604171
       4A    -20.595877     5A    -20.582293     6A    -20.575994
       7A    -20.573829     8A    -20.573373     9A    -20.572375
      10A    -20.526795    11A    -11.318811    12A    -11.302056
      13A    -11.298336    14A    -11.297430    15A    -11.297419
      16A    -11.295723    17A    -11.290588    18A    -11.228576
      19A     -7.632111    20A     -5.530677    21A     -5.530200
      22A     -5.528998    23A     -1.458628    24A     -1.409264
      25A     -1.393173    26A     -1.391076    27A     -1.382171
      28A     -1.371286    29A     -1.363064    30A     -1.352973
      31A     -1.306308    32A     -1.117816    33A     -1.038785
      34A     -1.010626    35A     -1.002327    36A     -0.877787
      37A     -0.863393    38A     -0.857811    39A     -0.816875
      40A     -0.809237    41A     -0.750330    42A     -0.742282
      43A     -0.727792    44A     -0.726974    45A     -0.704227
      46A     -0.686249    47A     -0.677823    48A     -0.673750
      49A     -0.662224    50A     -0.659969    51A     -0.642047
      52A     -0.633822    53A     -0.625384    54A     -0.614143
      55A     -0.602684    56A     -0.597613    57A     -0.582181
      58A     -0.574303    59A     -0.570105    60A     -0.559247
      61A     -0.555895    62A     -0.547609    63A     -0.540178
      64A     -0.535830    65A     -0.528501    66A     -0.520680
      67A     -0.511670    68A     -0.503225    69A     -0.497216
      70A     -0.483838    71A     -0.481161    72A     -0.477047
      73A     -0.461782    74A     -0.455023    75A     -0.449070
      76A     -0.435371

  @DF-RHF Final Energy: -1327.85440844082996

   => Energetics <=

    Nuclear Repulsion Energy =           1773.3634410219831352
    One-Electron Energy =               -5359.0048177393746300
    Two-Electron Energy =                2257.7869682765617654
    Total Energy =                      -1327.8544084408299568
  Basis Set: (AUG-CC-PVTZ AUX)
    Blend: AUG-CC-PVTZ-RI
    Molecular point group: c1

    Geometry (in Angstrom), charge = 0, multiplicity = 1:

       Center              X                  Y                   Z               Mass
    ------------   -----------------  -----------------  -----------------  -----------------
         P           -2.292372216590    -0.944052890902     0.346953246276    30.973761998420
         O           -0.984429216590    -0.205571890902     0.940564246276    15.994914619570
         O            1.339973783410    -1.679492890902     1.233126246276    15.994914619570
         O            0.076428783410     2.355594109098     0.464443246276    15.994914619570
         O            3.066238783410    -2.191081890902    -0.806314753724    15.994914619570
         O            2.845058783410     2.499103109098     0.373810246276    15.994914619570
         O            4.193411783410     0.431387109098    -0.970598753724    15.994914619570
         O           -2.829139216590     0.029341109098    -0.805255753724    15.994914619570
         O           -3.251803716590    -0.671753690902     1.620550646276    15.994914619570
         O           -2.089868516590    -2.330975490902    -0.134973453724    15.994914619570
         C            0.115885783410     0.025999109098     0.018594246276    12.000000000000
         C            0.951015783410    -1.248214890902    -0.073449753724    12.000000000000
         C            0.896312783410     1.198634109098     0.567126246276    12.000000000000
         C            2.257383783410    -1.018316890902    -0.815761753724    12.000000000000
         C            2.174798783410     1.392462109098    -0.225765753724    12.000000000000
         C            3.023565783410     0.144695109098    -0.208046753724    12.000000000000
         C           -3.126489216590     1.427588109098    -0.486610753724    12.000000000000
         C           -3.538593216590     2.081155109098    -1.781843753724    12.000000000000
         H           -0.285368216590     0.294791109098    -0.967962753724     1.007825032230
         H            0.367992783410    -2.033373890902    -0.569756753724     1.007825032230
         H            1.154843783410     0.993867109098     1.614431246276     1.007825032230
         H            2.058657783410    -0.792669890902    -1.870480753724     1.007825032230
         H            1.914710783410     1.632277109098    -1.271307753724     1.007825032230
         H            3.293578783410    -0.098541890902     0.829921246276     1.007825032230
         H            0.519498783410    -1.892041890902     1.713785246276     1.007825032230
         H            0.663263783410     3.105301109098     0.685459246276     1.007825032230
         H            2.971266783410    -2.551383890902     0.096929246276     1.007825032230
         H            3.719152783410     2.545176109098    -0.056593753724     1.007825032230
         H            4.637450783410    -0.427843890902    -1.094811753724     1.007825032230
         H           -3.810671216590    -1.526347890902     1.737003246276     1.007825032230
         H           -3.932822216590     1.441531109098     0.251661246276     1.007825032230
         H           -2.232038216590     1.888870109098    -0.056820753724     1.007825032230
         H           -3.802797216590     3.126872109098    -1.600395753724     1.007825032230
         H           -2.719472216590     2.049313109098    -2.502599753724     1.007825032230
         H           -4.403220216590     1.570313109098    -2.210448753724     1.007825032230

  Basis Set: AUG-CC-PVTZ
    Blend: AUG-CC-PVTZ
  Basis Set: (AUG-CC-PVTZ AUX)
    Blend: AUG-CC-PVTZ-JKFIT
	 Reference Energy          =   -1327.8544084408299568 [Eh]
	 Singles Energy            =      -0.0000000000000000 [Eh]
	 Same-Spin Energy          =      -1.0156072236960074 [Eh]
	 Opposite-Spin Energy      =      -3.0783099962558382 [Eh]
	 Correlation Energy        =      -4.0939172199518454 [Eh]
	 Total Energy              =   -1331.9483256607818475 [Eh]

	 ================> DF-SCS-MP2 Energies <==================
	-----------------------------------------------------------
	 SCS Same-Spin Scale       =       0.3333333333333333 [-]
	 SCS Opposite-Spin Scale   =       1.2000000000000000 [-]
	 SCS Same-Spin Energy      =      -0.3385357412320025 [Eh]
	 SCS Opposite-Spin Energy  =      -3.6939719955070056 [Eh]
	 SCS Correlation Energy    =      -4.0325077367390083 [Eh]
	 SCS Total Energy          =   -1331.8869161775689918 [Eh]
	-----------------------------------------------------------

  Dipole Moment: [D]
     X:    -1.2888      Y:     1.6448      Z:     0.8773     Total:     2.2662

*** Psi4 exiting successfully. Buy a developer a beer!
