                               Psi4 1.3.2 release

  ==> Input File <==

--------------------------------------------------------------------------
#psi4
#
memory 32 gb

molecule  {
0 1
  P       -2.2900960    -0.9400430     0.3446780
  O       -0.9821530    -0.2015620     0.9382890
  O        1.3422500    -1.6754830     1.2308510
  O        0.0787050     2.3596040     0.4621680
  O        3.0685150    -2.1870720    -0.8085900
  O        2.8473350     2.5031130     0.3715350
  O        4.1956880     0.4353970    -0.9728740
  O       -2.8268630     0.0333510    -0.8075310
  O       -3.2591210    -0.7232820     1.6216710
  O       -2.1189930    -2.3436440    -0.0996680
  C        0.1181620     0.0300090     0.0163190
  C        0.9532920    -1.2442050    -0.0757250
  C        0.8985890     1.2026440     0.5648510
  C        2.2596600    -1.0143070    -0.8180370
  C        2.1770750     1.3964720    -0.2280410
  C        2.9437797     0.1285941    -0.1568306
  C       -3.1242130     1.4315980    -0.4888860
  C       -3.5363170     2.0851650    -1.7841190
  H       -0.2830920     0.2988010    -0.9702380
  H        0.3702690    -2.0293640    -0.5720320
  H        1.1571200     0.9978770     1.6121560
  H        2.0609340    -0.7886600    -1.8727560
  H        1.9169870     1.6362870    -1.2735830
  H        3.2958550    -0.0945320     0.8276460
  H        0.5217750    -1.8880320     1.7115100
  H        0.6655400     3.1093110     0.6831840
  H        2.9735430    -2.5473740     0.0946540
  H        3.7214290     2.5491860    -0.0588690
  H        4.6397270    -0.4238340    -1.0970870
  H       -3.8083950    -1.5223380     1.7347280
  H       -3.9305460     1.4455410     0.2493860
  H       -2.2297620     1.8928800    -0.0590960
  H       -3.8005210     3.1308820    -1.6026710
  H       -2.7171960     2.0533230    -2.5048750
  H       -4.4009440     1.5743230    -2.2127240
units angstrom
no_reorient  #important for SAPT in psi4, default
symmetry c1  #important for SAPT in psi4, default
}

set PROPERTIES_ORIGIN ["COM"]
properties('MP2/aug-cc-pvtz', properties = ['dipole'])
--------------------------------------------------------------------------

    Molecular point group: c1
  Charge       = 0
  Multiplicity = 1
  Basis Set: AUG-CC-PVTZ
    Blend: AUG-CC-PVTZ
  Basis Set: (AUG-CC-PVTZ AUX)
    Blend: AUG-CC-PVTZ-JKFIT

    Orbital Energies [Eh]
    ---------------------

    Doubly Occupied:

       1A    -80.117856     2A    -20.615516     3A    -20.608419
       4A    -20.599730     5A    -20.585227     6A    -20.579129
       7A    -20.576986     8A    -20.573891     9A    -20.562173
      10A    -20.524231    11A    -11.322489    12A    -11.304272
      13A    -11.302136    14A    -11.300033    15A    -11.299713
      16A    -11.299002    17A    -11.292888    18A    -11.230403
      19A     -7.633306    20A     -5.531812    21A     -5.531441
      22A     -5.530235    23A     -1.461329    24A     -1.411332
      25A     -1.394878    26A     -1.391310    27A     -1.387211
      28A     -1.367648    29A     -1.364602    30A     -1.331759
      31A     -1.304632    32A     -1.128445    33A     -1.041209
      34A     -1.018222    35A     -1.008790    36A     -0.881587
      37A     -0.865846    38A     -0.859955    39A     -0.824183
      40A     -0.814855    41A     -0.752779    42A     -0.743616
      43A     -0.730479    44A     -0.729731    45A     -0.710662
      46A     -0.686931    47A     -0.679856    48A     -0.672065
      49A     -0.662803    50A     -0.654022    51A     -0.643758
      52A     -0.629340    53A     -0.627704    54A     -0.617278
      55A     -0.604514    56A     -0.599642    57A     -0.580495
      58A     -0.576378    59A     -0.571103    60A     -0.560764
      61A     -0.553177    62A     -0.548322    63A     -0.542014
      64A     -0.535060    65A     -0.526675    66A     -0.522235
      67A     -0.512152    68A     -0.501131    69A     -0.497403
      70A     -0.485012    71A     -0.480682    72A     -0.477662
      73A     -0.466778    74A     -0.461651    75A     -0.450907
      76A     -0.443815

  @DF-RHF Final Energy: -1327.84985512070784

   => Energetics <=

    Nuclear Repulsion Energy =           1773.5213222283450705
    One-Electron Energy =               -5359.1078011967920247
    Two-Electron Energy =                2257.7366238477393381
    Total Energy =                      -1327.8498551207076162
  Basis Set: (AUG-CC-PVTZ AUX)
    Blend: AUG-CC-PVTZ-RI
    Molecular point group: c1

    Geometry (in Angstrom), charge = 0, multiplicity = 1:

       Center              X                  Y                   Z               Mass
    ------------   -----------------  -----------------  -----------------  -----------------
         P           -2.286677428958    -0.939205205661     0.342449654558    30.973761998420
         O           -0.978734428958    -0.200724205661     0.936060654558    15.994914619570
         O            1.345668571042    -1.674645205661     1.228622654558    15.994914619570
         O            0.082123571042     2.360441794339     0.459939654558    15.994914619570
         O            3.071933571042    -2.186234205661    -0.810818345442    15.994914619570
         O            2.850753571042     2.503950794339     0.369306654558    15.994914619570
         O            4.199106571042     0.436234794339    -0.975102345442    15.994914619570
         O           -2.823444428958     0.034188794339    -0.809759345442    15.994914619570
         O           -3.255702428958    -0.722444205661     1.619442654558    15.994914619570
         O           -2.115574428958    -2.342806205661    -0.101896345442    15.994914619570
         C            0.121580571042     0.030846794339     0.014090654558    12.000000000000
         C            0.956710571042    -1.243367205661    -0.077953345442    12.000000000000
         C            0.902007571042     1.203481794339     0.562622654558    12.000000000000
         C            2.263078571042    -1.013469205661    -0.820265345442    12.000000000000
         C            2.180493571042     1.397309794339    -0.230269345442    12.000000000000
         C            2.947198271042     0.129431894339    -0.159058945442    12.000000000000
         C           -3.120794428958     1.432435794339    -0.491114345442    12.000000000000
         C           -3.532898428958     2.086002794339    -1.786347345442    12.000000000000
         H           -0.279673428958     0.299638794339    -0.972466345442     1.007825032230
         H            0.373687571042    -2.028526205661    -0.574260345442     1.007825032230
         H            1.160538571042     0.998714794339     1.609927654558     1.007825032230
         H            2.064352571042    -0.787822205661    -1.874984345442     1.007825032230
         H            1.920405571042     1.637124794339    -1.275811345442     1.007825032230
         H            3.299273571042    -0.093694205661     0.825417654558     1.007825032230
         H            0.525193571042    -1.887194205661     1.709281654558     1.007825032230
         H            0.668958571042     3.110148794339     0.680955654558     1.007825032230
         H            2.976961571042    -2.546536205661     0.092425654558     1.007825032230
         H            3.724847571042     2.550023794339    -0.061097345442     1.007825032230
         H            4.643145571042    -0.422996205661    -1.099315345442     1.007825032230
         H           -3.804976428958    -1.521500205661     1.732499654558     1.007825032230
         H           -3.927127428958     1.446378794339     0.247157654558     1.007825032230
         H           -2.226343428958     1.893717794339    -0.061324345442     1.007825032230
         H           -3.797102428958     3.131719794339    -1.604899345442     1.007825032230
         H           -2.713777428958     2.054160794339    -2.507103345442     1.007825032230
         H           -4.397525428958     1.575160794339    -2.214952345442     1.007825032230

  Basis Set: AUG-CC-PVTZ
    Blend: AUG-CC-PVTZ
  Basis Set: (AUG-CC-PVTZ AUX)
    Blend: AUG-CC-PVTZ-JKFIT
	 Reference Energy          =   -1327.8498551207078435 [Eh]
	 Singles Energy            =      -0.0000000000000000 [Eh]
	 Same-Spin Energy          =      -1.0156376983312561 [Eh]
	 Opposite-Spin Energy      =      -3.0787038418680597 [Eh]
	 Correlation Energy        =      -4.0943415401993155 [Eh]
	 Total Energy              =   -1331.9441966609072097 [Eh]

	 ================> DF-SCS-MP2 Energies <==================
	-----------------------------------------------------------
	 SCS Same-Spin Scale       =       0.3333333333333333 [-]
	 SCS Opposite-Spin Scale   =       1.2000000000000000 [-]
	 SCS Same-Spin Energy      =      -0.3385458994437520 [Eh]
	 SCS Opposite-Spin Energy  =      -3.6944446102416713 [Eh]
	 SCS Correlation Energy    =      -4.0329905096854235 [Eh]
	 SCS Total Energy          =   -1331.8828456303933763 [Eh]
	-----------------------------------------------------------

  Dipole Moment: [D]
     X:    -1.4058      Y:     1.8174      Z:     0.8725     Total:     2.4578

*** Psi4 exiting successfully. Buy a developer a beer!
