                               Psi4 1.3.2 release

  ==> Input File <==

--------------------------------------------------------------------------
#psi4
#
memory 32 gb

molecule  {
0 1
  P       -2.2900960    -0.9400430     0.3446780
  O       -0.9821530    -0.2015620     0.9382890
  O        1.3422500    -1.6754830     1.2308510
  O        0.0787050     2.3596040     0.4621680
  O        3.0685150    -2.1870720    -0.8085900
  O        2.8473350     2.5031130     0.3715350
  O        4.1956880     0.4353970    -0.9728740
  O       -2.8268630     0.0333510    -0.8075310
  O       -3.2591210    -0.7232820     1.6216710
  O       -2.1189930    -2.3436440    -0.0996680
  C        0.1181620     0.0300090     0.0163190
  C        0.9532920    -1.2442050    -0.0757250
  C        0.8985890     1.2026440     0.5648510
  C        2.2596600    -1.0143070    -0.8180370
  C        2.1770750     1.3964720    -0.2280410
  C        2.8617174     0.1084833    -0.1033391
  C       -3.1242130     1.4315980    -0.4888860
  C       -3.5363170     2.0851650    -1.7841190
  H       -0.2830920     0.2988010    -0.9702380
  H        0.3702690    -2.0293640    -0.5720320
  H        1.1571200     0.9978770     1.6121560
  H        2.0609340    -0.7886600    -1.8727560
  H        1.9169870     1.6362870    -1.2735830
  H        3.2958550    -0.0945320     0.8276460
  H        0.5217750    -1.8880320     1.7115100
  H        0.6655400     3.1093110     0.6831840
  H        2.9735430    -2.5473740     0.0946540
  H        3.7214290     2.5491860    -0.0588690
  H        4.6397270    -0.4238340    -1.0970870
  H       -3.8083950    -1.5223380     1.7347280
  H       -3.9305460     1.4455410     0.2493860
  H       -2.2297620     1.8928800    -0.0590960
  H       -3.8005210     3.1308820    -1.6026710
  H       -2.7171960     2.0533230    -2.5048750
  H       -4.4009440     1.5743230    -2.2127240
units angstrom
no_reorient  #important for SAPT in psi4, default
symmetry c1  #important for SAPT in psi4, default
}

set PROPERTIES_ORIGIN ["COM"]
properties('MP2/aug-cc-pvtz', properties = ['dipole'])
--------------------------------------------------------------------------

    Molecular point group: c1
  Charge       = 0
  Multiplicity = 1
  Basis Set: AUG-CC-PVTZ
    Blend: AUG-CC-PVTZ
  Basis Set: (AUG-CC-PVTZ AUX)
    Blend: AUG-CC-PVTZ-JKFIT

    Orbital Energies [Eh]
    ---------------------

    Doubly Occupied:

       1A    -80.118965     2A    -20.616461     3A    -20.610114
       4A    -20.600686     5A    -20.587714     6A    -20.581442
       7A    -20.579337     8A    -20.574582     9A    -20.548271
      10A    -20.525204    11A    -11.324633    12A    -11.305754
      13A    -11.305089    14A    -11.302486    15A    -11.300858
      16A    -11.300818    17A    -11.297718    18A    -11.231043
      19A     -7.634415    20A     -5.532920    21A     -5.532551
      22A     -5.531340    23A     -1.462609    24A     -1.413389
      25A     -1.396745    26A     -1.391860    27A     -1.388073
      28A     -1.368995    29A     -1.365088    30A     -1.305648
      31A     -1.304704    32A     -1.138782    33A     -1.042100
      34A     -1.023098    35A     -1.015068    36A     -0.883279
      37A     -0.867054    38A     -0.860882    39A     -0.827478
      40A     -0.818282    41A     -0.755067    42A     -0.743904
      43A     -0.731426    44A     -0.730652    45A     -0.714362
      46A     -0.688637    47A     -0.682562    48A     -0.672477
      49A     -0.664577    50A     -0.650608    51A     -0.644412
      52A     -0.630184    53A     -0.620963    54A     -0.617020
      55A     -0.605451    56A     -0.602260    57A     -0.581568
      58A     -0.577396    59A     -0.571848    60A     -0.562266
      61A     -0.553842    62A     -0.548721    63A     -0.543108
      64A     -0.536121    65A     -0.524877    66A     -0.523032
      67A     -0.506894    68A     -0.499091    69A     -0.495100
      70A     -0.482590    71A     -0.480088    72A     -0.478788
      73A     -0.469950    74A     -0.462596    75A     -0.450529
      76A     -0.443232

  @DF-RHF Final Energy: -1327.82412444911665

   => Energetics <=

    Nuclear Repulsion Energy =           1774.6555792884780658
    One-Electron Energy =               -5361.2359332973155688
    Two-Electron Energy =                2258.7562295597203956
    Total Energy =                      -1327.8241244491168800
  Basis Set: (AUG-CC-PVTZ AUX)
    Blend: AUG-CC-PVTZ-RI
    Molecular point group: c1

    Geometry (in Angstrom), charge = 0, multiplicity = 1:

       Center              X                  Y                   Z               Mass
    ------------   -----------------  -----------------  -----------------  -----------------
         P           -2.283258890751    -0.938367433161     0.340221314181    30.973761998420
         O           -0.975315890751    -0.199886433161     0.933832314181    15.994914619570
         O            1.349087109249    -1.673807433161     1.226394314181    15.994914619570
         O            0.085542109249     2.361279566839     0.457711314181    15.994914619570
         O            3.075352109249    -2.185396433161    -0.813046685819    15.994914619570
         O            2.854172109249     2.504788566839     0.367078314181    15.994914619570
         O            4.202525109249     0.437072566839    -0.977330685819    15.994914619570
         O           -2.820025890751     0.035026566839    -0.811987685819    15.994914619570
         O           -3.252283890751    -0.721606433161     1.617214314181    15.994914619570
         O           -2.112155890751    -2.341968433161    -0.104124685819    15.994914619570
         C            0.124999109249     0.031684566839     0.011862314181    12.000000000000
         C            0.960129109249    -1.242529433161    -0.080181685819    12.000000000000
         C            0.905426109249     1.204319566839     0.560394314181    12.000000000000
         C            2.266497109249    -1.012631433161    -0.822493685819    12.000000000000
         C            2.183912109249     1.398147566839    -0.232497685819    12.000000000000
         C            2.868554509249     0.110158866839    -0.107795785819    12.000000000000
         C           -3.117375890751     1.433273566839    -0.493342685819    12.000000000000
         C           -3.529479890751     2.086840566839    -1.788575685819    12.000000000000
         H           -0.276254890751     0.300476566839    -0.974694685819     1.007825032230
         H            0.377106109249    -2.027688433161    -0.576488685819     1.007825032230
         H            1.163957109249     0.999552566839     1.607699314181     1.007825032230
         H            2.067771109249    -0.786984433161    -1.877212685819     1.007825032230
         H            1.923824109249     1.637962566839    -1.278039685819     1.007825032230
         H            3.302692109249    -0.092856433161     0.823189314181     1.007825032230
         H            0.528612109249    -1.886356433161     1.707053314181     1.007825032230
         H            0.672377109249     3.110986566839     0.678727314181     1.007825032230
         H            2.980380109249    -2.545698433161     0.090197314181     1.007825032230
         H            3.728266109249     2.550861566839    -0.063325685819     1.007825032230
         H            4.646564109249    -0.422158433161    -1.101543685819     1.007825032230
         H           -3.801557890751    -1.520662433161     1.730271314181     1.007825032230
         H           -3.923708890751     1.447216566839     0.244929314181     1.007825032230
         H           -2.222924890751     1.894555566839    -0.063552685819     1.007825032230
         H           -3.793683890751     3.132557566839    -1.607127685819     1.007825032230
         H           -2.710358890751     2.054998566839    -2.509331685819     1.007825032230
         H           -4.394106890751     1.575998566839    -2.217180685819     1.007825032230

  Basis Set: AUG-CC-PVTZ
    Blend: AUG-CC-PVTZ
  Basis Set: (AUG-CC-PVTZ AUX)
    Blend: AUG-CC-PVTZ-JKFIT
	 Reference Energy          =   -1327.8241244491166526 [Eh]
	 Singles Energy            =      -0.0000000000000000 [Eh]
	 Same-Spin Energy          =      -1.0174050743543726 [Eh]
	 Opposite-Spin Energy      =      -3.0824913918553527 [Eh]
	 Correlation Energy        =      -4.0998964662097253 [Eh]
	 Total Energy              =   -1331.9240209153263095 [Eh]

	 ================> DF-SCS-MP2 Energies <==================
	-----------------------------------------------------------
	 SCS Same-Spin Scale       =       0.3333333333333333 [-]
	 SCS Opposite-Spin Scale   =       1.2000000000000000 [-]
	 SCS Same-Spin Energy      =      -0.3391350247847909 [Eh]
	 SCS Opposite-Spin Energy  =      -3.6989896702264229 [Eh]
	 SCS Correlation Energy    =      -4.0381246950112137 [Eh]
	 SCS Total Energy          =   -1331.8622491441278726 [Eh]
	-----------------------------------------------------------

  Dipole Moment: [D]
     X:    -1.6951      Y:     1.7781      Z:     1.0057     Total:     2.6545

*** Psi4 exiting successfully. Buy a developer a beer!
