                               Psi4 1.4a3.dev225

  ==> Input File <==

--------------------------------------------------------------------------
#psi4
#
memory 32 gb

molecule  {
0 1
  P       -2.3219140    -1.0563120    -0.0968450
  O       -1.0285840    -0.5623410     0.7549430
  O        1.3695440    -1.8069540     1.2202350
  O       -0.1592450     2.1412630     0.5207450
  O        3.3269040    -2.0858120    -0.6453880
  O        2.5724350     2.5270130     0.6374560
  O        4.2203020     0.6406430    -0.6358120
  O       -2.8737010     0.2643620    -0.8096810
  O       -3.3065970    -1.3497020     1.1531960
  O       -2.1044560    -2.1814480    -1.0350500
  C        0.1200290    -0.1583450    -0.0432010
  C        1.0698050    -1.3527180    -0.1046720
  C        0.7441670     1.0454510     0.6308160
  C        2.4193320    -0.9866070    -0.7068450
  C        2.0603010     1.3853380    -0.0470020
  C        3.0180900     0.2181970     0.0056710
  C       -3.2473180     1.4231610     0.0025120
  C       -3.2076300     2.6262440    -0.9075720
  H       -0.2047330     0.1313700    -1.0514980
  H        0.5965010    -2.1549610    -0.6866410
  H        0.9371260     0.8063110     1.6860210
  H        2.3033939    -0.7392924    -1.7898337
  H        1.8633300     1.6367370    -1.1028410
  H        3.2142070    -0.0417910     1.0561650
  H        0.5126160    -2.0057500     1.6426110
  H        0.3598300     2.9232990     0.7925780
  H        3.1793900    -2.4823080     0.2360710
  H        3.4672560     2.6739710     0.2770410
  H        4.7639490    -0.1654590    -0.7244900
  H       -3.7873380    -2.1826420     0.9908450
  H       -4.2474700     1.2335250     0.4005830
  H       -2.5352900     1.5309660     0.8217280
  H       -3.5402110     3.5125760    -0.3587690
  H       -2.1856630     2.7912820    -1.2511950
  H       -3.8637180     2.4807570    -1.7684970
units angstrom
no_reorient  #important for SAPT in psi4, default
symmetry c1  #important for SAPT in psi4, default
}

set PROPERTIES_ORIGIN ["COM"]
properties('MP2/aug-cc-pvtz', properties = ['dipole'])
--------------------------------------------------------------------------

    Molecular point group: c1
  Charge       = 0
  Multiplicity = 1
  Basis Set: AUG-CC-PVTZ
    Blend: AUG-CC-PVTZ
  Basis Set: (AUG-CC-PVTZ AUX)
    Blend: AUG-CC-PVTZ-JKFIT

    Orbital Energies [Eh]
    ---------------------

    Doubly Occupied:

       1A    -80.116840     2A    -20.615020     3A    -20.608109
       4A    -20.596033     5A    -20.584230     6A    -20.578524
       7A    -20.575479     8A    -20.575352     9A    -20.574662
      10A    -20.522548    11A    -11.321423    12A    -11.305438
      13A    -11.302668    14A    -11.300625    15A    -11.298386
      16A    -11.296160    17A    -11.293229    18A    -11.222904
      19A     -7.632103    20A     -5.530638    21A     -5.530136
      22A     -5.529074    23A     -1.458517    24A     -1.410995
      25A     -1.395490    26A     -1.392774    27A     -1.385201
      28A     -1.372785    29A     -1.364328    30A     -1.354360
      31A     -1.302732    32A     -1.118634    33A     -1.035519
      34A     -1.011349    35A     -1.003063    36A     -0.877855
      37A     -0.862411    38A     -0.858778    39A     -0.822528
      40A     -0.809338    41A     -0.754553    42A     -0.745813
      43A     -0.729063    44A     -0.726177    45A     -0.705677
      46A     -0.686766    47A     -0.679353    48A     -0.674271
      49A     -0.662426    50A     -0.659370    51A     -0.642140
      52A     -0.637582    53A     -0.623686    54A     -0.613053
      55A     -0.604176    56A     -0.596435    57A     -0.580835
      58A     -0.577746    59A     -0.570175    60A     -0.559760
      61A     -0.555112    62A     -0.548102    63A     -0.538723
      64A     -0.537427    65A     -0.529571    66A     -0.517512
      67A     -0.508639    68A     -0.503346    69A     -0.494615
      70A     -0.487347    71A     -0.478707    72A     -0.475504
      73A     -0.462700    74A     -0.457331    75A     -0.451036
      76A     -0.436812

  @DF-RHF Final Energy: -1327.86033960598365

   => Energetics <=

    Nuclear Repulsion Energy =           1774.4943643758904273
    One-Electron Energy =               -5361.1938482232899332
    Two-Electron Energy =                2258.8391442414153971
    Total Energy =                      -1327.8603396059838815
  Basis Set: (AUG-CC-PVTZ AUX)
    Blend: AUG-CC-PVTZ-RI
    Molecular point group: c1

    Geometry (in Angstrom), charge = 0, multiplicity = 1:

       Center              X                  Y                   Z               Mass
    ------------   -----------------  -----------------  -----------------  -----------------
         P           -2.311145353529    -1.018548435273    -0.099221629354    30.973761998420
         O           -1.017815353529    -0.524577435273     0.752566370646    15.994914619570
         O            1.380312646471    -1.769190435273     1.217858370646    15.994914619570
         O           -0.148476353529     2.179026564727     0.518368370646    15.994914619570
         O            3.337672646471    -2.048048435273    -0.647764629354    15.994914619570
         O            2.583203646471     2.564776564727     0.635079370646    15.994914619570
         O            4.231070646471     0.678406564727    -0.638188629354    15.994914619570
         O           -2.862932353529     0.302125564727    -0.812057629354    15.994914619570
         O           -3.295828353529    -1.311938435273     1.150819370646    15.994914619570
         O           -2.093687353529    -2.143684435273    -1.037426629354    15.994914619570
         C            0.130797646471    -0.120581435273    -0.045577629354    12.000000000000
         C            1.080573646471    -1.314954435273    -0.107048629354    12.000000000000
         C            0.754935646471     1.083214564727     0.628439370646    12.000000000000
         C            2.430100646471    -0.948843435273    -0.709221629354    12.000000000000
         C            2.071069646471     1.423101564727    -0.049378629354    12.000000000000
         C            3.028858646471     0.255960564727     0.003294370646    12.000000000000
         C           -3.236549353529     1.460924564727     0.000135370646    12.000000000000
         C           -3.196861353529     2.664007564727    -0.909948629354    12.000000000000
         H           -0.193964353529     0.169133564727    -1.053874629354     1.007825032230
         H            0.607269646471    -2.117197435273    -0.689017629354     1.007825032230
         H            0.947894646471     0.844074564727     1.683644370646     1.007825032230
         H            2.314162546471    -0.701528835273    -1.792210329354     1.007825032230
         H            1.874098646471     1.674500564727    -1.105217629354     1.007825032230
         H            3.224975646471    -0.004027435273     1.053788370646     1.007825032230
         H            0.523384646471    -1.967986435273     1.640234370646     1.007825032230
         H            0.370598646471     2.961062564727     0.790201370646     1.007825032230
         H            3.190158646471    -2.444544435273     0.233694370646     1.007825032230
         H            3.478024646471     2.711734564727     0.274664370646     1.007825032230
         H            4.774717646471    -0.127695435273    -0.726866629354     1.007825032230
         H           -3.776569353529    -2.144878435273     0.988468370646     1.007825032230
         H           -4.236701353529     1.271288564727     0.398206370646     1.007825032230
         H           -2.524521353529     1.568729564727     0.819351370646     1.007825032230
         H           -3.529442353529     3.550339564727    -0.361145629354     1.007825032230
         H           -2.174894353529     2.829045564727    -1.253571629354     1.007825032230
         H           -3.852949353529     2.518520564727    -1.770873629354     1.007825032230

  Basis Set: AUG-CC-PVTZ
    Blend: AUG-CC-PVTZ
  Basis Set: (AUG-CC-PVTZ AUX)
    Blend: AUG-CC-PVTZ-JKFIT
	 Reference Energy          =   -1327.8603396059836541 [Eh]
	 Singles Energy            =      -0.0000000000000000 [Eh]
	 Same-Spin Energy          =      -1.0147487862546156 [Eh]
	 Opposite-Spin Energy      =      -3.0767475408500631 [Eh]
	 Correlation Energy        =      -4.0914963271046787 [Eh]
	 Total Energy              =   -1331.9518359330884323 [Eh]

	 ================> DF-SCS-MP2 Energies <==================
	-----------------------------------------------------------
	 SCS Same-Spin Scale       =       0.3333333333333333 [-]
	 SCS Opposite-Spin Scale   =       1.2000000000000000 [-]
	 SCS Same-Spin Energy      =      -0.3382495954182052 [Eh]
	 SCS Opposite-Spin Energy  =      -3.6920970490200755 [Eh]
	 SCS Correlation Energy    =      -4.0303466444382803 [Eh]
	 SCS Total Energy          =   -1331.8906862504218225 [Eh]
	-----------------------------------------------------------

  Dipole Moment: [D]
     X:    -0.8592      Y:     1.4153      Z:     1.8829     Total:     2.5073

*** Psi4 exiting successfully. Buy a developer a beer!
