                               Psi4 1.3.2 release

  ==> Input File <==

--------------------------------------------------------------------------
#psi4
#
memory 32 gb

molecule  {
0 1
  P       -2.2900960    -0.9400430     0.3446780
  O       -0.9821530    -0.2015620     0.9382890
  O        1.3422500    -1.6754830     1.2308510
  O        0.0787050     2.3596040     0.4621680
  O        3.0685150    -2.1870720    -0.8085900
  O        2.8473350     2.5031130     0.3715350
  O        4.1956880     0.4353970    -0.9728740
  O       -2.8268630     0.0333510    -0.8075310
  O       -3.2591210    -0.7232820     1.6216710
  O       -2.1189930    -2.3436440    -0.0996680
  C        0.1181620     0.0300090     0.0163190
  C        0.9948411    -1.2172806    -0.0560546
  C        0.9408509     1.1713420     0.5691016
  C        2.2596600    -1.0143070    -0.8180370
  C        2.1770750     1.3964720    -0.2280410
  C        3.0258420     0.1487050    -0.2103220
  C       -3.1242130     1.4315980    -0.4888860
  C       -3.5363170     2.0851650    -1.7841190
  H       -0.2830920     0.2988010    -0.9702380
  H        0.3702690    -2.0293640    -0.5720320
  H        1.1571200     0.9978770     1.6121560
  H        2.0609340    -0.7886600    -1.8727560
  H        1.9169870     1.6362870    -1.2735830
  H        3.2958550    -0.0945320     0.8276460
  H        0.5217750    -1.8880320     1.7115100
  H        0.6655400     3.1093110     0.6831840
  H        2.9735430    -2.5473740     0.0946540
  H        3.7214290     2.5491860    -0.0588690
  H        4.6397270    -0.4238340    -1.0970870
  H       -3.8083950    -1.5223380     1.7347280
  H       -3.9305460     1.4455410     0.2493860
  H       -2.2297620     1.8928800    -0.0590960
  H       -3.8005210     3.1308820    -1.6026710
  H       -2.7171960     2.0533230    -2.5048750
  H       -4.4009440     1.5743230    -2.2127240
units angstrom
no_reorient  #important for SAPT in psi4, default
symmetry c1  #important for SAPT in psi4, default
}

set PROPERTIES_ORIGIN ["COM"]
properties('MP2/aug-cc-pvtz', properties = ['dipole'])
--------------------------------------------------------------------------

    Molecular point group: c1
  Charge       = 0
  Multiplicity = 1
  Basis Set: AUG-CC-PVTZ
    Blend: AUG-CC-PVTZ
  Basis Set: (AUG-CC-PVTZ AUX)
    Blend: AUG-CC-PVTZ-JKFIT

    Orbital Energies [Eh]
    ---------------------

    Doubly Occupied:

       1A    -80.117285     2A    -20.614930     3A    -20.608925
       4A    -20.598833     5A    -20.585225     6A    -20.577944
       7A    -20.576106     8A    -20.574516     9A    -20.567675
      10A    -20.523182    11A    -11.322305    12A    -11.304863
      13A    -11.299439    14A    -11.298676    15A    -11.298190
      16A    -11.297422    17A    -11.292047    18A    -11.229329
      19A     -7.632707    20A     -5.531211    21A     -5.530850
      22A     -5.529630    23A     -1.460645    24A     -1.414119
      25A     -1.395834    26A     -1.392034    27A     -1.386621
      28A     -1.373400    29A     -1.360137    30A     -1.347522
      31A     -1.303517    32A     -1.126771    33A     -1.039968
      34A     -1.013135    35A     -1.009485    36A     -0.881334
      37A     -0.865018    38A     -0.856954    39A     -0.823140
      40A     -0.815635    41A     -0.752405    42A     -0.745885
      43A     -0.730361    44A     -0.727760    45A     -0.709234
      46A     -0.685772    47A     -0.679801    48A     -0.673092
      49A     -0.662645    50A     -0.661620    51A     -0.641984
      52A     -0.633441    53A     -0.628262    54A     -0.616498
      55A     -0.603582    56A     -0.597221    57A     -0.578311
      58A     -0.575427    59A     -0.571669    60A     -0.557027
      61A     -0.555245    62A     -0.548012    63A     -0.541043
      64A     -0.535811    65A     -0.531460    66A     -0.524035
      67A     -0.514057    68A     -0.505652    69A     -0.497080
      70A     -0.488287    71A     -0.479177    72A     -0.476462
      73A     -0.468194    74A     -0.456418    75A     -0.449949
      76A     -0.430563

  @DF-RHF Final Energy: -1327.85398493092271

   => Energetics <=

    Nuclear Repulsion Energy =           1773.0872587277674484
    One-Electron Energy =               -5358.2624873152026339
    Two-Electron Energy =                2257.3212436565127064
    Total Energy =                      -1327.8539849309227066
  Basis Set: (AUG-CC-PVTZ AUX)
    Blend: AUG-CC-PVTZ-RI
    Molecular point group: c1

    Geometry (in Angstrom), charge = 0, multiplicity = 1:

       Center              X                  Y                   Z               Mass
    ------------   -----------------  -----------------  -----------------  -----------------
         P           -2.293587352439    -0.939860620963     0.343681493566    30.973761998420
         O           -0.985644352439    -0.201379620963     0.937292493566    15.994914619570
         O            1.338758647561    -1.675300620963     1.229854493566    15.994914619570
         O            0.075213647561     2.359786379037     0.461171493566    15.994914619570
         O            3.065023647561    -2.186889620963    -0.809586506434    15.994914619570
         O            2.843843647561     2.503295379037     0.370538493566    15.994914619570
         O            4.192196647561     0.435579379037    -0.973870506434    15.994914619570
         O           -2.830354352439     0.033533379037    -0.808527506434    15.994914619570
         O           -3.262612352439    -0.723099620963     1.620674493566    15.994914619570
         O           -2.122484352439    -2.343461620963    -0.100664506434    15.994914619570
         C            0.114670647561     0.030191379037     0.015322493566    12.000000000000
         C            0.991349747561    -1.217098220963    -0.057051106434    12.000000000000
         C            0.937359547561     1.171524379037     0.568105093566    12.000000000000
         C            2.256168647561    -1.014124620963    -0.819033506434    12.000000000000
         C            2.173583647561     1.396654379037    -0.229037506434    12.000000000000
         C            3.022350647561     0.148887379037    -0.211318506434    12.000000000000
         C           -3.127704352439     1.431780379037    -0.489882506434    12.000000000000
         C           -3.539808352439     2.085347379037    -1.785115506434    12.000000000000
         H           -0.286583352439     0.298983379037    -0.971234506434     1.007825032230
         H            0.366777647561    -2.029181620963    -0.573028506434     1.007825032230
         H            1.153628647561     0.998059379037     1.611159493566     1.007825032230
         H            2.057442647561    -0.788477620963    -1.873752506434     1.007825032230
         H            1.913495647561     1.636469379037    -1.274579506434     1.007825032230
         H            3.292363647561    -0.094349620963     0.826649493566     1.007825032230
         H            0.518283647561    -1.887849620963     1.710513493566     1.007825032230
         H            0.662048647561     3.109493379037     0.682187493566     1.007825032230
         H            2.970051647561    -2.547191620963     0.093657493566     1.007825032230
         H            3.717937647561     2.549368379037    -0.059865506434     1.007825032230
         H            4.636235647561    -0.423651620963    -1.098083506434     1.007825032230
         H           -3.811886352439    -1.522155620963     1.733731493566     1.007825032230
         H           -3.934037352439     1.445723379037     0.248389493566     1.007825032230
         H           -2.233253352439     1.893062379037    -0.060092506434     1.007825032230
         H           -3.804012352439     3.131064379037    -1.603667506434     1.007825032230
         H           -2.720687352439     2.053505379037    -2.505871506434     1.007825032230
         H           -4.404435352439     1.574505379037    -2.213720506434     1.007825032230

  Basis Set: AUG-CC-PVTZ
    Blend: AUG-CC-PVTZ
  Basis Set: (AUG-CC-PVTZ AUX)
    Blend: AUG-CC-PVTZ-JKFIT
	 Reference Energy          =   -1327.8539849309227066 [Eh]
	 Singles Energy            =      -0.0000000000000000 [Eh]
	 Same-Spin Energy          =      -1.0153491539686073 [Eh]
	 Opposite-Spin Energy      =      -3.0773870188923560 [Eh]
	 Correlation Energy        =      -4.0927361728609633 [Eh]
	 Total Energy              =   -1331.9467211037836023 [Eh]

	 ================> DF-SCS-MP2 Energies <==================
	-----------------------------------------------------------
	 SCS Same-Spin Scale       =       0.3333333333333333 [-]
	 SCS Opposite-Spin Scale   =       1.2000000000000000 [-]
	 SCS Same-Spin Energy      =      -0.3384497179895357 [Eh]
	 SCS Opposite-Spin Energy  =      -3.6928644226708269 [Eh]
	 SCS Correlation Energy    =      -4.0313141406603625 [Eh]
	 SCS Total Energy          =   -1331.8852990715831766 [Eh]
	-----------------------------------------------------------

  Dipole Moment: [D]
     X:    -0.9892      Y:     1.7413      Z:     0.7686     Total:     2.1451

*** Psi4 exiting successfully. Buy a developer a beer!
