                               Psi4 1.4a3.dev225

  ==> Input File <==

--------------------------------------------------------------------------
#psi4
#
memory 32 gb

molecule  {
0 1
  P       -2.3219140    -1.0563120    -0.0968450
  O       -1.0285840    -0.5623410     0.7549430
  O        1.3695440    -1.8069540     1.2202350
  O       -0.1592450     2.1412630     0.5207450
  O        3.3269040    -2.0858120    -0.6453880
  O        2.5724350     2.5270130     0.6374560
  O        4.2203020     0.6406430    -0.6358120
  O       -2.8737010     0.2643620    -0.8096810
  O       -3.3065970    -1.3497020     1.1531960
  O       -2.1044560    -2.1814480    -1.0350500
  C        0.1200290    -0.1583450    -0.0432010
  C        1.0698050    -1.3527180    -0.1046720
  C        0.7441670     1.0454510     0.6308160
  C        2.4016037    -0.9914165    -0.6989345
  C        2.0603010     1.3853380    -0.0470020
  C        3.0180900     0.2181970     0.0056710
  C       -3.2473180     1.4231610     0.0025120
  C       -3.2076300     2.6262440    -0.9075720
  H       -0.2047330     0.1313700    -1.0514980
  H        0.5965010    -2.1549610    -0.6866410
  H        0.9371260     0.8063110     1.6860210
  H        2.3054700    -0.7437210    -1.7704410
  H        1.8633300     1.6367370    -1.1028410
  H        3.2142070    -0.0417910     1.0561650
  H        0.5126160    -2.0057500     1.6426110
  H        0.3598300     2.9232990     0.7925780
  H        3.1793900    -2.4823080     0.2360710
  H        3.4672560     2.6739710     0.2770410
  H        4.7639490    -0.1654590    -0.7244900
  H       -3.7873380    -2.1826420     0.9908450
  H       -4.2474700     1.2335250     0.4005830
  H       -2.5352900     1.5309660     0.8217280
  H       -3.5402110     3.5125760    -0.3587690
  H       -2.1856630     2.7912820    -1.2511950
  H       -3.8637180     2.4807570    -1.7684970
units angstrom
no_reorient  #important for SAPT in psi4, default
symmetry c1  #important for SAPT in psi4, default
}

set PROPERTIES_ORIGIN ["COM"]
properties('MP2/aug-cc-pvtz', properties = ['dipole'])
--------------------------------------------------------------------------

    Molecular point group: c1
  Charge       = 0
  Multiplicity = 1
  Basis Set: AUG-CC-PVTZ
    Blend: AUG-CC-PVTZ
  Basis Set: (AUG-CC-PVTZ AUX)
    Blend: AUG-CC-PVTZ-JKFIT

    Orbital Energies [Eh]
    ---------------------

    Doubly Occupied:

       1A    -80.117064     2A    -20.615198     3A    -20.608473
       4A    -20.596212     5A    -20.584462     6A    -20.578266
       7A    -20.575791     8A    -20.574855     9A    -20.574783
      10A    -20.522764    11A    -11.321990    12A    -11.305147
      13A    -11.300782    14A    -11.300495    15A    -11.298161
      16A    -11.296293    17A    -11.293404    18A    -11.223007
      19A     -7.632328    20A     -5.530862    21A     -5.530360
      22A     -5.529298    23A     -1.458775    24A     -1.411016
      25A     -1.395524    26A     -1.392321    27A     -1.385307
      28A     -1.372960    29A     -1.363514    30A     -1.353633
      31A     -1.302947    32A     -1.120103    33A     -1.035639
      34A     -1.011092    35A     -1.005934    36A     -0.878396
      37A     -0.862678    38A     -0.858671    39A     -0.822768
      40A     -0.809978    41A     -0.755157    42A     -0.745903
      43A     -0.729484    44A     -0.726452    45A     -0.705810
      46A     -0.686711    47A     -0.679479    48A     -0.674174
      49A     -0.661654    50A     -0.658891    51A     -0.642497
      52A     -0.637655    53A     -0.623315    54A     -0.613070
      55A     -0.604214    56A     -0.596011    57A     -0.580974
      58A     -0.578115    59A     -0.570218    60A     -0.559706
      61A     -0.555196    62A     -0.548155    63A     -0.538559
      64A     -0.537581    65A     -0.530676    66A     -0.517796
      67A     -0.508641    68A     -0.504804    69A     -0.495126
      70A     -0.488625    71A     -0.479077    72A     -0.475717
      73A     -0.463131    74A     -0.457125    75A     -0.451380
      76A     -0.436150

  @DF-RHF Final Energy: -1327.86004041155047

   => Energetics <=

    Nuclear Repulsion Energy =           1774.8560653003894458
    One-Electron Energy =               -5361.8952416790898496
    Two-Electron Energy =                2259.1791359671497048
    Total Energy =                      -1327.8600404115504716
  Basis Set: (AUG-CC-PVTZ AUX)
    Blend: AUG-CC-PVTZ-RI
    Molecular point group: c1

    Geometry (in Angstrom), charge = 0, multiplicity = 1:

       Center              X                  Y                   Z               Mass
    ------------   -----------------  -----------------  -----------------  -----------------
         P           -2.310414094385    -1.018332587762    -0.099619011995    30.973761998420
         O           -1.017084094385    -0.524361587762     0.752168988005    15.994914619570
         O            1.381043905615    -1.768974587762     1.217460988005    15.994914619570
         O           -0.147745094385     2.179242412238     0.517970988005    15.994914619570
         O            3.338403905615    -2.047832587762    -0.648162011995    15.994914619570
         O            2.583934905615     2.564992412238     0.634681988005    15.994914619570
         O            4.231801905615     0.678622412238    -0.638586011995    15.994914619570
         O           -2.862201094385     0.302341412238    -0.812455011995    15.994914619570
         O           -3.295097094385    -1.311722587762     1.150421988005    15.994914619570
         O           -2.092956094385    -2.143468587762    -1.037824011995    15.994914619570
         C            0.131528905615    -0.120365587762    -0.045975011995    12.000000000000
         C            1.081304905615    -1.314738587762    -0.107446011995    12.000000000000
         C            0.755666905615     1.083430412238     0.628041988005    12.000000000000
         C            2.413103605615    -0.953437087762    -0.701708511995    12.000000000000
         C            2.071800905615     1.423317412238    -0.049776011995    12.000000000000
         C            3.029589905615     0.256176412238     0.002896988005    12.000000000000
         C           -3.235818094385     1.461140412238    -0.000262011995    12.000000000000
         C           -3.196130094385     2.664223412238    -0.910346011995    12.000000000000
         H           -0.193233094385     0.169349412238    -1.054272011995     1.007825032230
         H            0.608000905615    -2.116981587762    -0.689415011995     1.007825032230
         H            0.948625905615     0.844290412238     1.683246988005     1.007825032230
         H            2.316969905615    -0.705741587762    -1.773215011995     1.007825032230
         H            1.874829905615     1.674716412238    -1.105615011995     1.007825032230
         H            3.225706905615    -0.003811587762     1.053390988005     1.007825032230
         H            0.524115905615    -1.967770587762     1.639836988005     1.007825032230
         H            0.371329905615     2.961278412238     0.789803988005     1.007825032230
         H            3.190889905615    -2.444328587762     0.233296988005     1.007825032230
         H            3.478755905615     2.711950412238     0.274266988005     1.007825032230
         H            4.775448905615    -0.127479587762    -0.727264011995     1.007825032230
         H           -3.775838094385    -2.144662587762     0.988070988005     1.007825032230
         H           -4.235970094385     1.271504412238     0.397808988005     1.007825032230
         H           -2.523790094385     1.568945412238     0.818953988005     1.007825032230
         H           -3.528711094385     3.550555412238    -0.361543011995     1.007825032230
         H           -2.174163094385     2.829261412238    -1.253969011995     1.007825032230
         H           -3.852218094385     2.518736412238    -1.771271011995     1.007825032230

  Basis Set: AUG-CC-PVTZ
    Blend: AUG-CC-PVTZ
  Basis Set: (AUG-CC-PVTZ AUX)
    Blend: AUG-CC-PVTZ-JKFIT
	 Reference Energy          =   -1327.8600404115504716 [Eh]
	 Singles Energy            =      -0.0000000000000000 [Eh]
	 Same-Spin Energy          =      -1.0148845846644379 [Eh]
	 Opposite-Spin Energy      =      -3.0769236761217744 [Eh]
	 Correlation Energy        =      -4.0918082607862125 [Eh]
	 Total Energy              =   -1331.9518486723366095 [Eh]

	 ================> DF-SCS-MP2 Energies <==================
	-----------------------------------------------------------
	 SCS Same-Spin Scale       =       0.3333333333333333 [-]
	 SCS Opposite-Spin Scale   =       1.2000000000000000 [-]
	 SCS Same-Spin Energy      =      -0.3382948615548126 [Eh]
	 SCS Opposite-Spin Energy  =      -3.6923084113461293 [Eh]
	 SCS Correlation Energy    =      -4.0306032729009420 [Eh]
	 SCS Total Energy          =   -1331.8906436844513337 [Eh]
	-----------------------------------------------------------

  Dipole Moment: [D]
     X:    -0.8925      Y:     1.4234      Z:     1.8830     Total:     2.5236

*** Psi4 exiting successfully. Buy a developer a beer!
