                               Psi4 1.3.2 release

  ==> Input File <==

--------------------------------------------------------------------------
#psi4
#
memory 32 gb

molecule  {
0 1
  P       -2.2900960    -0.9400430     0.3446780
  O       -0.9821530    -0.2015620     0.9382890
  O        1.3422500    -1.6754830     1.2308510
  O        0.0787050     2.3596040     0.4621680
  O        3.0685150    -2.1870720    -0.8085900
  O        2.8473350     2.5031130     0.3715350
  O        4.1956880     0.4353970    -0.9728740
  O       -2.8268630     0.0333510    -0.8075310
  O       -3.2591210    -0.7232820     1.6216710
  O       -2.1189930    -2.3436440    -0.0996680
  C        0.1181620     0.0300090     0.0163190
  C        0.9637767    -1.2376182    -0.0708170
  C        0.9092456     1.1949510     0.5659765
  C        2.2596600    -1.0143070    -0.8180370
  C        2.1770750     1.3964720    -0.2280410
  C        3.0258420     0.1487050    -0.2103220
  C       -3.1242130     1.4315980    -0.4888860
  C       -3.5363170     2.0851650    -1.7841190
  H       -0.2830920     0.2988010    -0.9702380
  H        0.3702690    -2.0293640    -0.5720320
  H        1.1571200     0.9978770     1.6121560
  H        2.0609340    -0.7886600    -1.8727560
  H        1.9169870     1.6362870    -1.2735830
  H        3.2958550    -0.0945320     0.8276460
  H        0.5217750    -1.8880320     1.7115100
  H        0.6655400     3.1093110     0.6831840
  H        2.9735430    -2.5473740     0.0946540
  H        3.7214290     2.5491860    -0.0588690
  H        4.6397270    -0.4238340    -1.0970870
  H       -3.8083950    -1.5223380     1.7347280
  H       -3.9305460     1.4455410     0.2493860
  H       -2.2297620     1.8928800    -0.0590960
  H       -3.8005210     3.1308820    -1.6026710
  H       -2.7171960     2.0533230    -2.5048750
  H       -4.4009440     1.5743230    -2.2127240
units angstrom
no_reorient  #important for SAPT in psi4, default
symmetry c1  #important for SAPT in psi4, default
}

set PROPERTIES_ORIGIN ["COM"]
properties('MP2/aug-cc-pvtz', properties = ['dipole'])
--------------------------------------------------------------------------

    Molecular point group: c1
  Charge       = 0
  Multiplicity = 1
  Basis Set: AUG-CC-PVTZ
    Blend: AUG-CC-PVTZ
  Basis Set: (AUG-CC-PVTZ AUX)
    Blend: AUG-CC-PVTZ-JKFIT

    Orbital Energies [Eh]
    ---------------------

    Doubly Occupied:

       1A    -80.117038     2A    -20.614790     3A    -20.607512
       4A    -20.598917     5A    -20.583656     6A    -20.577090
       7A    -20.574988     8A    -20.574215     9A    -20.572067
      10A    -20.523384    11A    -11.321090    12A    -11.303807
      13A    -11.299356    14A    -11.299211    15A    -11.298350
      16A    -11.296964    17A    -11.291595    18A    -11.229733
      19A     -7.632480    20A     -5.530986    21A     -5.530616
      22A     -5.529410    23A     -1.460373    24A     -1.411422
      25A     -1.394961    26A     -1.392473    27A     -1.386797
      28A     -1.372519    29A     -1.362768    30A     -1.353354
      31A     -1.303765    32A     -1.120932    33A     -1.040340
      34A     -1.012264    35A     -1.004924    36A     -0.880499
      37A     -0.864923    38A     -0.858566    39A     -0.822494
      40A     -0.811903    41A     -0.751702    42A     -0.745451
      43A     -0.730857    44A     -0.728579    45A     -0.708247
      46A     -0.685997    47A     -0.679300    48A     -0.673653
      49A     -0.662292    50A     -0.661239    51A     -0.642666
      52A     -0.634653    53A     -0.627534    54A     -0.615536
      55A     -0.603447    56A     -0.598165    57A     -0.580854
      58A     -0.575545    59A     -0.571274    60A     -0.558850
      61A     -0.556273    62A     -0.548354    63A     -0.541100
      64A     -0.536333    65A     -0.530257    66A     -0.522472
      67A     -0.513349    68A     -0.504827    69A     -0.497081
      70A     -0.485913    71A     -0.479688    72A     -0.476608
      73A     -0.463858    74A     -0.456090    75A     -0.450217
      76A     -0.435258

  @DF-RHF Final Energy: -1327.86076863387029

   => Energetics <=

    Nuclear Repulsion Energy =           1772.6004853843310229
    One-Electron Energy =               -5357.3304119213244121
    Two-Electron Energy =                2256.8691579031228684
    Total Energy =                      -1327.8607686338705207
  Basis Set: (AUG-CC-PVTZ AUX)
    Blend: AUG-CC-PVTZ-RI
    Molecular point group: c1

    Geometry (in Angstrom), charge = 0, multiplicity = 1:

       Center              X                  Y                   Z               Mass
    ------------   -----------------  -----------------  -----------------  -----------------
         P           -2.290976668070    -0.939996900423     0.344426648189    30.973761998420
         O           -0.983033668070    -0.201515900423     0.938037648189    15.994914619570
         O            1.341369331930    -1.675436900423     1.230599648189    15.994914619570
         O            0.077824331930     2.359650099577     0.461916648189    15.994914619570
         O            3.067634331930    -2.187025900423    -0.808841351811    15.994914619570
         O            2.846454331930     2.503159099577     0.371283648189    15.994914619570
         O            4.194807331930     0.435443099577    -0.973125351811    15.994914619570
         O           -2.827743668070     0.033397099577    -0.807782351811    15.994914619570
         O           -3.260001668070    -0.723235900423     1.621419648189    15.994914619570
         O           -2.119873668070    -2.343597900423    -0.099919351811    15.994914619570
         C            0.117281331930     0.030055099577     0.016067648189    12.000000000000
         C            0.962896031930    -1.237572100423    -0.071068351811    12.000000000000
         C            0.908364931930     1.194997099577     0.565725148189    12.000000000000
         C            2.258779331930    -1.014260900423    -0.818288351811    12.000000000000
         C            2.176194331930     1.396518099577    -0.228292351811    12.000000000000
         C            3.024961331930     0.148751099577    -0.210573351811    12.000000000000
         C           -3.125093668070     1.431644099577    -0.489137351811    12.000000000000
         C           -3.537197668070     2.085211099577    -1.784370351811    12.000000000000
         H           -0.283972668070     0.298847099577    -0.970489351811     1.007825032230
         H            0.369388331930    -2.029317900423    -0.572283351811     1.007825032230
         H            1.156239331930     0.997923099577     1.611904648189     1.007825032230
         H            2.060053331930    -0.788613900423    -1.873007351811     1.007825032230
         H            1.916106331930     1.636333099577    -1.273834351811     1.007825032230
         H            3.294974331930    -0.094485900423     0.827394648189     1.007825032230
         H            0.520894331930    -1.887985900423     1.711258648189     1.007825032230
         H            0.664659331930     3.109357099577     0.682932648189     1.007825032230
         H            2.972662331930    -2.547327900423     0.094402648189     1.007825032230
         H            3.720548331930     2.549232099577    -0.059120351811     1.007825032230
         H            4.638846331930    -0.423787900423    -1.097338351811     1.007825032230
         H           -3.809275668070    -1.522291900423     1.734476648189     1.007825032230
         H           -3.931426668070     1.445587099577     0.249134648189     1.007825032230
         H           -2.230642668070     1.892926099577    -0.059347351811     1.007825032230
         H           -3.801401668070     3.130928099577    -1.602922351811     1.007825032230
         H           -2.718076668070     2.053369099577    -2.505126351811     1.007825032230
         H           -4.401824668070     1.574369099577    -2.212975351811     1.007825032230

  Basis Set: AUG-CC-PVTZ
    Blend: AUG-CC-PVTZ
  Basis Set: (AUG-CC-PVTZ AUX)
    Blend: AUG-CC-PVTZ-JKFIT
	 Reference Energy          =   -1327.8607686338702933 [Eh]
	 Singles Energy            =      -0.0000000000000000 [Eh]
	 Same-Spin Energy          =      -1.0147429225546012 [Eh]
	 Opposite-Spin Energy      =      -3.0763249201950362 [Eh]
	 Correlation Energy        =      -4.0910678427496379 [Eh]
	 Total Energy              =   -1331.9518364766199738 [Eh]

	 ================> DF-SCS-MP2 Energies <==================
	-----------------------------------------------------------
	 SCS Same-Spin Scale       =       0.3333333333333333 [-]
	 SCS Opposite-Spin Scale   =       1.2000000000000000 [-]
	 SCS Same-Spin Energy      =      -0.3382476408515337 [Eh]
	 SCS Opposite-Spin Energy  =      -3.6915899042340432 [Eh]
	 SCS Correlation Energy    =      -4.0298375450855772 [Eh]
	 SCS Total Energy          =   -1331.8906061789559772 [Eh]
	-----------------------------------------------------------

  Dipole Moment: [D]
     X:    -1.0823      Y:     1.8310      Z:     0.7332     Total:     2.2498

*** Psi4 exiting successfully. Buy a developer a beer!
