                               Psi4 1.3.2 release

  ==> Input File <==

--------------------------------------------------------------------------
#psi4
#
memory 32 gb

molecule  {
0 1
  P       -2.2900960    -0.9400430     0.3446780
  O       -0.9821530    -0.2015620     0.9382890
  O        1.3422500    -1.6754830     1.2308510
  O        0.0787050     2.3596040     0.4621680
  O        3.0685150    -2.1870720    -0.8085900
  O        2.8473350     2.5031130     0.3715350
  O        4.1956880     0.4353970    -0.9728740
  O       -2.8268630     0.0333510    -0.8075310
  O       -3.2591210    -0.7232820     1.6216710
  O       -2.1189930    -2.3436440    -0.0996680
  C        0.1181620     0.0300090     0.0163190
  C        0.9532920    -1.2442050    -0.0757250
  C        0.8985890     1.2026440     0.5648510
  C        2.2596600    -1.0143070    -0.8180370
  C        2.1770750     1.3964720    -0.2280410
  C        3.0258420     0.1487050    -0.2103220
  C       -3.1242130     1.4315980    -0.4888860
  C       -3.5363170     2.0851650    -1.7841190
  H       -0.2830920     0.2988010    -0.9702380
  H        0.3702690    -2.0293640    -0.5720320
  H        1.2042110     0.9605790     1.8029210
  H        2.0609340    -0.7886600    -1.8727560
  H        1.9169870     1.6362870    -1.2735830
  H        3.2958550    -0.0945320     0.8276460
  H        0.5217750    -1.8880320     1.7115100
  H        0.6655400     3.1093110     0.6831840
  H        2.9735430    -2.5473740     0.0946540
  H        3.7214290     2.5491860    -0.0588690
  H        4.6397270    -0.4238340    -1.0970870
  H       -3.8083950    -1.5223380     1.7347280
  H       -3.9305460     1.4455410     0.2493860
  H       -2.2297620     1.8928800    -0.0590960
  H       -3.8005210     3.1308820    -1.6026710
  H       -2.7171960     2.0533230    -2.5048750
  H       -4.4009440     1.5743230    -2.2127240
units angstrom
no_reorient  #important for SAPT in psi4, default
symmetry c1  #important for SAPT in psi4, default
}

set PROPERTIES_ORIGIN ["COM"]
properties('MP2/aug-cc-pvtz', properties = ['dipole'])
--------------------------------------------------------------------------

    Molecular point group: c1
  Charge       = 0
  Multiplicity = 1
  Basis Set: AUG-CC-PVTZ
    Blend: AUG-CC-PVTZ
  Basis Set: (AUG-CC-PVTZ AUX)
    Blend: AUG-CC-PVTZ-JKFIT

    Orbital Energies [Eh]
    ---------------------

    Doubly Occupied:

       1A    -80.116967     2A    -20.614764     3A    -20.607089
       4A    -20.599221     5A    -20.582007     6A    -20.577532
       7A    -20.576840     8A    -20.574561     9A    -20.574072
      10A    -20.523483    11A    -11.322849    12A    -11.319446
      13A    -11.303637    14A    -11.299830    15A    -11.299395
      16A    -11.298887    17A    -11.291317    18A    -11.230270
      19A     -7.632430    20A     -5.530932    21A     -5.530564
      22A     -5.529361    23A     -1.460367    24A     -1.410685
      25A     -1.394750    26A     -1.393389    27A     -1.387080
      28A     -1.373098    29A     -1.364542    30A     -1.354064
      31A     -1.303895    32A     -1.118163    33A     -1.040865
      34A     -1.012338    35A     -1.000423    36A     -0.880412
      37A     -0.865323    38A     -0.854409    39A     -0.822743
      40A     -0.803553    41A     -0.750690    42A     -0.744002
      43A     -0.728979    44A     -0.728278    45A     -0.707076
      46A     -0.684102    47A     -0.677911    48A     -0.673920
      49A     -0.662219    50A     -0.660734    51A     -0.642264
      52A     -0.631117    53A     -0.627416    54A     -0.615540
      55A     -0.599283    56A     -0.596736    57A     -0.582199
      58A     -0.575371    59A     -0.570701    60A     -0.558479
      61A     -0.556768    62A     -0.548672    63A     -0.541332
      64A     -0.536422    65A     -0.530030    66A     -0.520811
      67A     -0.512583    68A     -0.503485    69A     -0.496307
      70A     -0.483027    71A     -0.480056    72A     -0.476744
      73A     -0.460256    74A     -0.455671    75A     -0.440328
      76A     -0.436088

  @DF-RHF Final Energy: -1327.84059141304124

   => Energetics <=

    Nuclear Repulsion Energy =           1771.2535107764197164
    One-Electron Energy =               -5354.6459031318008783
    Two-Electron Energy =                2255.5518009423399235
    Total Energy =                      -1327.8405914130412384
  Basis Set: (AUG-CC-PVTZ AUX)
    Blend: AUG-CC-PVTZ-RI
    Molecular point group: c1

    Geometry (in Angstrom), charge = 0, multiplicity = 1:

       Center              X                  Y                   Z               Mass
    ------------   -----------------  -----------------  -----------------  -----------------
         P           -2.290260722150    -0.939912489633     0.344010570572    30.973761998420
         O           -0.982317722150    -0.201431489633     0.937621570572    15.994914619570
         O            1.342085277850    -1.675352489633     1.230183570572    15.994914619570
         O            0.078540277850     2.359734510367     0.461500570572    15.994914619570
         O            3.068350277850    -2.186941489633    -0.809257429428    15.994914619570
         O            2.847170277850     2.503243510367     0.370867570572    15.994914619570
         O            4.195523277850     0.435527510367    -0.973541429428    15.994914619570
         O           -2.827027722150     0.033481510367    -0.808198429428    15.994914619570
         O           -3.259285722150    -0.723151489633     1.621003570572    15.994914619570
         O           -2.119157722150    -2.343513489633    -0.100335429428    15.994914619570
         C            0.117997277850     0.030139510367     0.015651570572    12.000000000000
         C            0.953127277850    -1.244074489633    -0.076392429428    12.000000000000
         C            0.898424277850     1.202774510367     0.564183570572    12.000000000000
         C            2.259495277850    -1.014176489633    -0.818704429428    12.000000000000
         C            2.176910277850     1.396602510367    -0.228708429428    12.000000000000
         C            3.025677277850     0.148835510367    -0.210989429428    12.000000000000
         C           -3.124377722150     1.431728510367    -0.489553429428    12.000000000000
         C           -3.536481722150     2.085295510367    -1.784786429428    12.000000000000
         H           -0.283256722150     0.298931510367    -0.970905429428     1.007825032230
         H            0.370104277850    -2.029233489633    -0.572699429428     1.007825032230
         H            1.204046277850     0.960709510367     1.802253570572     1.007825032230
         H            2.060769277850    -0.788529489633    -1.873423429428     1.007825032230
         H            1.916822277850     1.636417510367    -1.274250429428     1.007825032230
         H            3.295690277850    -0.094401489633     0.826978570572     1.007825032230
         H            0.521610277850    -1.887901489633     1.710842570572     1.007825032230
         H            0.665375277850     3.109441510367     0.682516570572     1.007825032230
         H            2.973378277850    -2.547243489633     0.093986570572     1.007825032230
         H            3.721264277850     2.549316510367    -0.059536429428     1.007825032230
         H            4.639562277850    -0.423703489633    -1.097754429428     1.007825032230
         H           -3.808559722150    -1.522207489633     1.734060570572     1.007825032230
         H           -3.930710722150     1.445671510367     0.248718570572     1.007825032230
         H           -2.229926722150     1.893010510367    -0.059763429428     1.007825032230
         H           -3.800685722150     3.131012510367    -1.603338429428     1.007825032230
         H           -2.717360722150     2.053453510367    -2.505542429428     1.007825032230
         H           -4.401108722150     1.574453510367    -2.213391429428     1.007825032230

  Basis Set: AUG-CC-PVTZ
    Blend: AUG-CC-PVTZ
  Basis Set: (AUG-CC-PVTZ AUX)
    Blend: AUG-CC-PVTZ-JKFIT
	 Reference Energy          =   -1327.8405914130412384 [Eh]
	 Singles Energy            =      -0.0000000000000000 [Eh]
	 Same-Spin Energy          =      -1.0153189917610175 [Eh]
	 Opposite-Spin Energy      =      -3.0784777783553645 [Eh]
	 Correlation Energy        =      -4.0937967701163824 [Eh]
	 Total Energy              =   -1331.9343881831575800 [Eh]

	 ================> DF-SCS-MP2 Energies <==================
	-----------------------------------------------------------
	 SCS Same-Spin Scale       =       0.3333333333333333 [-]
	 SCS Opposite-Spin Scale   =       1.2000000000000000 [-]
	 SCS Same-Spin Energy      =      -0.3384396639203391 [Eh]
	 SCS Opposite-Spin Energy  =      -3.6941733340264373 [Eh]
	 SCS Correlation Energy    =      -4.0326129979467762 [Eh]
	 SCS Total Energy          =   -1331.8732044109879098 [Eh]
	-----------------------------------------------------------

  Dipole Moment: [D]
     X:    -1.1616      Y:     1.9176      Z:     0.6426     Total:     2.3323

*** Psi4 exiting successfully. Buy a developer a beer!
