                               Psi4 1.3.2 release

  ==> Input File <==

--------------------------------------------------------------------------
#psi4
#
memory 32 gb

molecule  {
0 1
  P       -2.2900960    -0.9400430     0.3446780
  O       -0.9821530    -0.2015620     0.9382890
  O        1.3422500    -1.6754830     1.2308510
  O        0.0787050     2.3596040     0.4621680
  O        3.0685150    -2.1870720    -0.8085900
  O        2.8473350     2.5031130     0.3715350
  O        4.1956880     0.4353970    -0.9728740
  O       -2.8268630     0.0333510    -0.8075310
  O       -3.2591210    -0.7232820     1.6216710
  O       -2.1189930    -2.3436440    -0.0996680
  C        0.1181620     0.0300090     0.0163190
  C        0.9532920    -1.2442050    -0.0757250
  C        0.8985890     1.2026440     0.5648510
  C        2.2596600    -1.0143070    -0.8180370
  C        2.1770750     1.3964720    -0.2280410
  C        3.0258420     0.1487050    -0.2103220
  C       -3.1242130     1.4315980    -0.4888860
  C       -3.5363170     2.0851650    -1.7841190
  H       -0.2830920     0.2988010    -0.9702380
  H        0.3702690    -2.0293640    -0.5720320
  H        1.1571200     0.9978770     1.6121560
  H        2.0609340    -0.7886600    -1.8727560
  H        1.9169870     1.6362870    -1.2735830
  H        3.2958550    -0.0945320     0.8276460
  H        0.5217750    -1.8880320     1.7115100
  H        0.6655400     3.1093110     0.6831840
  H        2.9735430    -2.5473740     0.0946540
  H        3.9006563     2.5586330    -0.1471205
  H        4.6397270    -0.4238340    -1.0970870
  H       -3.8083950    -1.5223380     1.7347280
  H       -3.9305460     1.4455410     0.2493860
  H       -2.2297620     1.8928800    -0.0590960
  H       -3.8005210     3.1308820    -1.6026710
  H       -2.7171960     2.0533230    -2.5048750
  H       -4.4009440     1.5743230    -2.2127240
units angstrom
no_reorient  #important for SAPT in psi4, default
symmetry c1  #important for SAPT in psi4, default
}

set PROPERTIES_ORIGIN ["COM"]
properties('MP2/aug-cc-pvtz', properties = ['dipole'])
--------------------------------------------------------------------------

    Molecular point group: c1
  Charge       = 0
  Multiplicity = 1
  Basis Set: AUG-CC-PVTZ
    Blend: AUG-CC-PVTZ
  Basis Set: (AUG-CC-PVTZ AUX)
    Blend: AUG-CC-PVTZ-JKFIT

    Orbital Energies [Eh]
    ---------------------

    Doubly Occupied:

       1A    -80.116481     2A    -20.614325     3A    -20.606435
       4A    -20.598483     5A    -20.586882     6A    -20.582569
       7A    -20.575099     8A    -20.574095     9A    -20.572283
      10A    -20.523011    11A    -11.320064    12A    -11.302959
      13A    -11.298927    14A    -11.298644    15A    -11.297505
      16A    -11.294112    17A    -11.290396    18A    -11.229474
      19A     -7.631931    20A     -5.530437    21A     -5.530064
      22A     -5.528863    23A     -1.459777    24A     -1.409190
      25A     -1.393228    26A     -1.386446    27A     -1.385590
      28A     -1.372013    29A     -1.359752    30A     -1.333963
      31A     -1.303405    32A     -1.116045    33A     -1.040002
      34A     -1.010049    35A     -0.998629    36A     -0.877405
      37A     -0.863358    38A     -0.856794    39A     -0.818683
      40A     -0.809393    41A     -0.748788    42A     -0.741187
      43A     -0.730686    44A     -0.727014    45A     -0.697137
      46A     -0.686010    47A     -0.677567    48A     -0.672030
      49A     -0.661250    50A     -0.656019    51A     -0.633621
      52A     -0.630070    53A     -0.622935    54A     -0.614069
      55A     -0.601319    56A     -0.595770    57A     -0.580792
      58A     -0.575070    59A     -0.570142    60A     -0.557504
      61A     -0.550912    62A     -0.545269    63A     -0.540210
      64A     -0.535836    65A     -0.528908    66A     -0.519912
      67A     -0.510826    68A     -0.503218    69A     -0.495202
      70A     -0.483749    71A     -0.479208    72A     -0.476167
      73A     -0.459281    74A     -0.452408    75A     -0.448366
      76A     -0.435485

  @DF-RHF Final Energy: -1327.82604346629137

   => Energetics <=

    Nuclear Repulsion Energy =           1771.2658798420377479
    One-Electron Energy =               -5354.9024495063704308
    Two-Electron Energy =                2255.8105261980413161
    Total Energy =                      -1327.8260434662911393
  Basis Set: (AUG-CC-PVTZ AUX)
    Blend: AUG-CC-PVTZ-RI
    Molecular point group: c1

    Geometry (in Angstrom), charge = 0, multiplicity = 1:

       Center              X                  Y                   Z               Mass
    ------------   -----------------  -----------------  -----------------  -----------------
         P           -2.290723020975    -0.940076034084     0.344986751987    30.973761998420
         O           -0.982780020975    -0.201595034084     0.938597751987    15.994914619570
         O            1.341622979025    -1.675516034084     1.231159751987    15.994914619570
         O            0.078077979025     2.359570965916     0.462476751987    15.994914619570
         O            3.067887979025    -2.187105034084    -0.808281248013    15.994914619570
         O            2.846707979025     2.503079965916     0.371843751987    15.994914619570
         O            4.195060979025     0.435363965916    -0.972565248013    15.994914619570
         O           -2.827490020975     0.033317965916    -0.807222248013    15.994914619570
         O           -3.259748020975    -0.723315034084     1.621979751987    15.994914619570
         O           -2.119620020975    -2.343677034084    -0.099359248013    15.994914619570
         C            0.117534979025     0.029975965916     0.016627751987    12.000000000000
         C            0.952664979025    -1.244238034084    -0.075416248013    12.000000000000
         C            0.897961979025     1.202610965916     0.565159751987    12.000000000000
         C            2.259032979025    -1.014340034084    -0.817728248013    12.000000000000
         C            2.176447979025     1.396438965916    -0.227732248013    12.000000000000
         C            3.025214979025     0.148671965916    -0.210013248013    12.000000000000
         C           -3.124840020975     1.431564965916    -0.488577248013    12.000000000000
         C           -3.536944020975     2.085131965916    -1.783810248013    12.000000000000
         H           -0.283719020975     0.298767965916    -0.969929248013     1.007825032230
         H            0.369641979025    -2.029397034084    -0.571723248013     1.007825032230
         H            1.156492979025     0.997843965916     1.612464751987     1.007825032230
         H            2.060306979025    -0.788693034084    -1.872447248013     1.007825032230
         H            1.916359979025     1.636253965916    -1.273274248013     1.007825032230
         H            3.295227979025    -0.094565034084     0.827954751987     1.007825032230
         H            0.521147979025    -1.888065034084     1.711818751987     1.007825032230
         H            0.664912979025     3.109277965916     0.683492751987     1.007825032230
         H            2.972915979025    -2.547407034084     0.094962751987     1.007825032230
         H            3.900029279025     2.558599965916    -0.146811748013     1.007825032230
         H            4.639099979025    -0.423867034084    -1.096778248013     1.007825032230
         H           -3.809022020975    -1.522371034084     1.735036751987     1.007825032230
         H           -3.931173020975     1.445507965916     0.249694751987     1.007825032230
         H           -2.230389020975     1.892846965916    -0.058787248013     1.007825032230
         H           -3.801148020975     3.130848965916    -1.602362248013     1.007825032230
         H           -2.717823020975     2.053289965916    -2.504566248013     1.007825032230
         H           -4.401571020975     1.574289965916    -2.212415248013     1.007825032230

  Basis Set: AUG-CC-PVTZ
    Blend: AUG-CC-PVTZ
  Basis Set: (AUG-CC-PVTZ AUX)
    Blend: AUG-CC-PVTZ-JKFIT
	 Reference Energy          =   -1327.8260434662913667 [Eh]
	 Singles Energy            =      -0.0000000000000000 [Eh]
	 Same-Spin Energy          =      -1.0171200949202064 [Eh]
	 Opposite-Spin Energy      =      -3.0828549382773360 [Eh]
	 Correlation Energy        =      -4.0999750331975422 [Eh]
	 Total Energy              =   -1331.9260184994889187 [Eh]

	 ================> DF-SCS-MP2 Energies <==================
	-----------------------------------------------------------
	 SCS Same-Spin Scale       =       0.3333333333333333 [-]
	 SCS Opposite-Spin Scale   =       1.2000000000000000 [-]
	 SCS Same-Spin Energy      =      -0.3390400316400688 [Eh]
	 SCS Opposite-Spin Energy  =      -3.6994259259328031 [Eh]
	 SCS Correlation Energy    =      -4.0384659575728721 [Eh]
	 SCS Total Energy          =   -1331.8645094238643196 [Eh]
	-----------------------------------------------------------

  Dipole Moment: [D]
     X:    -0.9010      Y:     1.8860      Z:     0.6418     Total:     2.1865

*** Psi4 exiting successfully. Buy a developer a beer!
