                               Psi4 1.3.2 release

  ==> Input File <==

--------------------------------------------------------------------------
#psi4
#
memory 32 gb

molecule  {
0 1
  P       -2.2900960    -0.9400430     0.3446780
  O       -0.9821530    -0.2015620     0.9382890
  O        1.3422500    -1.6754830     1.2308510
  O        0.0787050     2.3596040     0.4621680
  O        3.0685150    -2.1870720    -0.8085900
  O        2.8473350     2.5031130     0.3715350
  O        4.1956880     0.4353970    -0.9728740
  O       -2.8268630     0.0333510    -0.8075310
  O       -3.2591210    -0.7232820     1.6216710
  O       -2.1189930    -2.3436440    -0.0996680
  C        0.1181620     0.0300090     0.0163190
  C        0.9532920    -1.2442050    -0.0757250
  C        0.8985890     1.2026440     0.5648510
  C        2.2596600    -1.0143070    -0.8180370
  C        2.1770750     1.3964720    -0.2280410
  C        3.0258420     0.1487050    -0.2103220
  C       -3.1242130     1.4315980    -0.4888860
  C       -3.5363170     2.0851650    -1.7841190
  H       -0.2830920     0.2988010    -0.9702380
  H        0.3702690    -2.0293640    -0.5720320
  H        1.1571200     0.9978770     1.6121560
  H        2.0609340    -0.7886600    -1.8727560
  H        1.9641141     1.5928333    -1.0841343
  H        3.2958550    -0.0945320     0.8276460
  H        0.5217750    -1.8880320     1.7115100
  H        0.6655400     3.1093110     0.6831840
  H        2.9735430    -2.5473740     0.0946540
  H        3.7214290     2.5491860    -0.0588690
  H        4.6397270    -0.4238340    -1.0970870
  H       -3.8083950    -1.5223380     1.7347280
  H       -3.9305460     1.4455410     0.2493860
  H       -2.2297620     1.8928800    -0.0590960
  H       -3.8005210     3.1308820    -1.6026710
  H       -2.7171960     2.0533230    -2.5048750
  H       -4.4009440     1.5743230    -2.2127240
units angstrom
no_reorient  #important for SAPT in psi4, default
symmetry c1  #important for SAPT in psi4, default
}

set PROPERTIES_ORIGIN ["COM"]
properties('MP2/aug-cc-pvtz', properties = ['dipole'])
--------------------------------------------------------------------------

    Molecular point group: c1
  Charge       = 0
  Multiplicity = 1
  Basis Set: AUG-CC-PVTZ
    Blend: AUG-CC-PVTZ
  Basis Set: (AUG-CC-PVTZ AUX)
    Blend: AUG-CC-PVTZ-JKFIT

    Orbital Energies [Eh]
    ---------------------

    Doubly Occupied:

       1A    -80.117055     2A    -20.614821     3A    -20.607194
       4A    -20.599121     5A    -20.583048     6A    -20.574692
       7A    -20.574132     8A    -20.573697     9A    -20.573651
      10A    -20.523550    11A    -11.321033    12A    -11.303703
      13A    -11.299679    14A    -11.299575    15A    -11.297246
      16A    -11.289931    17A    -11.272060    18A    -11.230081
      19A     -7.632509    20A     -5.531015    21A     -5.530642
      22A     -5.529440    23A     -1.460420    24A     -1.410974
      25A     -1.394696    26A     -1.393027    27A     -1.387008
      28A     -1.372766    29A     -1.363641    30A     -1.353317
      31A     -1.303948    32A     -1.122322    33A     -1.040736
      34A     -1.017423    35A     -1.006391    36A     -0.885557
      37A     -0.868542    38A     -0.862563    39A     -0.829177
      40A     -0.816553    41A     -0.757233    42A     -0.745381
      43A     -0.734571    44A     -0.729169    45A     -0.707852
      46A     -0.691074    47A     -0.678631    48A     -0.674708
      49A     -0.661982    50A     -0.660590    51A     -0.645350
      52A     -0.634791    53A     -0.628561    54A     -0.617017
      55A     -0.606334    56A     -0.599436    57A     -0.582441
      58A     -0.575707    59A     -0.571331    60A     -0.562321
      61A     -0.557026    62A     -0.548724    63A     -0.541651
      64A     -0.537280    65A     -0.530273    66A     -0.522167
      67A     -0.514550    68A     -0.504819    69A     -0.497260
      70A     -0.484839    71A     -0.480075    72A     -0.476733
      73A     -0.465539    74A     -0.457658    75A     -0.450816
      76A     -0.435996

  @DF-RHF Final Energy: -1327.83098348564545

   => Energetics <=

    Nuclear Repulsion Energy =           1773.7732476529140513
    One-Electron Energy =               -5359.5348272508372247
    Two-Electron Energy =                2257.9305961122777262
    Total Energy =                      -1327.8309834856454472
  Basis Set: (AUG-CC-PVTZ AUX)
    Blend: AUG-CC-PVTZ-RI
    Molecular point group: c1

    Geometry (in Angstrom), charge = 0, multiplicity = 1:

       Center              X                  Y                   Z               Mass
    ------------   -----------------  -----------------  -----------------  -----------------
         P           -2.290260848451    -0.939890952986     0.344015175847    30.973761998420
         O           -0.982317848451    -0.201409952986     0.937626175847    15.994914619570
         O            1.342085151549    -1.675330952986     1.230188175847    15.994914619570
         O            0.078540151549     2.359756047014     0.461505175847    15.994914619570
         O            3.068350151549    -2.186919952986    -0.809252824153    15.994914619570
         O            2.847170151549     2.503265047014     0.370872175847    15.994914619570
         O            4.195523151549     0.435549047014    -0.973536824153    15.994914619570
         O           -2.827027848451     0.033503047014    -0.808193824153    15.994914619570
         O           -3.259285848451    -0.723129952986     1.621008175847    15.994914619570
         O           -2.119157848451    -2.343491952986    -0.100330824153    15.994914619570
         C            0.117997151549     0.030161047014     0.015656175847    12.000000000000
         C            0.953127151549    -1.244052952986    -0.076387824153    12.000000000000
         C            0.898424151549     1.202796047014     0.564188175847    12.000000000000
         C            2.259495151549    -1.014154952986    -0.818699824153    12.000000000000
         C            2.176910151549     1.396624047014    -0.228703824153    12.000000000000
         C            3.025677151549     0.148857047014    -0.210984824153    12.000000000000
         C           -3.124377848451     1.431750047014    -0.489548824153    12.000000000000
         C           -3.536481848451     2.085317047014    -1.784781824153    12.000000000000
         H           -0.283256848451     0.298953047014    -0.970900824153     1.007825032230
         H            0.370104151549    -2.029211952986    -0.572694824153     1.007825032230
         H            1.156955151549     0.998029047014     1.611493175847     1.007825032230
         H            2.060769151549    -0.788507952986    -1.873418824153     1.007825032230
         H            1.963949251549     1.592985347014    -1.084797124153     1.007825032230
         H            3.295690151549    -0.094379952986     0.826983175847     1.007825032230
         H            0.521610151549    -1.887879952986     1.710847175847     1.007825032230
         H            0.665375151549     3.109463047014     0.682521175847     1.007825032230
         H            2.973378151549    -2.547221952986     0.093991175847     1.007825032230
         H            3.721264151549     2.549338047014    -0.059531824153     1.007825032230
         H            4.639562151549    -0.423681952986    -1.097749824153     1.007825032230
         H           -3.808559848451    -1.522185952986     1.734065175847     1.007825032230
         H           -3.930710848451     1.445693047014     0.248723175847     1.007825032230
         H           -2.229926848451     1.893032047014    -0.059758824153     1.007825032230
         H           -3.800685848451     3.131034047014    -1.603333824153     1.007825032230
         H           -2.717360848451     2.053475047014    -2.505537824153     1.007825032230
         H           -4.401108848451     1.574475047014    -2.213386824153     1.007825032230

  Basis Set: AUG-CC-PVTZ
    Blend: AUG-CC-PVTZ
  Basis Set: (AUG-CC-PVTZ AUX)
    Blend: AUG-CC-PVTZ-JKFIT
	 Reference Energy          =   -1327.8309834856454472 [Eh]
	 Singles Energy            =      -0.0000000000000000 [Eh]
	 Same-Spin Energy          =      -1.0142648497260509 [Eh]
	 Opposite-Spin Energy      =      -3.0750114118944132 [Eh]
	 Correlation Energy        =      -4.0892762616204639 [Eh]
	 Total Energy              =   -1331.9202597472658454 [Eh]

	 ================> DF-SCS-MP2 Energies <==================
	-----------------------------------------------------------
	 SCS Same-Spin Scale       =       0.3333333333333333 [-]
	 SCS Opposite-Spin Scale   =       1.2000000000000000 [-]
	 SCS Same-Spin Energy      =      -0.3380882832420170 [Eh]
	 SCS Opposite-Spin Energy  =      -3.6900136942732957 [Eh]
	 SCS Correlation Energy    =      -4.0281019775153126 [Eh]
	 SCS Total Energy          =   -1331.8590854631606817 [Eh]
	-----------------------------------------------------------

  Dipole Moment: [D]
     X:    -1.1624      Y:     1.8365      Z:     0.6462     Total:     2.2675

*** Psi4 exiting successfully. Buy a developer a beer!
