                               Psi4 1.3.2 release

  ==> Input File <==

--------------------------------------------------------------------------
#psi4
#
memory 32 gb

molecule  {
0 1
  P       -2.2900960    -0.9400430     0.3446780
  O       -0.9821530    -0.2015620     0.9382890
  O        1.3422500    -1.6754830     1.2308510
  O        0.0787050     2.3596040     0.4621680
  O        3.0685150    -2.1870720    -0.8085900
  O        2.8473350     2.5031130     0.3715350
  O        4.1956880     0.4353970    -0.9728740
  O       -2.8385488     0.0429299    -0.8563684
  O       -3.2591210    -0.7232820     1.6216710
  O       -2.1189930    -2.3436440    -0.0996680
  C        0.1181620     0.0300090     0.0163190
  C        0.9532920    -1.2442050    -0.0757250
  C        0.8985890     1.2026440     0.5648510
  C        2.2596600    -1.0143070    -0.8180370
  C        2.1770750     1.3964720    -0.2280410
  C        3.0258420     0.1487050    -0.2103220
  C       -3.1242130     1.4315980    -0.4888860
  C       -3.5291595     2.0390986    -1.8085713
  H       -0.2830920     0.2988010    -0.9702380
  H        0.3702690    -2.0293640    -0.5720320
  H        1.1571200     0.9978770     1.6121560
  H        2.0609340    -0.7886600    -1.8727560
  H        1.9169870     1.6362870    -1.2735830
  H        3.2958550    -0.0945320     0.8276460
  H        0.5217750    -1.8880320     1.7115100
  H        0.6655400     3.1093110     0.6831840
  H        2.9735430    -2.5473740     0.0946540
  H        3.7214290     2.5491860    -0.0588690
  H        4.6397270    -0.4238340    -1.0970870
  H       -3.8083950    -1.5223380     1.7347280
  H       -3.9305460     1.4455410     0.2493860
  H       -2.2297620     1.8928800    -0.0590960
  H       -3.8005210     3.1308820    -1.6026710
  H       -2.7171960     2.0533230    -2.5048750
  H       -4.4009440     1.5743230    -2.2127240
units angstrom
no_reorient  #important for SAPT in psi4, default
symmetry c1  #important for SAPT in psi4, default
}

set PROPERTIES_ORIGIN ["COM"]
properties('MP2/aug-cc-pvtz', properties = ['dipole'])
--------------------------------------------------------------------------

    Molecular point group: c1
  Charge       = 0
  Multiplicity = 1
  Basis Set: AUG-CC-PVTZ
    Blend: AUG-CC-PVTZ
  Basis Set: (AUG-CC-PVTZ AUX)
    Blend: AUG-CC-PVTZ-JKFIT

    Orbital Energies [Eh]
    ---------------------

    Doubly Occupied:

       1A    -80.121410     2A    -20.618657     3A    -20.610675
       4A    -20.598460     5A    -20.584096     6A    -20.577243
       7A    -20.575195     8A    -20.574546     9A    -20.573962
      10A    -20.525372    11A    -11.321952    12A    -11.304478
      13A    -11.300005    14A    -11.299408    15A    -11.297263
      16A    -11.296140    17A    -11.291982    18A    -11.227316
      19A     -7.636224    20A     -5.534747    21A     -5.534154
      22A     -5.533177    23A     -1.458420    24A     -1.411471
      25A     -1.396123    26A     -1.393934    27A     -1.381636
      28A     -1.373005    29A     -1.364560    30A     -1.354399
      31A     -1.305509    32A     -1.119930    33A     -1.034920
      34A     -1.012969    35A     -1.004186    36A     -0.880049
      37A     -0.860661    38A     -0.859736    39A     -0.824394
      40A     -0.811543    41A     -0.752467    42A     -0.745619
      43A     -0.731635    44A     -0.726166    45A     -0.708520
      46A     -0.687389    47A     -0.678670    48A     -0.673939
      49A     -0.663678    50A     -0.661947    51A     -0.644014
      52A     -0.635971    53A     -0.626502    54A     -0.613162
      55A     -0.604889    56A     -0.599164    57A     -0.582337
      58A     -0.574852    59A     -0.569842    60A     -0.560573
      61A     -0.557406    62A     -0.548762    63A     -0.537464
      64A     -0.533263    65A     -0.531516    66A     -0.519671
      67A     -0.511846    68A     -0.505148    69A     -0.498403
      70A     -0.485329    71A     -0.479201    72A     -0.476405
      73A     -0.463213    74A     -0.456381    75A     -0.451125
      76A     -0.436961

  @DF-RHF Final Energy: -1327.85266055163174

   => Energetics <=

    Nuclear Repulsion Energy =           1770.9552617127767462
    One-Electron Energy =               -5353.9811766397651809
    Two-Electron Energy =                2255.1732543753569189
    Total Energy =                      -1327.8526605516317431
  Basis Set: (AUG-CC-PVTZ AUX)
    Blend: AUG-CC-PVTZ-RI
    Molecular point group: c1

    Geometry (in Angstrom), charge = 0, multiplicity = 1:

       Center              X                  Y                   Z               Mass
    ------------   -----------------  -----------------  -----------------  -----------------
         P           -2.289745265868    -0.938655834861     0.348408372779    30.973761998420
         O           -0.981802265868    -0.200174834861     0.942019372779    15.994914619570
         O            1.342600734132    -1.674095834861     1.234581372779    15.994914619570
         O            0.079055734132     2.360991165139     0.465898372779    15.994914619570
         O            3.068865734132    -2.185684834861    -0.804859627221    15.994914619570
         O            2.847685734132     2.504500165139     0.375265372779    15.994914619570
         O            4.196038734132     0.436784165139    -0.969143627221    15.994914619570
         O           -2.838198065868     0.044317065139    -0.852638027221    15.994914619570
         O           -3.258770265868    -0.721894834861     1.625401372779    15.994914619570
         O           -2.118642265868    -2.342256834861    -0.095937627221    15.994914619570
         C            0.118512734132     0.031396165139     0.020049372779    12.000000000000
         C            0.953642734132    -1.242817834861    -0.071994627221    12.000000000000
         C            0.898939734132     1.204031165139     0.568581372779    12.000000000000
         C            2.260010734132    -1.012919834861    -0.814306627221    12.000000000000
         C            2.177425734132     1.397859165139    -0.224310627221    12.000000000000
         C            3.026192734132     0.150092165139    -0.206591627221    12.000000000000
         C           -3.123862265868     1.432985165139    -0.485155627221    12.000000000000
         C           -3.528808765868     2.040485765139    -1.804840927221    12.000000000000
         H           -0.282741265868     0.300188165139    -0.966507627221     1.007825032230
         H            0.370619734132    -2.027976834861    -0.568301627221     1.007825032230
         H            1.157470734132     0.999264165139     1.615886372779     1.007825032230
         H            2.061284734132    -0.787272834861    -1.869025627221     1.007825032230
         H            1.917337734132     1.637674165139    -1.269852627221     1.007825032230
         H            3.296205734132    -0.093144834861     0.831376372779     1.007825032230
         H            0.522125734132    -1.886644834861     1.715240372779     1.007825032230
         H            0.665890734132     3.110698165139     0.686914372779     1.007825032230
         H            2.973893734132    -2.545986834861     0.098384372779     1.007825032230
         H            3.721779734132     2.550573165139    -0.055138627221     1.007825032230
         H            4.640077734132    -0.422446834861    -1.093356627221     1.007825032230
         H           -3.808044265868    -1.520950834861     1.738458372779     1.007825032230
         H           -3.930195265868     1.446928165139     0.253116372779     1.007825032230
         H           -2.229411265868     1.894267165139    -0.055365627221     1.007825032230
         H           -3.800170265868     3.132269165139    -1.598940627221     1.007825032230
         H           -2.716845265868     2.054710165139    -2.501144627221     1.007825032230
         H           -4.400593265868     1.575710165139    -2.208993627221     1.007825032230

  Basis Set: AUG-CC-PVTZ
    Blend: AUG-CC-PVTZ
  Basis Set: (AUG-CC-PVTZ AUX)
    Blend: AUG-CC-PVTZ-JKFIT
	 Reference Energy          =   -1327.8526605516317431 [Eh]
	 Singles Energy            =      -0.0000000000000000 [Eh]
	 Same-Spin Energy          =      -1.0154747474063655 [Eh]
	 Opposite-Spin Energy      =      -3.0783364255926879 [Eh]
	 Correlation Energy        =      -4.0938111729990538 [Eh]
	 Total Energy              =   -1331.9464717246307828 [Eh]

	 ================> DF-SCS-MP2 Energies <==================
	-----------------------------------------------------------
	 SCS Same-Spin Scale       =       0.3333333333333333 [-]
	 SCS Opposite-Spin Scale   =       1.2000000000000000 [-]
	 SCS Same-Spin Energy      =      -0.3384915824687885 [Eh]
	 SCS Opposite-Spin Energy  =      -3.6940037107112254 [Eh]
	 SCS Correlation Energy    =      -4.0324952931800135 [Eh]
	 SCS Total Energy          =   -1331.8851558448118340 [Eh]
	-----------------------------------------------------------

  Dipole Moment: [D]
     X:    -0.9871      Y:     1.6936      Z:     0.8948     Total:     2.1549

*** Psi4 exiting successfully. Buy a developer a beer!
