                               Psi4 1.3.2 release

  ==> Input File <==

--------------------------------------------------------------------------
#psi4
#
memory 32 gb

molecule  {
0 1
  P       -2.2900960    -0.9400430     0.3446780
  O       -0.9821530    -0.2015620     0.9382890
  O        1.3422500    -1.6754830     1.2308510
  O        0.0696943     2.3527068     0.4571514
  O        3.0685150    -2.1870720    -0.8085900
  O        2.8473350     2.5031130     0.3715350
  O        4.1956880     0.4353970    -0.9728740
  O       -2.8268630     0.0333510    -0.8075310
  O       -3.2591210    -0.7232820     1.6216710
  O       -2.1189930    -2.3436440    -0.0996680
  C        0.1079981     0.0380294     0.0137927
  C        0.9532920    -1.2442050    -0.0757250
  C        0.8985890     1.2026440     0.5648510
  C        2.2596600    -1.0143070    -0.8180370
  C        2.1770750     1.3964720    -0.2280410
  C        3.0258420     0.1487050    -0.2103220
  C       -3.1242130     1.4315980    -0.4888860
  C       -3.5363170     2.0851650    -1.7841190
  H       -0.2830920     0.2988010    -0.9702380
  H        0.3702690    -2.0293640    -0.5720320
  H        1.1571200     0.9978770     1.6121560
  H        2.0609340    -0.7886600    -1.8727560
  H        1.9169870     1.6362870    -1.2735830
  H        3.2958550    -0.0945320     0.8276460
  H        0.5217750    -1.8880320     1.7115100
  H        0.6655400     3.1093110     0.6831840
  H        2.9735430    -2.5473740     0.0946540
  H        3.7214290     2.5491860    -0.0588690
  H        4.6397270    -0.4238340    -1.0970870
  H       -3.8083950    -1.5223380     1.7347280
  H       -3.9305460     1.4455410     0.2493860
  H       -2.2297620     1.8928800    -0.0590960
  H       -3.8005210     3.1308820    -1.6026710
  H       -2.7171960     2.0533230    -2.5048750
  H       -4.4009440     1.5743230    -2.2127240
units angstrom
no_reorient  #important for SAPT in psi4, default
symmetry c1  #important for SAPT in psi4, default
}

set PROPERTIES_ORIGIN ["COM"]
properties('MP2/aug-cc-pvtz', properties = ['dipole'])
--------------------------------------------------------------------------

    Molecular point group: c1
  Charge       = 0
  Multiplicity = 1
  Basis Set: AUG-CC-PVTZ
    Blend: AUG-CC-PVTZ
  Basis Set: (AUG-CC-PVTZ AUX)
    Blend: AUG-CC-PVTZ-JKFIT

    Orbital Energies [Eh]
    ---------------------

    Doubly Occupied:

       1A    -80.117169     2A    -20.614890     3A    -20.607573
       4A    -20.599092     5A    -20.582879     6A    -20.577012
       7A    -20.574591     8A    -20.574270     9A    -20.573986
      10A    -20.523572    11A    -11.319835    12A    -11.303279
      13A    -11.299400    14A    -11.298903    15A    -11.298282
      16A    -11.296773    17A    -11.291313    18A    -11.229904
      19A     -7.632628    20A     -5.531137    21A     -5.530762
      22A     -5.529551    23A     -1.460959    24A     -1.410600
      25A     -1.394982    26A     -1.392583    27A     -1.386999
      28A     -1.372447    29A     -1.363276    30A     -1.353573
      31A     -1.303984    32A     -1.117504    33A     -1.040519
      34A     -1.011326    35A     -1.002321    36A     -0.880609
      37A     -0.865072    38A     -0.857866    39A     -0.822671
      40A     -0.811052    41A     -0.750752    42A     -0.745595
      43A     -0.730763    44A     -0.729173    45A     -0.707703
      46A     -0.686068    47A     -0.677668    48A     -0.673767
      49A     -0.662429    50A     -0.660921    51A     -0.642520
      52A     -0.634726    53A     -0.627421    54A     -0.615082
      55A     -0.603686    56A     -0.598111    57A     -0.581529
      58A     -0.575683    59A     -0.571322    60A     -0.559626
      61A     -0.556402    62A     -0.548379    63A     -0.541227
      64A     -0.536357    65A     -0.530630    66A     -0.521962
      67A     -0.513100    68A     -0.504342    69A     -0.497253
      70A     -0.484842    71A     -0.479721    72A     -0.476550
      73A     -0.462018    74A     -0.455885    75A     -0.448739
      76A     -0.435838

  @DF-RHF Final Energy: -1327.86032610992493

   => Energetics <=

    Nuclear Repulsion Energy =           1772.5435371664104878
    One-Electron Energy =               -5357.2418656756226483
    Two-Electron Energy =                2256.8380023992867791
    Total Energy =                      -1327.8603261099251540
  Basis Set: (AUG-CC-PVTZ AUX)
    Blend: AUG-CC-PVTZ-RI
    Molecular point group: c1

    Geometry (in Angstrom), charge = 0, multiplicity = 1:

       Center              X                  Y                   Z               Mass
    ------------   -----------------  -----------------  -----------------  -----------------
         P           -2.289172231709    -0.939994120022     0.345061783374    30.973761998420
         O           -0.981229231709    -0.201513120022     0.938672783374    15.994914619570
         O            1.343173768291    -1.675434120022     1.231234783374    15.994914619570
         O            0.070618068291     2.352755679978     0.457535183374    15.994914619570
         O            3.069438768291    -2.187023120022    -0.808206216626    15.994914619570
         O            2.848258768291     2.503161879978     0.371918783374    15.994914619570
         O            4.196611768291     0.435445879978    -0.972490216626    15.994914619570
         O           -2.825939231709     0.033399879978    -0.807147216626    15.994914619570
         O           -3.258197231709    -0.723233120022     1.622054783374    15.994914619570
         O           -2.118069231709    -2.343595120022    -0.099284216626    15.994914619570
         C            0.108921868291     0.038078279978     0.014176483374    12.000000000000
         C            0.954215768291    -1.244156120022    -0.075341216626    12.000000000000
         C            0.899512768291     1.202692879978     0.565234783374    12.000000000000
         C            2.260583768291    -1.014258120022    -0.817653216626    12.000000000000
         C            2.177998768291     1.396520879978    -0.227657216626    12.000000000000
         C            3.026765768291     0.148753879978    -0.209938216626    12.000000000000
         C           -3.123289231709     1.431646879978    -0.488502216626    12.000000000000
         C           -3.535393231709     2.085213879978    -1.783735216626    12.000000000000
         H           -0.282168231709     0.298849879978    -0.969854216626     1.007825032230
         H            0.371192768291    -2.029315120022    -0.571648216626     1.007825032230
         H            1.158043768291     0.997925879978     1.612539783374     1.007825032230
         H            2.061857768291    -0.788611120022    -1.872372216626     1.007825032230
         H            1.917910768291     1.636335879978    -1.273199216626     1.007825032230
         H            3.296778768291    -0.094483120022     0.828029783374     1.007825032230
         H            0.522698768291    -1.887983120022     1.711893783374     1.007825032230
         H            0.666463768291     3.109359879978     0.683567783374     1.007825032230
         H            2.974466768291    -2.547325120022     0.095037783374     1.007825032230
         H            3.722352768291     2.549234879978    -0.058485216626     1.007825032230
         H            4.640650768291    -0.423785120022    -1.096703216626     1.007825032230
         H           -3.807471231709    -1.522289120022     1.735111783374     1.007825032230
         H           -3.929622231709     1.445589879978     0.249769783374     1.007825032230
         H           -2.228838231709     1.892928879978    -0.058712216626     1.007825032230
         H           -3.799597231709     3.130930879978    -1.602287216626     1.007825032230
         H           -2.716272231709     2.053371879978    -2.504491216626     1.007825032230
         H           -4.400020231709     1.574371879978    -2.212340216626     1.007825032230

  Basis Set: AUG-CC-PVTZ
    Blend: AUG-CC-PVTZ
  Basis Set: (AUG-CC-PVTZ AUX)
    Blend: AUG-CC-PVTZ-JKFIT
	 Reference Energy          =   -1327.8603261099249266 [Eh]
	 Singles Energy            =      -0.0000000000000000 [Eh]
	 Same-Spin Energy          =      -1.0147535396122416 [Eh]
	 Opposite-Spin Energy      =      -3.0765119904910878 [Eh]
	 Correlation Energy        =      -4.0912655301033292 [Eh]
	 Total Energy              =   -1331.9515916400282549 [Eh]

	 ================> DF-SCS-MP2 Energies <==================
	-----------------------------------------------------------
	 SCS Same-Spin Scale       =       0.3333333333333333 [-]
	 SCS Opposite-Spin Scale   =       1.2000000000000000 [-]
	 SCS Same-Spin Energy      =      -0.3382511798707472 [Eh]
	 SCS Opposite-Spin Energy  =      -3.6918143885893051 [Eh]
	 SCS Correlation Energy    =      -4.0300655684600519 [Eh]
	 SCS Total Energy          =   -1331.8903916783849581 [Eh]
	-----------------------------------------------------------

  Dipole Moment: [D]
     X:    -1.1306      Y:     1.8853      Z:     0.7342     Total:     2.3177

*** Psi4 exiting successfully. Buy a developer a beer!
