                               Psi4 1.3.2 release

  ==> Input File <==

--------------------------------------------------------------------------
#psi4
#
memory 32 gb

molecule  {
0 1
  P       -2.2900960    -0.9400430     0.3446780
  O       -0.9821530    -0.2015620     0.9382890
  O        1.3422500    -1.6754830     1.2308510
  O        0.0787050     2.3596040     0.4621680
  O        3.1227632    -2.1470283    -0.7767006
  O        2.8473350     2.5031130     0.3715350
  O        4.1956880     0.4353970    -0.9728740
  O       -2.8268630     0.0333510    -0.8075310
  O       -3.2591210    -0.7232820     1.6216710
  O       -2.1189930    -2.3436440    -0.0996680
  C        0.1181620     0.0300090     0.0163190
  C        0.9532920    -1.2442050    -0.0757250
  C        0.8985890     1.2026440     0.5648510
  C        2.2596600    -1.0143070    -0.8180370
  C        2.1770750     1.3964720    -0.2280410
  C        3.0873745     0.0995582    -0.1990522
  C       -3.1242130     1.4315980    -0.4888860
  C       -3.5363170     2.0851650    -1.7841190
  H       -0.2830920     0.2988010    -0.9702380
  H        0.3702690    -2.0293640    -0.5720320
  H        1.1571200     0.9978770     1.6121560
  H        2.0609340    -0.7886600    -1.8727560
  H        1.9169870     1.6362870    -1.2735830
  H        3.2958550    -0.0945320     0.8276460
  H        0.5217750    -1.8880320     1.7115100
  H        0.6655400     3.1093110     0.6831840
  H        2.9735430    -2.5473740     0.0946540
  H        3.7214290     2.5491860    -0.0588690
  H        4.6397270    -0.4238340    -1.0970870
  H       -3.8083950    -1.5223380     1.7347280
  H       -3.9305460     1.4455410     0.2493860
  H       -2.2297620     1.8928800    -0.0590960
  H       -3.8005210     3.1308820    -1.6026710
  H       -2.7171960     2.0533230    -2.5048750
  H       -4.4009440     1.5743230    -2.2127240
units angstrom
no_reorient  #important for SAPT in psi4, default
symmetry c1  #important for SAPT in psi4, default
}

set PROPERTIES_ORIGIN ["COM"]
properties('MP2/aug-cc-pvtz', properties = ['dipole'])
--------------------------------------------------------------------------

    Molecular point group: c1
  Charge       = 0
  Multiplicity = 1
  Basis Set: AUG-CC-PVTZ
    Blend: AUG-CC-PVTZ
  Basis Set: (AUG-CC-PVTZ AUX)
    Blend: AUG-CC-PVTZ-JKFIT

    Orbital Energies [Eh]
    ---------------------

    Doubly Occupied:

       1A    -80.116935     2A    -20.614705     3A    -20.606909
       4A    -20.598828     5A    -20.583703     6A    -20.577811
       7A    -20.573625     8A    -20.571781     9A    -20.571187
      10A    -20.523615    11A    -11.320578    12A    -11.305261
      13A    -11.299140    14A    -11.298063    15A    -11.296206
      16A    -11.294512    17A    -11.288539    18A    -11.229660
      19A     -7.632388    20A     -5.530894    21A     -5.530519
      22A     -5.529323    23A     -1.460198    24A     -1.412815
      25A     -1.398715    26A     -1.391758    27A     -1.386944
      28A     -1.376272    29A     -1.363480    30A     -1.355417
      31A     -1.304004    32A     -1.112584    33A     -1.040164
      34A     -1.006755    35A     -0.998766    36A     -0.881544
      37A     -0.865171    38A     -0.854689    39A     -0.822833
      40A     -0.810438    41A     -0.751737    42A     -0.745374
      43A     -0.731155    44A     -0.728355    45A     -0.706596
      46A     -0.689297    47A     -0.679677    48A     -0.673952
      49A     -0.662327    50A     -0.659463    51A     -0.642116
      52A     -0.634259    53A     -0.626969    54A     -0.614625
      55A     -0.603149    56A     -0.601070    57A     -0.583917
      58A     -0.575740    59A     -0.572177    60A     -0.560245
      61A     -0.557974    62A     -0.549302    63A     -0.541524
      64A     -0.534277    65A     -0.530603    66A     -0.520571
      67A     -0.511573    68A     -0.507949    69A     -0.496031
      70A     -0.485419    71A     -0.479766    72A     -0.476770
      73A     -0.461925    74A     -0.449745    75A     -0.445879
      76A     -0.427820

  @DF-RHF Final Energy: -1327.85455353199131

   => Energetics <=

    Nuclear Repulsion Energy =           1771.6859104258815023
    One-Electron Energy =               -5355.5688120389786491
    Two-Electron Energy =                2256.0283480811058325
    Total Energy =                      -1327.8545535319913142
  Basis Set: (AUG-CC-PVTZ AUX)
    Blend: AUG-CC-PVTZ-RI
    Molecular point group: c1

    Geometry (in Angstrom), charge = 0, multiplicity = 1:

       Center              X                  Y                   Z               Mass
    ------------   -----------------  -----------------  -----------------  -----------------
         P           -2.295671471037    -0.940219104603     0.342437820155    30.973761998420
         O           -0.987728471037    -0.201738104603     0.936048820155    15.994914619570
         O            1.336674528963    -1.675659104603     1.228610820155    15.994914619570
         O            0.073129528963     2.359427895397     0.459927820155    15.994914619570
         O            3.117187728963    -2.147204404603    -0.778940779845    15.994914619570
         O            2.841759528963     2.502936895397     0.369294820155    15.994914619570
         O            4.190112528963     0.435220895397    -0.975114179845    15.994914619570
         O           -2.832438471037     0.033174895397    -0.809771179845    15.994914619570
         O           -3.264696471037    -0.723458104603     1.619430820155    15.994914619570
         O           -2.124568471037    -2.343820104603    -0.101908179845    15.994914619570
         C            0.112586528963     0.029832895397     0.014078820155    12.000000000000
         C            0.947716528963    -1.244381104603    -0.077965179845    12.000000000000
         C            0.893013528963     1.202467895397     0.562610820155    12.000000000000
         C            2.254084528963    -1.014483104603    -0.820277179845    12.000000000000
         C            2.171499528963     1.396295895397    -0.230281179845    12.000000000000
         C            3.081799028963     0.099382095397    -0.201292379845    12.000000000000
         C           -3.129788471037     1.431421895397    -0.491126179845    12.000000000000
         C           -3.541892471037     2.084988895397    -1.786359179845    12.000000000000
         H           -0.288667471037     0.298624895397    -0.972478179845     1.007825032230
         H            0.364693528963    -2.029540104603    -0.574272179845     1.007825032230
         H            1.151544528963     0.997700895397     1.609915820155     1.007825032230
         H            2.055358528963    -0.788836104603    -1.874996179845     1.007825032230
         H            1.911411528963     1.636110895397    -1.275823179845     1.007825032230
         H            3.290279528963    -0.094708104603     0.825405820155     1.007825032230
         H            0.516199528963    -1.888208104603     1.709269820155     1.007825032230
         H            0.659964528963     3.109134895397     0.680943820155     1.007825032230
         H            2.967967528963    -2.547550104603     0.092413820155     1.007825032230
         H            3.715853528963     2.549009895397    -0.061109179845     1.007825032230
         H            4.634151528963    -0.424010104603    -1.099327179845     1.007825032230
         H           -3.813970471037    -1.522514104603     1.732487820155     1.007825032230
         H           -3.936121471037     1.445364895397     0.247145820155     1.007825032230
         H           -2.235337471037     1.892703895397    -0.061336179845     1.007825032230
         H           -3.806096471037     3.130705895397    -1.604911179845     1.007825032230
         H           -2.722771471037     2.053146895397    -2.507115179845     1.007825032230
         H           -4.406519471037     1.574146895397    -2.214964179845     1.007825032230

  Basis Set: AUG-CC-PVTZ
    Blend: AUG-CC-PVTZ
  Basis Set: (AUG-CC-PVTZ AUX)
    Blend: AUG-CC-PVTZ-JKFIT
	 Reference Energy          =   -1327.8545535319913142 [Eh]
	 Singles Energy            =      -0.0000000000000000 [Eh]
	 Same-Spin Energy          =      -1.0144466667498258 [Eh]
	 Opposite-Spin Energy      =      -3.0758560046344550 [Eh]
	 Correlation Energy        =      -4.0903026713842809 [Eh]
	 Total Energy              =   -1331.9448562033755934 [Eh]

	 ================> DF-SCS-MP2 Energies <==================
	-----------------------------------------------------------
	 SCS Same-Spin Scale       =       0.3333333333333333 [-]
	 SCS Opposite-Spin Scale   =       1.2000000000000000 [-]
	 SCS Same-Spin Energy      =      -0.3381488889166085 [Eh]
	 SCS Opposite-Spin Energy  =      -3.6910272055613458 [Eh]
	 SCS Correlation Energy    =      -4.0291760944779540 [Eh]
	 SCS Total Energy          =   -1331.8837296264691759 [Eh]
	-----------------------------------------------------------

  Dipole Moment: [D]
     X:    -1.0944      Y:     1.7359      Z:     0.6329     Total:     2.1475

*** Psi4 exiting successfully. Buy a developer a beer!
