                               Psi4 1.3.2 release

  ==> Input File <==

--------------------------------------------------------------------------
#psi4
#
memory 32 gb

molecule  {
0 1
  P       -2.2900960    -0.9400430     0.3446780
  O       -0.9821530    -0.2015620     0.9382890
  O        1.3422500    -1.6754830     1.2308510
  O        0.0787050     2.3596040     0.4621680
  O        3.0685150    -2.1870720    -0.8085900
  O        2.8473350     2.5031130     0.3715350
  O        4.1956880     0.4353970    -0.9728740
  O       -2.8268630     0.0333510    -0.8075310
  O       -3.2591210    -0.7232820     1.6216710
  O       -2.1189930    -2.3436440    -0.0996680
  C        0.1181620     0.0300090     0.0163190
  C        0.9380584    -1.3044366    -0.1254538
  C        0.8985890     1.2026440     0.5648510
  C        2.2596600    -1.0143070    -0.8180370
  C        2.1770750     1.3964720    -0.2280410
  C        3.0826977     0.1369468    -0.2647081
  C       -3.1242130     1.4315980    -0.4888860
  C       -3.5363170     2.0851650    -1.7841190
  H       -0.2830920     0.2988010    -0.9702380
  H        0.3702690    -2.0293640    -0.5720320
  H        1.1571200     0.9978770     1.6121560
  H        2.0609340    -0.7886600    -1.8727560
  H        1.9169870     1.6362870    -1.2735830
  H        3.2958550    -0.0945320     0.8276460
  H        0.5217750    -1.8880320     1.7115100
  H        0.6655400     3.1093110     0.6831840
  H        2.9735430    -2.5473740     0.0946540
  H        3.7214290     2.5491860    -0.0588690
  H        4.6397270    -0.4238340    -1.0970870
  H       -3.8083950    -1.5223380     1.7347280
  H       -3.9305460     1.4455410     0.2493860
  H       -2.2297620     1.8928800    -0.0590960
  H       -3.8005210     3.1308820    -1.6026710
  H       -2.7171960     2.0533230    -2.5048750
  H       -4.4009440     1.5743230    -2.2127240
units angstrom
no_reorient  #important for SAPT in psi4, default
symmetry c1  #important for SAPT in psi4, default
}

set PROPERTIES_ORIGIN ["COM"]
properties('MP2/aug-cc-pvtz', properties = ['dipole'])
--------------------------------------------------------------------------

    Molecular point group: c1
  Charge       = 0
  Multiplicity = 1
  Basis Set: AUG-CC-PVTZ
    Blend: AUG-CC-PVTZ
  Basis Set: (AUG-CC-PVTZ AUX)
    Blend: AUG-CC-PVTZ-JKFIT

    Orbital Energies [Eh]
    ---------------------

    Doubly Occupied:

       1A    -80.116438     2A    -20.614216     3A    -20.605417
       4A    -20.598255     5A    -20.584452     6A    -20.579100
       7A    -20.575518     8A    -20.572973     9A    -20.571523
      10A    -20.523758    11A    -11.321138    12A    -11.303929
      13A    -11.298745    14A    -11.298160    15A    -11.297919
      16A    -11.295596    17A    -11.294707    18A    -11.229352
      19A     -7.631891    20A     -5.530398    21A     -5.530018
      22A     -5.528837    23A     -1.459006    24A     -1.421201
      25A     -1.400358    26A     -1.389476    27A     -1.386559
      28A     -1.378177    29A     -1.360654    30A     -1.354639
      31A     -1.304078    32A     -1.108796    33A     -1.039787
      34A     -1.004997    35A     -1.002438    36A     -0.883140
      37A     -0.865350    38A     -0.859218    39A     -0.821369
      40A     -0.804804    41A     -0.754003    42A     -0.745258
      43A     -0.734394    44A     -0.727096    45A     -0.705587
      46A     -0.693433    47A     -0.678706    48A     -0.670968
      49A     -0.667692    50A     -0.659648    51A     -0.642765
      52A     -0.637868    53A     -0.626431    54A     -0.614608
      55A     -0.603218    56A     -0.600249    57A     -0.584916
      58A     -0.574763    59A     -0.570305    60A     -0.561648
      61A     -0.558372    62A     -0.547858    63A     -0.540995
      64A     -0.538235    65A     -0.529122    66A     -0.521510
      67A     -0.512115    68A     -0.501975    69A     -0.497467
      70A     -0.481391    71A     -0.479132    72A     -0.474992
      73A     -0.460250    74A     -0.448442    75A     -0.441464
      76A     -0.436383

  @DF-RHF Final Energy: -1327.84794271215037

   => Energetics <=

    Nuclear Repulsion Energy =           1770.4686496016845467
    One-Electron Energy =               -5353.0938924238398613
    Two-Electron Energy =                2254.7773001100049441
    Total Energy =                      -1327.8479427121501431
  Basis Set: (AUG-CC-PVTZ AUX)
    Blend: AUG-CC-PVTZ-RI
    Molecular point group: c1

    Geometry (in Angstrom), charge = 0, multiplicity = 1:

       Center              X                  Y                   Z               Mass
    ------------   -----------------  -----------------  -----------------  -----------------
         P           -2.291829853971    -0.937044042717     0.349015192672    30.973761998420
         O           -0.983886853971    -0.198563042717     0.942626192672    15.994914619570
         O            1.340516146029    -1.672484042717     1.235188192672    15.994914619570
         O            0.076971146029     2.362602957283     0.466505192672    15.994914619570
         O            3.066781146029    -2.184073042717    -0.804252807328    15.994914619570
         O            2.845601146029     2.506111957283     0.375872192672    15.994914619570
         O            4.193954146029     0.438395957283    -0.968536807328    15.994914619570
         O           -2.828596853971     0.036349957283    -0.803193807328    15.994914619570
         O           -3.260854853971    -0.720283042717     1.626008192672    15.994914619570
         O           -2.120726853971    -2.340645042717    -0.095330807328    15.994914619570
         C            0.116428146029     0.033007957283     0.020656192672    12.000000000000
         C            0.936324546029    -1.301437642717    -0.121116607328    12.000000000000
         C            0.896855146029     1.205642957283     0.569188192672    12.000000000000
         C            2.257926146029    -1.011308042717    -0.813699807328    12.000000000000
         C            2.175341146029     1.399470957283    -0.223703807328    12.000000000000
         C            3.080963846029     0.139945757283    -0.260370907328    12.000000000000
         C           -3.125946853971     1.434596957283    -0.484548807328    12.000000000000
         C           -3.538050853971     2.088163957283    -1.779781807328    12.000000000000
         H           -0.284825853971     0.301799957283    -0.965900807328     1.007825032230
         H            0.368535146029    -2.026365042717    -0.567694807328     1.007825032230
         H            1.155386146029     1.000875957283     1.616493192672     1.007825032230
         H            2.059200146029    -0.785661042717    -1.868418807328     1.007825032230
         H            1.915253146029     1.639285957283    -1.269245807328     1.007825032230
         H            3.294121146029    -0.091533042717     0.831983192672     1.007825032230
         H            0.520041146029    -1.885033042717     1.715847192672     1.007825032230
         H            0.663806146029     3.112309957283     0.687521192672     1.007825032230
         H            2.971809146029    -2.544375042717     0.098991192672     1.007825032230
         H            3.719695146029     2.552184957283    -0.054531807328     1.007825032230
         H            4.637993146029    -0.420835042717    -1.092749807328     1.007825032230
         H           -3.810128853971    -1.519339042717     1.739065192672     1.007825032230
         H           -3.932279853971     1.448539957283     0.253723192672     1.007825032230
         H           -2.231495853971     1.895878957283    -0.054758807328     1.007825032230
         H           -3.802254853971     3.133880957283    -1.598333807328     1.007825032230
         H           -2.718929853971     2.056321957283    -2.500537807328     1.007825032230
         H           -4.402677853971     1.577321957283    -2.208386807328     1.007825032230

  Basis Set: AUG-CC-PVTZ
    Blend: AUG-CC-PVTZ
  Basis Set: (AUG-CC-PVTZ AUX)
    Blend: AUG-CC-PVTZ-JKFIT
	 Reference Energy          =   -1327.8479427121503704 [Eh]
	 Singles Energy            =      -0.0000000000000000 [Eh]
	 Same-Spin Energy          =      -1.0142527842319056 [Eh]
	 Opposite-Spin Energy      =      -3.0758445451636778 [Eh]
	 Correlation Energy        =      -4.0900973293955829 [Eh]
	 Total Energy              =   -1331.9380400415459462 [Eh]

	 ================> DF-SCS-MP2 Energies <==================
	-----------------------------------------------------------
	 SCS Same-Spin Scale       =       0.3333333333333333 [-]
	 SCS Opposite-Spin Scale   =       1.2000000000000000 [-]
	 SCS Same-Spin Energy      =      -0.3380842614106352 [Eh]
	 SCS Opposite-Spin Energy  =      -3.6910134541964132 [Eh]
	 SCS Correlation Energy    =      -4.0290977156070484 [Eh]
	 SCS Total Energy          =   -1331.8770404277574926 [Eh]
	-----------------------------------------------------------

  Dipole Moment: [D]
     X:    -0.8933      Y:     1.8818      Z:     0.4897     Total:     2.1399

*** Psi4 exiting successfully. Buy a developer a beer!
