                               Psi4 1.3.2 release

  ==> Input File <==

--------------------------------------------------------------------------
#psi4
#
memory 32 gb

molecule  {
0 1
  P       -2.2900960    -0.9400430     0.3446780
  O       -0.9821530    -0.2015620     0.9382890
  O        1.3422500    -1.6754830     1.2308510
  O        0.0787050     2.3596040     0.4621680
  O        3.0685150    -2.1870720    -0.8085900
  O        2.8473350     2.5031130     0.3715350
  O        4.2096005     0.4313405    -0.9526497
  O       -2.8268630     0.0333510    -0.8075310
  O       -3.2591210    -0.7232820     1.6216710
  O       -2.1189930    -2.3436440    -0.0996680
  C        0.1181620     0.0300090     0.0163190
  C        0.9532920    -1.2442050    -0.0757250
  C        0.8985890     1.2026440     0.5648510
  C        2.2596600    -1.0143070    -0.8180370
  C        2.1770750     1.3964720    -0.2280410
  C        3.0258420     0.1487050    -0.2103220
  C       -3.1242130     1.4315980    -0.4888860
  C       -3.5363170     2.0851650    -1.7841190
  H       -0.2830920     0.2988010    -0.9702380
  H        0.3702690    -2.0293640    -0.5720320
  H        1.1571200     0.9978770     1.6121560
  H        2.0609340    -0.7886600    -1.8727560
  H        1.9169870     1.6362870    -1.2735830
  H        3.3143620    -0.0919530     0.8232586
  H        0.5217750    -1.8880320     1.7115100
  H        0.6655400     3.1093110     0.6831840
  H        2.9735430    -2.5473740     0.0946540
  H        3.7214290     2.5491860    -0.0588690
  H        4.6397270    -0.4238340    -1.0970870
  H       -3.8083950    -1.5223380     1.7347280
  H       -3.9305460     1.4455410     0.2493860
  H       -2.2297620     1.8928800    -0.0590960
  H       -3.8005210     3.1308820    -1.6026710
  H       -2.7171960     2.0533230    -2.5048750
  H       -4.4009440     1.5743230    -2.2127240
units angstrom
no_reorient  #important for SAPT in psi4, default
symmetry c1  #important for SAPT in psi4, default
}

set PROPERTIES_ORIGIN ["COM"]
properties('MP2/aug-cc-pvtz', properties = ['dipole'])
--------------------------------------------------------------------------

    Molecular point group: c1
  Charge       = 0
  Multiplicity = 1
  Basis Set: AUG-CC-PVTZ
    Blend: AUG-CC-PVTZ
  Basis Set: (AUG-CC-PVTZ AUX)
    Blend: AUG-CC-PVTZ-JKFIT

    Orbital Energies [Eh]
    ---------------------

    Doubly Occupied:

       1A    -80.117053     2A    -20.614820     3A    -20.607174
       4A    -20.599045     5A    -20.583146     6A    -20.576875
       7A    -20.574699     8A    -20.573665     9A    -20.572529
      10A    -20.523544    11A    -11.320961    12A    -11.303867
      13A    -11.299974    14A    -11.299484    15A    -11.298886
      16A    -11.297141    17A    -11.291410    18A    -11.229957
      19A     -7.632503    20A     -5.531009    21A     -5.530637
      22A     -5.529435    23A     -1.460401    24A     -1.410942
      25A     -1.394890    26A     -1.393144    27A     -1.386968
      28A     -1.373064    29A     -1.364077    30A     -1.354243
      31A     -1.303940    32A     -1.119315    33A     -1.040560
      34A     -1.012293    35A     -1.003706    36A     -0.880579
      37A     -0.865089    38A     -0.859378    39A     -0.822584
      40A     -0.810784    41A     -0.751721    42A     -0.745221
      43A     -0.732125    44A     -0.728722    45A     -0.708359
      46A     -0.687349    47A     -0.678316    48A     -0.674057
      49A     -0.662042    50A     -0.660572    51A     -0.643367
      52A     -0.636112    53A     -0.627433    54A     -0.615566
      55A     -0.603809    56A     -0.598765    57A     -0.581931
      58A     -0.575658    59A     -0.571167    60A     -0.559479
      61A     -0.556291    62A     -0.548567    63A     -0.541293
      64A     -0.536949    65A     -0.530122    66A     -0.521986
      67A     -0.513240    68A     -0.503581    69A     -0.497188
      70A     -0.484848    71A     -0.479948    72A     -0.476694
      73A     -0.462544    74A     -0.455362    75A     -0.450318
      76A     -0.436858

  @DF-RHF Final Energy: -1327.86188227444427

   => Energetics <=

    Nuclear Repulsion Energy =           1772.2606634451467471
    One-Electron Energy =               -5356.6424348057398674
    Two-Electron Energy =                2256.5198890861488508
    Total Energy =                      -1327.8618822744442696
  Basis Set: (AUG-CC-PVTZ AUX)
    Blend: AUG-CC-PVTZ-RI
    Molecular point group: c1

    Geometry (in Angstrom), charge = 0, multiplicity = 1:

       Center              X                  Y                   Z               Mass
    ------------   -----------------  -----------------  -----------------  -----------------
         P           -2.290933224037    -0.939826763587     0.343570363569    30.973761998420
         O           -0.982990224037    -0.201345763587     0.937181363569    15.994914619570
         O            1.341412775963    -1.675266763587     1.229743363569    15.994914619570
         O            0.077867775963     2.359820236413     0.461060363569    15.994914619570
         O            3.067677775963    -2.186855763587    -0.809697636431    15.994914619570
         O            2.846497775963     2.503329236413     0.370427363569    15.994914619570
         O            4.208763275963     0.431556736413    -0.953757336431    15.994914619570
         O           -2.827700224037     0.033567236413    -0.808638636431    15.994914619570
         O           -3.259958224037    -0.723065763587     1.620563363569    15.994914619570
         O           -2.119830224037    -2.343427763587    -0.100775636431    15.994914619570
         C            0.117324775963     0.030225236413     0.015211363569    12.000000000000
         C            0.952454775963    -1.243988763587    -0.076832636431    12.000000000000
         C            0.897751775963     1.202860236413     0.563743363569    12.000000000000
         C            2.258822775963    -1.014090763587    -0.819144636431    12.000000000000
         C            2.176237775963     1.396688236413    -0.229148636431    12.000000000000
         C            3.025004775963     0.148921236413    -0.211429636431    12.000000000000
         C           -3.125050224037     1.431814236413    -0.489993636431    12.000000000000
         C           -3.537154224037     2.085381236413    -1.785226636431    12.000000000000
         H           -0.283929224037     0.299017236413    -0.971345636431     1.007825032230
         H            0.369431775963    -2.029147763587    -0.573139636431     1.007825032230
         H            1.156282775963     0.998093236413     1.611048363569     1.007825032230
         H            2.060096775963    -0.788443763587    -1.873863636431     1.007825032230
         H            1.916149775963     1.636503236413    -1.274690636431     1.007825032230
         H            3.313524775963    -0.091736763587     0.822150963569     1.007825032230
         H            0.520937775963    -1.887815763587     1.710402363569     1.007825032230
         H            0.664702775963     3.109527236413     0.682076363569     1.007825032230
         H            2.972705775963    -2.547157763587     0.093546363569     1.007825032230
         H            3.720591775963     2.549402236413    -0.059976636431     1.007825032230
         H            4.638889775963    -0.423617763587    -1.098194636431     1.007825032230
         H           -3.809232224037    -1.522121763587     1.733620363569     1.007825032230
         H           -3.931383224037     1.445757236413     0.248278363569     1.007825032230
         H           -2.230599224037     1.893096236413    -0.060203636431     1.007825032230
         H           -3.801358224037     3.131098236413    -1.603778636431     1.007825032230
         H           -2.718033224037     2.053539236413    -2.505982636431     1.007825032230
         H           -4.401781224037     1.574539236413    -2.213831636431     1.007825032230

  Basis Set: AUG-CC-PVTZ
    Blend: AUG-CC-PVTZ
  Basis Set: (AUG-CC-PVTZ AUX)
    Blend: AUG-CC-PVTZ-JKFIT
	 Reference Energy          =   -1327.8618822744442696 [Eh]
	 Singles Energy            =      -0.0000000000000000 [Eh]
	 Same-Spin Energy          =      -1.0144357676506031 [Eh]
	 Opposite-Spin Energy      =      -3.0757479190137742 [Eh]
	 Correlation Energy        =      -4.0901836866643775 [Eh]
	 Total Energy              =   -1331.9520659611087012 [Eh]

	 ================> DF-SCS-MP2 Energies <==================
	-----------------------------------------------------------
	 SCS Same-Spin Scale       =       0.3333333333333333 [-]
	 SCS Opposite-Spin Scale   =       1.2000000000000000 [-]
	 SCS Same-Spin Energy      =      -0.3381452558835343 [Eh]
	 SCS Opposite-Spin Energy  =      -3.6908975028165290 [Eh]
	 SCS Correlation Energy    =      -4.0290427587000632 [Eh]
	 SCS Total Energy          =   -1331.8909250331444127 [Eh]
	-----------------------------------------------------------

  Dipole Moment: [D]
     X:    -1.1543      Y:     1.8655      Z:     0.6874     Total:     2.2989

*** Psi4 exiting successfully. Buy a developer a beer!
