                               Psi4 1.3.2 release

  ==> Input File <==

--------------------------------------------------------------------------
#psi4
#
memory 32 gb

molecule  {
0 1
  P       -2.2900960    -0.9400430     0.3446780
  O       -0.9821530    -0.2015620     0.9382890
  O        1.3422500    -1.6754830     1.2308510
  O        0.0787050     2.3596040     0.4621680
  O        3.0685150    -2.1870720    -0.8085900
  O        2.8473350     2.5031130     0.3715350
  O        4.1956880     0.4353970    -0.9728740
  O       -2.8445232     0.0483547    -0.8806229
  O       -3.2591210    -0.7232820     1.6216710
  O       -2.1189930    -2.3436440    -0.0996680
  C        0.1181620     0.0300090     0.0163190
  C        0.9532920    -1.2442050    -0.0757250
  C        0.8985890     1.2026440     0.5648510
  C        2.2596600    -1.0143070    -0.8180370
  C        2.1770750     1.3964720    -0.2280410
  C        3.0258420     0.1487050    -0.2103220
  C       -3.1242130     1.4315980    -0.4888860
  C       -3.5253952     2.0157843    -1.8201963
  H       -0.2830920     0.2988010    -0.9702380
  H        0.3702690    -2.0293640    -0.5720320
  H        1.1571200     0.9978770     1.6121560
  H        2.0609340    -0.7886600    -1.8727560
  H        1.9169870     1.6362870    -1.2735830
  H        3.2958550    -0.0945320     0.8276460
  H        0.5217750    -1.8880320     1.7115100
  H        0.6655400     3.1093110     0.6831840
  H        2.9735430    -2.5473740     0.0946540
  H        3.7214290     2.5491860    -0.0588690
  H        4.6397270    -0.4238340    -1.0970870
  H       -3.8083950    -1.5223380     1.7347280
  H       -3.9305460     1.4455410     0.2493860
  H       -2.2297620     1.8928800    -0.0590960
  H       -3.8005210     3.1308820    -1.6026710
  H       -2.7171960     2.0533230    -2.5048750
  H       -4.4009440     1.5743230    -2.2127240
units angstrom
no_reorient  #important for SAPT in psi4, default
symmetry c1  #important for SAPT in psi4, default
}

set PROPERTIES_ORIGIN ["COM"]
properties('MP2/aug-cc-pvtz', properties = ['dipole'])
--------------------------------------------------------------------------

    Molecular point group: c1
  Charge       = 0
  Multiplicity = 1
  Basis Set: AUG-CC-PVTZ
    Blend: AUG-CC-PVTZ
  Basis Set: (AUG-CC-PVTZ AUX)
    Blend: AUG-CC-PVTZ-JKFIT

    Orbital Energies [Eh]
    ---------------------

    Doubly Occupied:

       1A    -80.123486     2A    -20.620557     3A    -20.612447
       4A    -20.598335     5A    -20.584573     6A    -20.577461
       7A    -20.575484     8A    -20.574765     9A    -20.574212
      10A    -20.526328    11A    -11.322552    12A    -11.304946
      13A    -11.300328    14A    -11.299798    15A    -11.297544
      16A    -11.294820    17A    -11.292249    18A    -11.226538
      19A     -7.638048    20A     -5.536568    21A     -5.535883
      22A     -5.535004    23A     -1.458064    24A     -1.411939
      25A     -1.396936    26A     -1.394312    27A     -1.379431
      28A     -1.372492    29A     -1.364858    30A     -1.354666
      31A     -1.306347    32A     -1.120358    33A     -1.032353
      34A     -1.013418    35A     -1.004550    36A     -0.880327
      37A     -0.860340    38A     -0.858682    39A     -0.825372
      40A     -0.811965    41A     -0.752849    42A     -0.745847
      43A     -0.731850    44A     -0.724982    45A     -0.708715
      46A     -0.687588    47A     -0.678952    48A     -0.674187
      49A     -0.664611    50A     -0.662340    51A     -0.644439
      52A     -0.636466    53A     -0.626490    54A     -0.611961
      55A     -0.605542    56A     -0.599475    57A     -0.582599
      58A     -0.575690    59A     -0.569633    60A     -0.561250
      61A     -0.557736    62A     -0.550309    63A     -0.537714
      64A     -0.534290    65A     -0.528534    66A     -0.518917
      67A     -0.508501    68A     -0.505320    69A     -0.498952
      70A     -0.485783    71A     -0.478636    72A     -0.474504
      73A     -0.463454    74A     -0.456626    75A     -0.451614
      76A     -0.437288

  @DF-RHF Final Energy: -1327.84482314911520

   => Energetics <=

    Nuclear Repulsion Energy =           1770.2392889489117351
    One-Electron Energy =               -5352.5042634735045795
    Two-Electron Energy =                2254.4201513754774169
    Total Energy =                      -1327.8448231491152001
  Basis Set: (AUG-CC-PVTZ AUX)
    Blend: AUG-CC-PVTZ-RI
    Molecular point group: c1

    Geometry (in Angstrom), charge = 0, multiplicity = 1:

       Center              X                  Y                   Z               Mass
    ------------   -----------------  -----------------  -----------------  -----------------
         P           -2.289570343145    -0.937985829639     0.350239403781    30.973761998420
         O           -0.981627343145    -0.199504829639     0.943850403781    15.994914619570
         O            1.342775656855    -1.673425829639     1.236412403781    15.994914619570
         O            0.079230656855     2.361661170361     0.467729403781    15.994914619570
         O            3.069040656855    -2.185014829639    -0.803028596219    15.994914619570
         O            2.847860656855     2.505170170361     0.377096403781    15.994914619570
         O            4.196213656855     0.437454170361    -0.967312596219    15.994914619570
         O           -2.843997543145     0.050411870361    -0.875061496219    15.994914619570
         O           -3.258595343145    -0.721224829639     1.627232403781    15.994914619570
         O           -2.118467343145    -2.341586829639    -0.094106596219    15.994914619570
         C            0.118687656855     0.032066170361     0.021880403781    12.000000000000
         C            0.953817656855    -1.242147829639    -0.070163596219    12.000000000000
         C            0.899114656855     1.204701170361     0.570412403781    12.000000000000
         C            2.260185656855    -1.012249829639    -0.812475596219    12.000000000000
         C            2.177600656855     1.398529170361    -0.222479596219    12.000000000000
         C            3.026367656855     0.150762170361    -0.204760596219    12.000000000000
         C           -3.123687343145     1.433655170361    -0.483324596219    12.000000000000
         C           -3.524869543145     2.017841470361    -1.814634896219    12.000000000000
         H           -0.282566343145     0.300858170361    -0.964676596219     1.007825032230
         H            0.370794656855    -2.027306829639    -0.566470596219     1.007825032230
         H            1.157645656855     0.999934170361     1.617717403781     1.007825032230
         H            2.061459656855    -0.786602829639    -1.867194596219     1.007825032230
         H            1.917512656855     1.638344170361    -1.268021596219     1.007825032230
         H            3.296380656855    -0.092474829639     0.833207403781     1.007825032230
         H            0.522300656855    -1.885974829639     1.717071403781     1.007825032230
         H            0.666065656855     3.111368170361     0.688745403781     1.007825032230
         H            2.974068656855    -2.545316829639     0.100215403781     1.007825032230
         H            3.721954656855     2.551243170361    -0.053307596219     1.007825032230
         H            4.640252656855    -0.421776829639    -1.091525596219     1.007825032230
         H           -3.807869343145    -1.520280829639     1.740289403781     1.007825032230
         H           -3.930020343145     1.447598170361     0.254947403781     1.007825032230
         H           -2.229236343145     1.894937170361    -0.053534596219     1.007825032230
         H           -3.799995343145     3.132939170361    -1.597109596219     1.007825032230
         H           -2.716670343145     2.055380170361    -2.499313596219     1.007825032230
         H           -4.400418343145     1.576380170361    -2.207162596219     1.007825032230

  Basis Set: AUG-CC-PVTZ
    Blend: AUG-CC-PVTZ
  Basis Set: (AUG-CC-PVTZ AUX)
    Blend: AUG-CC-PVTZ-JKFIT
	 Reference Energy          =   -1327.8448231491152001 [Eh]
	 Singles Energy            =      -0.0000000000000000 [Eh]
	 Same-Spin Energy          =      -1.0159952003032355 [Eh]
	 Opposite-Spin Energy      =      -3.0796596736256312 [Eh]
	 Correlation Energy        =      -4.0956548739288667 [Eh]
	 Total Energy              =   -1331.9404780230440792 [Eh]

	 ================> DF-SCS-MP2 Energies <==================
	-----------------------------------------------------------
	 SCS Same-Spin Scale       =       0.3333333333333333 [-]
	 SCS Opposite-Spin Scale   =       1.2000000000000000 [-]
	 SCS Same-Spin Energy      =      -0.3386650667677452 [Eh]
	 SCS Opposite-Spin Energy  =      -3.6955916083507572 [Eh]
	 SCS Correlation Energy    =      -4.0342566751185025 [Eh]
	 SCS Total Energy          =   -1331.8790798242337132 [Eh]
	-----------------------------------------------------------

  Dipole Moment: [D]
     X:    -0.9228      Y:     1.6047      Z:     0.9797     Total:     2.0944

*** Psi4 exiting successfully. Buy a developer a beer!
