                               Psi4 1.3.2 release

  ==> Input File <==

--------------------------------------------------------------------------
#psi4
#
memory 32 gb

molecule  {
0 1
  P       -2.2900960    -0.9400430     0.3446780
  O       -0.9780200    -0.2134129     0.9401575
  O        1.3422500    -1.6754830     1.2308510
  O        0.0787050     2.3596040     0.4621680
  O        3.0685150    -2.1870720    -0.8085900
  O        2.8473350     2.5031130     0.3715350
  O        4.1956880     0.4353970    -0.9728740
  O       -2.8268630     0.0333510    -0.8075310
  O       -3.2591210    -0.7232820     1.6216710
  O       -2.1189930    -2.3436440    -0.0996680
  C        0.1181620     0.0300090     0.0163190
  C        0.9450804    -1.2501418    -0.0670805
  C        0.8985890     1.2026440     0.5648510
  C        2.2596600    -1.0143070    -0.8180370
  C        2.1770750     1.3964720    -0.2280410
  C        3.0258420     0.1487050    -0.2103220
  C       -3.1242130     1.4315980    -0.4888860
  C       -3.5363170     2.0851650    -1.7841190
  H       -0.2830920     0.2988010    -0.9702380
  H        0.3702690    -2.0293640    -0.5720320
  H        1.1571200     0.9978770     1.6121560
  H        2.0609340    -0.7886600    -1.8727560
  H        1.9169870     1.6362870    -1.2735830
  H        3.2958550    -0.0945320     0.8276460
  H        0.5217750    -1.8880320     1.7115100
  H        0.6655400     3.1093110     0.6831840
  H        2.9735430    -2.5473740     0.0946540
  H        3.7214290     2.5491860    -0.0588690
  H        4.6397270    -0.4238340    -1.0970870
  H       -3.8083950    -1.5223380     1.7347280
  H       -3.9305460     1.4455410     0.2493860
  H       -2.2297620     1.8928800    -0.0590960
  H       -3.8005210     3.1308820    -1.6026710
  H       -2.7171960     2.0533230    -2.5048750
  H       -4.4009440     1.5743230    -2.2127240
units angstrom
no_reorient  #important for SAPT in psi4, default
symmetry c1  #important for SAPT in psi4, default
}

set PROPERTIES_ORIGIN ["COM"]
properties('MP2/aug-cc-pvtz', properties = ['dipole'])
--------------------------------------------------------------------------

    Molecular point group: c1
  Charge       = 0
  Multiplicity = 1
  Basis Set: AUG-CC-PVTZ
    Blend: AUG-CC-PVTZ
  Basis Set: (AUG-CC-PVTZ AUX)
    Blend: AUG-CC-PVTZ-JKFIT

    Orbital Energies [Eh]
    ---------------------

    Doubly Occupied:

       1A    -80.116710     2A    -20.614631     3A    -20.606670
       4A    -20.599370     5A    -20.584033     6A    -20.576800
       7A    -20.574151     8A    -20.573952     9A    -20.573740
      10A    -20.522658    11A    -11.320573    12A    -11.302942
      13A    -11.299679    14A    -11.299151    15A    -11.298860
      16A    -11.296708    17A    -11.291225    18A    -11.230055
      19A     -7.632178    20A     -5.530682    21A     -5.530312
      22A     -5.529110    23A     -1.460426    24A     -1.411658
      25A     -1.395125    26A     -1.393225    27A     -1.387056
      28A     -1.373509    29A     -1.364365    30A     -1.353912
      31A     -1.303244    32A     -1.117989    33A     -1.040677
      34A     -1.011995    35A     -1.001866    36A     -0.880084
      37A     -0.865049    38A     -0.859123    39A     -0.822290
      40A     -0.810699    41A     -0.751984    42A     -0.745364
      43A     -0.731776    44A     -0.729086    45A     -0.707824
      46A     -0.687449    47A     -0.678313    48A     -0.673849
      49A     -0.662115    50A     -0.660862    51A     -0.643355
      52A     -0.635118    53A     -0.627163    54A     -0.615737
      55A     -0.603895    56A     -0.598504    57A     -0.581565
      58A     -0.575469    59A     -0.571624    60A     -0.559602
      61A     -0.556759    62A     -0.549333    63A     -0.541353
      64A     -0.536591    65A     -0.530623    66A     -0.521586
      67A     -0.512895    68A     -0.503743    69A     -0.497109
      70A     -0.483910    71A     -0.479747    72A     -0.476133
      73A     -0.461880    74A     -0.455827    75A     -0.449845
      76A     -0.435931

  @DF-RHF Final Energy: -1327.86155680382717

   => Energetics <=

    Nuclear Repulsion Energy =           1772.4469974546516369
    One-Electron Energy =               -5357.0363067705220601
    Two-Electron Energy =                2256.7277525120430255
    Total Energy =                      -1327.8615568038271704
  Basis Set: (AUG-CC-PVTZ AUX)
    Blend: AUG-CC-PVTZ-RI
    Molecular point group: c1

    Geometry (in Angstrom), charge = 0, multiplicity = 1:

       Center              X                  Y                   Z               Mass
    ------------   -----------------  -----------------  -----------------  -----------------
         P           -2.289983379152    -0.939137633402     0.344214128987    30.973761998420
         O           -0.977907379152    -0.212507533402     0.939693628987    15.994914619570
         O            1.342362620848    -1.674577633402     1.230387128987    15.994914619570
         O            0.078817620848     2.360509366598     0.461704128987    15.994914619570
         O            3.068627620848    -2.186166633402    -0.809053871013    15.994914619570
         O            2.847447620848     2.504018366598     0.371071128987    15.994914619570
         O            4.195800620848     0.436302366598    -0.973337871013    15.994914619570
         O           -2.826750379152     0.034256366598    -0.807994871013    15.994914619570
         O           -3.259008379152    -0.722376633402     1.621207128987    15.994914619570
         O           -2.118880379152    -2.342738633402    -0.100131871013    15.994914619570
         C            0.118274620848     0.030914366598     0.015855128987    12.000000000000
         C            0.945193020848    -1.249236433402    -0.067544371013    12.000000000000
         C            0.898701620848     1.203549366598     0.564387128987    12.000000000000
         C            2.259772620848    -1.013401633402    -0.818500871013    12.000000000000
         C            2.177187620848     1.397377366598    -0.228504871013    12.000000000000
         C            3.025954620848     0.149610366598    -0.210785871013    12.000000000000
         C           -3.124100379152     1.432503366598    -0.489349871013    12.000000000000
         C           -3.536204379152     2.086070366598    -1.784582871013    12.000000000000
         H           -0.282979379152     0.299706366598    -0.970701871013     1.007825032230
         H            0.370381620848    -2.028458633402    -0.572495871013     1.007825032230
         H            1.157232620848     0.998782366598     1.611692128987     1.007825032230
         H            2.061046620848    -0.787754633402    -1.873219871013     1.007825032230
         H            1.917099620848     1.637192366598    -1.274046871013     1.007825032230
         H            3.295967620848    -0.093626633402     0.827182128987     1.007825032230
         H            0.521887620848    -1.887126633402     1.711046128987     1.007825032230
         H            0.665652620848     3.110216366598     0.682720128987     1.007825032230
         H            2.973655620848    -2.546468633402     0.094190128987     1.007825032230
         H            3.721541620848     2.550091366598    -0.059332871013     1.007825032230
         H            4.639839620848    -0.422928633402    -1.097550871013     1.007825032230
         H           -3.808282379152    -1.521432633402     1.734264128987     1.007825032230
         H           -3.930433379152     1.446446366598     0.248922128987     1.007825032230
         H           -2.229649379152     1.893785366598    -0.059559871013     1.007825032230
         H           -3.800408379152     3.131787366598    -1.603134871013     1.007825032230
         H           -2.717083379152     2.054228366598    -2.505338871013     1.007825032230
         H           -4.400831379152     1.575228366598    -2.213187871013     1.007825032230

  Basis Set: AUG-CC-PVTZ
    Blend: AUG-CC-PVTZ
  Basis Set: (AUG-CC-PVTZ AUX)
    Blend: AUG-CC-PVTZ-JKFIT
	 Reference Energy          =   -1327.8615568038271704 [Eh]
	 Singles Energy            =      -0.0000000000000000 [Eh]
	 Same-Spin Energy          =      -1.0145161251044410 [Eh]
	 Opposite-Spin Energy      =      -3.0758884527099641 [Eh]
	 Correlation Energy        =      -4.0904045778144056 [Eh]
	 Total Energy              =   -1331.9519613816414676 [Eh]

	 ================> DF-SCS-MP2 Energies <==================
	-----------------------------------------------------------
	 SCS Same-Spin Scale       =       0.3333333333333333 [-]
	 SCS Opposite-Spin Scale   =       1.2000000000000000 [-]
	 SCS Same-Spin Energy      =      -0.3381720417014803 [Eh]
	 SCS Opposite-Spin Energy  =      -3.6910661432519567 [Eh]
	 SCS Correlation Energy    =      -4.0292381849534369 [Eh]
	 SCS Total Energy          =   -1331.8907949887804989 [Eh]
	-----------------------------------------------------------

  Dipole Moment: [D]
     X:    -1.1213      Y:     1.8848      Z:     0.7378     Total:     2.3139

*** Psi4 exiting successfully. Buy a developer a beer!
