                               Psi4 1.3.2 release

  ==> Input File <==

--------------------------------------------------------------------------
#psi4
#
memory 32 gb

molecule  {
0 1
  P       -2.2685478    -0.8886129     0.3535478
  O       -0.9821530    -0.2015620     0.9382890
  O        1.3422500    -1.6754830     1.2308510
  O        0.0787050     2.3596040     0.4621680
  O        3.0685150    -2.1870720    -0.8085900
  O        2.8473350     2.5031130     0.3715350
  O        4.1956880     0.4353970    -0.9728740
  O       -2.8268630     0.0333510    -0.8075310
  O       -3.2591210    -0.7232820     1.6216710
  O       -2.1189930    -2.3436440    -0.0996680
  C        0.1181620     0.0300090     0.0163190
  C        0.9532920    -1.2442050    -0.0757250
  C        0.8985890     1.2026440     0.5648510
  C        2.2596600    -1.0143070    -0.8180370
  C        2.1770750     1.3964720    -0.2280410
  C        3.0258420     0.1487050    -0.2103220
  C       -3.1242130     1.4315980    -0.4888860
  C       -3.5363170     2.0851650    -1.7841190
  H       -0.2830920     0.2988010    -0.9702380
  H        0.3702690    -2.0293640    -0.5720320
  H        1.1571200     0.9978770     1.6121560
  H        2.0609340    -0.7886600    -1.8727560
  H        1.9169870     1.6362870    -1.2735830
  H        3.2958550    -0.0945320     0.8276460
  H        0.5217750    -1.8880320     1.7115100
  H        0.6655400     3.1093110     0.6831840
  H        2.9735430    -2.5473740     0.0946540
  H        3.7214290     2.5491860    -0.0588690
  H        4.6397270    -0.4238340    -1.0970870
  H       -3.8231451    -1.5076550     1.7617076
  H       -3.9305460     1.4455410     0.2493860
  H       -2.2297620     1.8928800    -0.0590960
  H       -3.8005210     3.1308820    -1.6026710
  H       -2.7171960     2.0533230    -2.5048750
  H       -4.4009440     1.5743230    -2.2127240
units angstrom
no_reorient  #important for SAPT in psi4, default
symmetry c1  #important for SAPT in psi4, default
}

set PROPERTIES_ORIGIN ["COM"]
properties('MP2/aug-cc-pvtz', properties = ['dipole'])
--------------------------------------------------------------------------

    Molecular point group: c1
  Charge       = 0
  Multiplicity = 1
  Basis Set: AUG-CC-PVTZ
    Blend: AUG-CC-PVTZ
  Basis Set: (AUG-CC-PVTZ AUX)
    Blend: AUG-CC-PVTZ-JKFIT

    Orbital Energies [Eh]
    ---------------------

    Doubly Occupied:

       1A    -80.116693     2A    -20.616042     3A    -20.609366
       4A    -20.602918     5A    -20.584705     6A    -20.578917
       7A    -20.576796     8A    -20.575858     9A    -20.575543
      10A    -20.510435    11A    -11.327017    12A    -11.305451
      13A    -11.302261    14A    -11.302224    15A    -11.301035
      16A    -11.299241    17A    -11.293179    18A    -11.231795
      19A     -7.631718    20A     -5.530323    21A     -5.530065
      22A     -5.528328    23A     -1.469878    24A     -1.414013
      25A     -1.400167    26A     -1.395628    27A     -1.388373
      28A     -1.377204    29A     -1.366081    30A     -1.355888
      31A     -1.272103    32A     -1.123036    33A     -1.043430
      34A     -1.017494    35A     -1.005882    36A     -0.885122
      37A     -0.868376    38A     -0.861931    39A     -0.826376
      40A     -0.813886    41A     -0.755421    42A     -0.750358
      43A     -0.736107    44A     -0.734657    45A     -0.711133
      46A     -0.690063    47A     -0.679752    48A     -0.675022
      49A     -0.663636    50A     -0.658470    51A     -0.646533
      52A     -0.638834    53A     -0.629441    54A     -0.618369
      55A     -0.607655    56A     -0.600196    57A     -0.579885
      58A     -0.575316    59A     -0.574680    60A     -0.560034
      61A     -0.555298    62A     -0.549630    63A     -0.539209
      64A     -0.536596    65A     -0.533496    66A     -0.522373
      67A     -0.516254    68A     -0.506859    69A     -0.496898
      70A     -0.488564    71A     -0.476622    72A     -0.460214
      73A     -0.458145    74A     -0.456133    75A     -0.448925
      76A     -0.435689

  @DF-RHF Final Energy: -1327.85671360224842

   => Energetics <=

    Nuclear Repulsion Energy =           1774.0568362282911039
    One-Electron Energy =               -5360.0646057878548163
    Two-Electron Energy =                2258.1510559573152932
    Total Energy =                      -1327.8567136022484192
  Basis Set: (AUG-CC-PVTZ AUX)
    Blend: AUG-CC-PVTZ-RI
    Molecular point group: c1

    Geometry (in Angstrom), charge = 0, multiplicity = 1:

       Center              X                  Y                   Z               Mass
    ------------   -----------------  -----------------  -----------------  -----------------
         P           -2.270813131984    -0.894194274688     0.352499673286    30.973761998420
         O           -0.984418331984    -0.207143374688     0.937240873286    15.994914619570
         O            1.339984668016    -1.681064374688     1.229802873286    15.994914619570
         O            0.076439668016     2.354022625312     0.461119873286    15.994914619570
         O            3.066249668016    -2.192653374688    -0.809638126714    15.994914619570
         O            2.845069668016     2.497531625312     0.370486873286    15.994914619570
         O            4.193422668016     0.429815625312    -0.973922126714    15.994914619570
         O           -2.829128331984     0.027769625312    -0.808579126714    15.994914619570
         O           -3.261386331984    -0.728863374688     1.620622873286    15.994914619570
         O           -2.121258331984    -2.349225374688    -0.100716126714    15.994914619570
         C            0.115896668016     0.024427625312     0.015270873286    12.000000000000
         C            0.951026668016    -1.249786374688    -0.076773126714    12.000000000000
         C            0.896323668016     1.197062625312     0.563802873286    12.000000000000
         C            2.257394668016    -1.019888374688    -0.819085126714    12.000000000000
         C            2.174809668016     1.390890625312    -0.229089126714    12.000000000000
         C            3.023576668016     0.143123625312    -0.211370126714    12.000000000000
         C           -3.126478331984     1.426016625312    -0.489934126714    12.000000000000
         C           -3.538582331984     2.079583625312    -1.785167126714    12.000000000000
         H           -0.285357331984     0.293219625312    -0.971286126714     1.007825032230
         H            0.368003668016    -2.034945374688    -0.573080126714     1.007825032230
         H            1.154854668016     0.992295625312     1.611107873286     1.007825032230
         H            2.058668668016    -0.794241374688    -1.873804126714     1.007825032230
         H            1.914721668016     1.630705625312    -1.274631126714     1.007825032230
         H            3.293589668016    -0.100113374688     0.826597873286     1.007825032230
         H            0.519509668016    -1.893613374688     1.710461873286     1.007825032230
         H            0.663274668016     3.103729625312     0.682135873286     1.007825032230
         H            2.971277668016    -2.552955374688     0.093605873286     1.007825032230
         H            3.719163668016     2.543604625312    -0.059917126714     1.007825032230
         H            4.637461668016    -0.429415374688    -1.098135126714     1.007825032230
         H           -3.825410431984    -1.513236374688     1.760659473286     1.007825032230
         H           -3.932811331984     1.439959625312     0.248337873286     1.007825032230
         H           -2.232027331984     1.887298625312    -0.060144126714     1.007825032230
         H           -3.802786331984     3.125300625312    -1.603719126714     1.007825032230
         H           -2.719461331984     2.047741625312    -2.505923126714     1.007825032230
         H           -4.403209331984     1.568741625312    -2.213772126714     1.007825032230

  Basis Set: AUG-CC-PVTZ
    Blend: AUG-CC-PVTZ
  Basis Set: (AUG-CC-PVTZ AUX)
    Blend: AUG-CC-PVTZ-JKFIT
	 Reference Energy          =   -1327.8567136022484192 [Eh]
	 Singles Energy            =      -0.0000000000000000 [Eh]
	 Same-Spin Energy          =      -1.0148575393808184 [Eh]
	 Opposite-Spin Energy      =      -3.0762600343899762 [Eh]
	 Correlation Energy        =      -4.0911175737707950 [Eh]
	 Total Energy              =   -1331.9478311760192355 [Eh]

	 ================> DF-SCS-MP2 Energies <==================
	-----------------------------------------------------------
	 SCS Same-Spin Scale       =       0.3333333333333333 [-]
	 SCS Opposite-Spin Scale   =       1.2000000000000000 [-]
	 SCS Same-Spin Energy      =      -0.3382858464602728 [Eh]
	 SCS Opposite-Spin Energy  =      -3.6915120412679712 [Eh]
	 SCS Correlation Energy    =      -4.0297978877282441 [Eh]
	 SCS Total Energy          =   -1331.8865114899765558 [Eh]
	-----------------------------------------------------------

  Dipole Moment: [D]
     X:    -0.8046      Y:     2.4246      Z:     0.7776     Total:     2.6703

*** Psi4 exiting successfully. Buy a developer a beer!
