                               Psi4 1.3.2 release

  ==> Input File <==

--------------------------------------------------------------------------
#psi4
#
memory 32 gb

molecule  {
0 1
  P       -2.2900960    -0.9400430     0.3446780
  O       -0.9821530    -0.2015620     0.9382890
  O        1.3422500    -1.6754830     1.2308510
  O        0.0787050     2.3596040     0.4621680
  O        3.0685150    -2.1870720    -0.8085900
  O        2.8473350     2.5031130     0.3715350
  O        4.1956880     0.4353970    -0.9728740
  O       -2.8268630     0.0333510    -0.8075310
  O       -3.2591210    -0.7232820     1.6216710
  O       -2.1189930    -2.3436440    -0.0996680
  C        0.1181620     0.0300090     0.0163190
  C        0.9427437    -1.2506948    -0.0806260
  C        0.8878729     1.2102477     0.5636837
  C        2.2596600    -1.0143070    -0.8180370
  C        2.1770750     1.3964720    -0.2280410
  C        3.0258420     0.1487050    -0.2103220
  C       -3.1242130     1.4315980    -0.4888860
  C       -3.5363170     2.0851650    -1.7841190
  H       -0.2830920     0.2988010    -0.9702380
  H        0.3702690    -2.0293640    -0.5720320
  H        1.1571200     0.9978770     1.6121560
  H        2.0609340    -0.7886600    -1.8727560
  H        1.9169870     1.6362870    -1.2735830
  H        3.2958550    -0.0945320     0.8276460
  H        0.5217750    -1.8880320     1.7115100
  H        0.6655400     3.1093110     0.6831840
  H        2.9735430    -2.5473740     0.0946540
  H        3.7214290     2.5491860    -0.0588690
  H        4.6397270    -0.4238340    -1.0970870
  H       -3.8083950    -1.5223380     1.7347280
  H       -3.9305460     1.4455410     0.2493860
  H       -2.2297620     1.8928800    -0.0590960
  H       -3.8005210     3.1308820    -1.6026710
  H       -2.7171960     2.0533230    -2.5048750
  H       -4.4009440     1.5743230    -2.2127240
units angstrom
no_reorient  #important for SAPT in psi4, default
symmetry c1  #important for SAPT in psi4, default
}

set PROPERTIES_ORIGIN ["COM"]
properties('MP2/aug-cc-pvtz', properties = ['dipole'])
--------------------------------------------------------------------------

    Molecular point group: c1
  Charge       = 0
  Multiplicity = 1
  Basis Set: AUG-CC-PVTZ
    Blend: AUG-CC-PVTZ
  Basis Set: (AUG-CC-PVTZ AUX)
    Blend: AUG-CC-PVTZ-JKFIT

    Orbital Energies [Eh]
    ---------------------

    Doubly Occupied:

       1A    -80.116879     2A    -20.614700     3A    -20.606595
       4A    -20.598986     5A    -20.582658     6A    -20.576556
       7A    -20.574908     8A    -20.574280     9A    -20.574024
      10A    -20.523511    11A    -11.320528    12A    -11.303362
      13A    -11.299583    14A    -11.299417    15A    -11.299041
      16A    -11.296451    17A    -11.291340    18A    -11.230014
      19A     -7.632336    20A     -5.530843    21A     -5.530467
      22A     -5.529269    23A     -1.460242    24A     -1.410568
      25A     -1.394592    26A     -1.393803    27A     -1.386936
      28A     -1.373400    29A     -1.364740    30A     -1.353977
      31A     -1.303923    32A     -1.117303    33A     -1.040603
      34A     -1.011874    35A     -1.002081    36A     -0.880159
      37A     -0.864992    38A     -0.859600    39A     -0.822196
      40A     -0.809502    41A     -0.752037    42A     -0.745062
      43A     -0.732284    44A     -0.728607    45A     -0.707671
      46A     -0.688326    47A     -0.677114    48A     -0.673670
      49A     -0.662368    50A     -0.660712    51A     -0.643782
      52A     -0.635338    53A     -0.627091    54A     -0.615359
      55A     -0.603972    56A     -0.598845    57A     -0.582545
      58A     -0.575595    59A     -0.571010    60A     -0.559836
      61A     -0.556997    62A     -0.548677    63A     -0.541324
      64A     -0.536910    65A     -0.529630    66A     -0.520927
      67A     -0.512904    68A     -0.503698    69A     -0.497091
      70A     -0.483622    71A     -0.480016    72A     -0.476623
      73A     -0.461120    74A     -0.455688    75A     -0.449785
      76A     -0.437123

  @DF-RHF Final Energy: -1327.86127700248653

   => Energetics <=

    Nuclear Repulsion Energy =           1772.2962156228270487
    One-Electron Energy =               -5356.7357807487442187
    Two-Electron Energy =                2256.5782881234308661
    Total Energy =                      -1327.8612770024865313
  Basis Set: (AUG-CC-PVTZ AUX)
    Blend: AUG-CC-PVTZ-RI
    Molecular point group: c1

    Geometry (in Angstrom), charge = 0, multiplicity = 1:

       Center              X                  Y                   Z               Mass
    ------------   -----------------  -----------------  -----------------  -----------------
         P           -2.289210138182    -0.940089384994     0.344930783044    30.973761998420
         O           -0.981267138182    -0.201608384994     0.938541783044    15.994914619570
         O            1.343135861818    -1.675529384994     1.231103783044    15.994914619570
         O            0.079590861818     2.359557615006     0.462420783044    15.994914619570
         O            3.069400861818    -2.187118384994    -0.808337216956    15.994914619570
         O            2.848220861818     2.503066615006     0.371787783044    15.994914619570
         O            4.196573861818     0.435350615006    -0.972621216956    15.994914619570
         O           -2.825977138182     0.033304615006    -0.807278216956    15.994914619570
         O           -3.258235138182    -0.723328384994     1.621923783044    15.994914619570
         O           -2.118107138182    -2.343690384994    -0.099415216956    15.994914619570
         C            0.119047861818     0.029962615006     0.016571783044    12.000000000000
         C            0.943629561818    -1.250741184994    -0.080373216956    12.000000000000
         C            0.888758761818     1.210201315006     0.563936483044    12.000000000000
         C            2.260545861818    -1.014353384994    -0.817784216956    12.000000000000
         C            2.177960861818     1.396425615006    -0.227788216956    12.000000000000
         C            3.026727861818     0.148658615006    -0.210069216956    12.000000000000
         C           -3.123327138182     1.431551615006    -0.488633216956    12.000000000000
         C           -3.535431138182     2.085118615006    -1.783866216956    12.000000000000
         H           -0.282206138182     0.298754615006    -0.969985216956     1.007825032230
         H            0.371154861818    -2.029410384994    -0.571779216956     1.007825032230
         H            1.158005861818     0.997830615006     1.612408783044     1.007825032230
         H            2.061819861818    -0.788706384994    -1.872503216956     1.007825032230
         H            1.917872861818     1.636240615006    -1.273330216956     1.007825032230
         H            3.296740861818    -0.094578384994     0.827898783044     1.007825032230
         H            0.522660861818    -1.888078384994     1.711762783044     1.007825032230
         H            0.666425861818     3.109264615006     0.683436783044     1.007825032230
         H            2.974428861818    -2.547420384994     0.094906783044     1.007825032230
         H            3.722314861818     2.549139615006    -0.058616216956     1.007825032230
         H            4.640612861818    -0.423880384994    -1.096834216956     1.007825032230
         H           -3.807509138182    -1.522384384994     1.734980783044     1.007825032230
         H           -3.929660138182     1.445494615006     0.249638783044     1.007825032230
         H           -2.228876138182     1.892833615006    -0.058843216956     1.007825032230
         H           -3.799635138182     3.130835615006    -1.602418216956     1.007825032230
         H           -2.716310138182     2.053276615006    -2.504622216956     1.007825032230
         H           -4.400058138182     1.574276615006    -2.212471216956     1.007825032230

  Basis Set: AUG-CC-PVTZ
    Blend: AUG-CC-PVTZ
  Basis Set: (AUG-CC-PVTZ AUX)
    Blend: AUG-CC-PVTZ-JKFIT
	 Reference Energy          =   -1327.8612770024865313 [Eh]
	 Singles Energy            =      -0.0000000000000000 [Eh]
	 Same-Spin Energy          =      -1.0145001863446697 [Eh]
	 Opposite-Spin Energy      =      -3.0759255888576238 [Eh]
	 Correlation Energy        =      -4.0904257752022932 [Eh]
	 Total Energy              =   -1331.9517027776887517 [Eh]

	 ================> DF-SCS-MP2 Energies <==================
	-----------------------------------------------------------
	 SCS Same-Spin Scale       =       0.3333333333333333 [-]
	 SCS Opposite-Spin Scale   =       1.2000000000000000 [-]
	 SCS Same-Spin Energy      =      -0.3381667287815565 [Eh]
	 SCS Opposite-Spin Energy  =      -3.6911107066291482 [Eh]
	 SCS Correlation Energy    =      -4.0292774354107044 [Eh]
	 SCS Total Energy          =   -1331.8905544378972081 [Eh]
	-----------------------------------------------------------

  Dipole Moment: [D]
     X:    -1.1450      Y:     1.8955      Z:     0.7098     Total:     2.3254

*** Psi4 exiting successfully. Buy a developer a beer!
