                               Psi4 1.4a3.dev225

  ==> Input File <==

--------------------------------------------------------------------------
#psi4
#
memory 32 gb

molecule  {
0 1
  P       -2.3219140    -1.0563120    -0.0968450
  O       -1.0285840    -0.5623410     0.7549430
  O        1.3695440    -1.8069540     1.2202350
  O       -0.1592450     2.1412630     0.5207450
  O        3.3269040    -2.0858120    -0.6453880
  O        2.5724350     2.5270130     0.6374560
  O        4.2203020     0.6406430    -0.6358120
  O       -2.8737010     0.2643620    -0.8096810
  O       -3.3065970    -1.3497020     1.1531960
  O       -2.1044560    -2.1814480    -1.0350500
  C        0.1200290    -0.1583450    -0.0432010
  C        1.0698050    -1.3527180    -0.1046720
  C        0.7441670     1.0454510     0.6308160
  C        2.4193320    -0.9866070    -0.7068450
  C        2.0603010     1.3853380    -0.0470020
  C        3.0180900     0.2181970     0.0056710
  C       -3.2473180     1.4231610     0.0025120
  C       -3.2076300     2.6262440    -0.9075720
  H       -0.2047330     0.1313700    -1.0514980
  H        0.5965010    -2.1549610    -0.6866410
  H        0.9371260     0.8063110     1.6860210
  H        2.3054700    -0.7437210    -1.7704410
  H        1.8633300     1.6367370    -1.1028410
  H        3.2231229    -0.0536106     1.1039228
  H        0.5126160    -2.0057500     1.6426110
  H        0.3598300     2.9232990     0.7925780
  H        3.1793900    -2.4823080     0.2360710
  H        3.4672560     2.6739710     0.2770410
  H        4.7639490    -0.1654590    -0.7244900
  H       -3.7873380    -2.1826420     0.9908450
  H       -4.2474700     1.2335250     0.4005830
  H       -2.5352900     1.5309660     0.8217280
  H       -3.5402110     3.5125760    -0.3587690
  H       -2.1856630     2.7912820    -1.2511950
  H       -3.8637180     2.4807570    -1.7684970
units angstrom
no_reorient  #important for SAPT in psi4, default
symmetry c1  #important for SAPT in psi4, default
}

set PROPERTIES_ORIGIN ["COM"]
properties('MP2/aug-cc-pvtz', properties = ['dipole'])
--------------------------------------------------------------------------

    Molecular point group: c1
  Charge       = 0
  Multiplicity = 1
  Basis Set: AUG-CC-PVTZ
    Blend: AUG-CC-PVTZ
  Basis Set: (AUG-CC-PVTZ AUX)
    Blend: AUG-CC-PVTZ-JKFIT

    Orbital Energies [Eh]
    ---------------------

    Doubly Occupied:

       1A    -80.116843     2A    -20.615013     3A    -20.608100
       4A    -20.596046     5A    -20.583829     6A    -20.578535
       7A    -20.576235     8A    -20.575138     9A    -20.574657
      10A    -20.522558    11A    -11.321439    12A    -11.305297
      13A    -11.300874    14A    -11.300607    15A    -11.299097
      16A    -11.298420    17A    -11.296172    18A    -11.222927
      19A     -7.632106    20A     -5.530641    21A     -5.530138
      22A     -5.529077    23A     -1.458509    24A     -1.410877
      25A     -1.395506    26A     -1.392706    27A     -1.385213
      28A     -1.372876    29A     -1.364205    30A     -1.354452
      31A     -1.302742    32A     -1.118518    33A     -1.035524
      34A     -1.010298    35A     -1.003702    36A     -0.876721
      37A     -0.862159    38A     -0.859626    39A     -0.821985
      40A     -0.808358    41A     -0.754312    42A     -0.745148
      43A     -0.728961    44A     -0.725913    45A     -0.705075
      46A     -0.686778    47A     -0.679198    48A     -0.674256
      49A     -0.661390    50A     -0.658938    51A     -0.642139
      52A     -0.637193    53A     -0.623565    54A     -0.613057
      55A     -0.604311    56A     -0.596084    57A     -0.580679
      58A     -0.577685    59A     -0.570184    60A     -0.559663
      61A     -0.555344    62A     -0.547906    63A     -0.538724
      64A     -0.537692    65A     -0.529965    66A     -0.517610
      67A     -0.508520    68A     -0.502800    69A     -0.494638
      70A     -0.487053    71A     -0.478687    72A     -0.475507
      73A     -0.462702    74A     -0.455935    75A     -0.451032
      76A     -0.436108

  @DF-RHF Final Energy: -1327.85855149205008

   => Energetics <=

    Nuclear Repulsion Energy =           1774.3244268486257624
    One-Electron Energy =               -5360.8610024812351185
    Two-Electron Energy =                2258.6780241405590459
    Total Energy =                      -1327.8585514920500827
  Basis Set: (AUG-CC-PVTZ AUX)
    Blend: AUG-CC-PVTZ-RI
    Molecular point group: c1

    Geometry (in Angstrom), charge = 0, multiplicity = 1:

       Center              X                  Y                   Z               Mass
    ------------   -----------------  -----------------  -----------------  -----------------
         P           -2.311183810704    -1.018491588488    -0.099456565532    30.973761998420
         O           -1.017853810704    -0.524520588488     0.752331434468    15.994914619570
         O            1.380274189296    -1.769133588488     1.217623434468    15.994914619570
         O           -0.148514810704     2.179083411512     0.518133434468    15.994914619570
         O            3.337634189296    -2.047991588488    -0.647999565532    15.994914619570
         O            2.583165189296     2.564833411512     0.634844434468    15.994914619570
         O            4.231032189296     0.678463411512    -0.638423565532    15.994914619570
         O           -2.862970810704     0.302182411512    -0.812292565532    15.994914619570
         O           -3.295866810704    -1.311881588488     1.150584434468    15.994914619570
         O           -2.093725810704    -2.143627588488    -1.037661565532    15.994914619570
         C            0.130759189296    -0.120524588488    -0.045812565532    12.000000000000
         C            1.080535189296    -1.314897588488    -0.107283565532    12.000000000000
         C            0.754897189296     1.083271411512     0.628204434468    12.000000000000
         C            2.430062189296    -0.948786588488    -0.709456565532    12.000000000000
         C            2.071031189296     1.423158411512    -0.049613565532    12.000000000000
         C            3.028820189296     0.256017411512     0.003059434468    12.000000000000
         C           -3.236587810704     1.460981411512    -0.000099565532    12.000000000000
         C           -3.196899810704     2.664064411512    -0.910183565532    12.000000000000
         H           -0.194002810704     0.169190411512    -1.054109565532     1.007825032230
         H            0.607231189296    -2.117140588488    -0.689252565532     1.007825032230
         H            0.947856189296     0.844131411512     1.683409434468     1.007825032230
         H            2.316200189296    -0.705900588488    -1.773052565532     1.007825032230
         H            1.874060189296     1.674557411512    -1.105452565532     1.007825032230
         H            3.233853089296    -0.015790188488     1.101311234468     1.007825032230
         H            0.523346189296    -1.967929588488     1.639999434468     1.007825032230
         H            0.370560189296     2.961119411512     0.789966434468     1.007825032230
         H            3.190120189296    -2.444487588488     0.233459434468     1.007825032230
         H            3.477986189296     2.711791411512     0.274429434468     1.007825032230
         H            4.774679189296    -0.127638588488    -0.727101565532     1.007825032230
         H           -3.776607810704    -2.144821588488     0.988233434468     1.007825032230
         H           -4.236739810704     1.271345411512     0.397971434468     1.007825032230
         H           -2.524559810704     1.568786411512     0.819116434468     1.007825032230
         H           -3.529480810704     3.550396411512    -0.361380565532     1.007825032230
         H           -2.174932810704     2.829102411512    -1.253806565532     1.007825032230
         H           -3.852987810704     2.518577411512    -1.771108565532     1.007825032230

  Basis Set: AUG-CC-PVTZ
    Blend: AUG-CC-PVTZ
  Basis Set: (AUG-CC-PVTZ AUX)
    Blend: AUG-CC-PVTZ-JKFIT
	 Reference Energy          =   -1327.8585514920500827 [Eh]
	 Singles Energy            =      -0.0000000000000000 [Eh]
	 Same-Spin Energy          =      -1.0148618019442768 [Eh]
	 Opposite-Spin Energy      =      -3.0770799310713786 [Eh]
	 Correlation Energy        =      -4.0919417330156556 [Eh]
	 Total Energy              =   -1331.9504932250656566 [Eh]

	 ================> DF-SCS-MP2 Energies <==================
	-----------------------------------------------------------
	 SCS Same-Spin Scale       =       0.3333333333333333 [-]
	 SCS Opposite-Spin Scale   =       1.2000000000000000 [-]
	 SCS Same-Spin Energy      =      -0.3382872673147589 [Eh]
	 SCS Opposite-Spin Energy  =      -3.6924959172856542 [Eh]
	 SCS Correlation Energy    =      -4.0307831846004127 [Eh]
	 SCS Total Energy          =   -1331.8893346766506056 [Eh]
	-----------------------------------------------------------

  Dipole Moment: [D]
     X:    -0.8569      Y:     1.4274      Z:     1.8544     Total:     2.4921

*** Psi4 exiting successfully. Buy a developer a beer!
