                               Psi4 1.3.2 release

  ==> Input File <==

--------------------------------------------------------------------------
#psi4
#
memory 32 gb

molecule  {
0 1
  P       -2.2900960    -0.9400430     0.3446780
  O       -0.9821530    -0.2015620     0.9382890
  O        1.3422500    -1.6754830     1.2308510
  O        0.0787050     2.3596040     0.4621680
  O        3.0685150    -2.1870720    -0.8085900
  O        2.8473350     2.5031130     0.3715350
  O        4.1956880     0.4353970    -0.9728740
  O       -2.8369733     0.0378011    -0.7989768
  O       -3.2665451    -0.7137699     1.6143447
  O       -2.1189930    -2.3436440    -0.0996680
  C        0.1181620     0.0300090     0.0163190
  C        0.9532920    -1.2442050    -0.0757250
  C        0.8985890     1.2026440     0.5648510
  C        2.2596600    -1.0143070    -0.8180370
  C        2.1770750     1.3964720    -0.2280410
  C        3.0258420     0.1487050    -0.2103220
  C       -3.1242130     1.4315980    -0.4888860
  C       -3.5363170     2.0851650    -1.7841190
  H       -0.2830920     0.2988010    -0.9702380
  H        0.3702690    -2.0293640    -0.5720320
  H        1.1571200     0.9978770     1.6121560
  H        2.0609340    -0.7886600    -1.8727560
  H        1.9169870     1.6362870    -1.2735830
  H        3.2958550    -0.0945320     0.8276460
  H        0.5217750    -1.8880320     1.7115100
  H        0.6655400     3.1093110     0.6831840
  H        2.9735430    -2.5473740     0.0946540
  H        3.7214290     2.5491860    -0.0588690
  H        4.6397270    -0.4238340    -1.0970870
  H       -3.8083950    -1.5223380     1.7347280
  H       -3.9305460     1.4455410     0.2493860
  H       -2.2297620     1.8928800    -0.0590960
  H       -3.8005210     3.1308820    -1.6026710
  H       -2.7171960     2.0533230    -2.5048750
  H       -4.4009440     1.5743230    -2.2127240
units angstrom
no_reorient  #important for SAPT in psi4, default
symmetry c1  #important for SAPT in psi4, default
}

set PROPERTIES_ORIGIN ["COM"]
properties('MP2/aug-cc-pvtz', properties = ['dipole'])
--------------------------------------------------------------------------

    Molecular point group: c1
  Charge       = 0
  Multiplicity = 1
  Basis Set: AUG-CC-PVTZ
    Blend: AUG-CC-PVTZ
  Basis Set: (AUG-CC-PVTZ AUX)
    Blend: AUG-CC-PVTZ-JKFIT

    Orbital Energies [Eh]
    ---------------------

    Doubly Occupied:

       1A    -80.117367     2A    -20.614669     3A    -20.607574
       4A    -20.598005     5A    -20.583476     6A    -20.576935
       7A    -20.574838     8A    -20.574266     9A    -20.573533
      10A    -20.524781    11A    -11.321178    12A    -11.303887
      13A    -11.299604    14A    -11.298840    15A    -11.297942
      16A    -11.296867    17A    -11.291635    18A    -11.229170
      19A     -7.632797    20A     -5.531309    21A     -5.530951
      22A     -5.529716    23A     -1.460619    24A     -1.411110
      25A     -1.394868    26A     -1.393142    27A     -1.386918
      28A     -1.373071    29A     -1.364144    30A     -1.354033
      31A     -1.304962    32A     -1.119329    33A     -1.039850
      34A     -1.012247    35A     -1.003700    36A     -0.880535
      37A     -0.865022    38A     -0.859279    39A     -0.821781
      40A     -0.810913    41A     -0.751908    42A     -0.745199
      43A     -0.731307    44A     -0.729211    45A     -0.707853
      46A     -0.687322    47A     -0.678508    48A     -0.674013
      49A     -0.662457    50A     -0.661128    51A     -0.643271
      52A     -0.635309    53A     -0.627245    54A     -0.615623
      55A     -0.603853    56A     -0.598711    57A     -0.582166
      58A     -0.575228    59A     -0.571396    60A     -0.559567
      61A     -0.556822    62A     -0.548571    63A     -0.541013
      64A     -0.536810    65A     -0.529945    66A     -0.521846
      67A     -0.512305    68A     -0.504293    69A     -0.496640
      70A     -0.484908    71A     -0.480230    72A     -0.476779
      73A     -0.462760    74A     -0.456041    75A     -0.450415
      76A     -0.436567

  @DF-RHF Final Energy: -1327.86131025957093

   => Energetics <=

    Nuclear Repulsion Energy =           1772.4861267216128908
    One-Electron Energy =               -5357.0907073184725959
    Two-Electron Energy =                2256.7432703372887772
    Total Energy =                      -1327.8613102595709279
  Basis Set: (AUG-CC-PVTZ AUX)
    Blend: AUG-CC-PVTZ-RI
    Molecular point group: c1

    Geometry (in Angstrom), charge = 0, multiplicity = 1:

       Center              X                  Y                   Z               Mass
    ------------   -----------------  -----------------  -----------------  -----------------
         P           -2.289122349730    -0.940818249308     0.344609810230    30.973761998420
         O           -0.981179349730    -0.202337249308     0.938220810230    15.994914619570
         O            1.343223650270    -1.676258249308     1.230782810230    15.994914619570
         O            0.079678650270     2.358828750692     0.462099810230    15.994914619570
         O            3.069488650270    -2.187847249308    -0.808658189770    15.994914619570
         O            2.848308650270     2.502337750692     0.371466810230    15.994914619570
         O            4.196661650270     0.434621750692    -0.972942189770    15.994914619570
         O           -2.835999649730     0.037025850692    -0.799044989770    15.994914619570
         O           -3.265571449730    -0.714545149308     1.614276510230    15.994914619570
         O           -2.118019349730    -2.344419249308    -0.099736189770    15.994914619570
         C            0.119135650270     0.029233750692     0.016250810230    12.000000000000
         C            0.954265650270    -1.244980249308    -0.075793189770    12.000000000000
         C            0.899562650270     1.201868750692     0.564782810230    12.000000000000
         C            2.260633650270    -1.015082249308    -0.818105189770    12.000000000000
         C            2.178048650270     1.395696750692    -0.228109189770    12.000000000000
         C            3.026815650270     0.147929750692    -0.210390189770    12.000000000000
         C           -3.123239349730     1.430822750692    -0.488954189770    12.000000000000
         C           -3.535343349730     2.084389750692    -1.784187189770    12.000000000000
         H           -0.282118349730     0.298025750692    -0.970306189770     1.007825032230
         H            0.371242650270    -2.030139249308    -0.572100189770     1.007825032230
         H            1.158093650270     0.997101750692     1.612087810230     1.007825032230
         H            2.061907650270    -0.789435249308    -1.872824189770     1.007825032230
         H            1.917960650270     1.635511750692    -1.273651189770     1.007825032230
         H            3.296828650270    -0.095307249308     0.827577810230     1.007825032230
         H            0.522748650270    -1.888807249308     1.711441810230     1.007825032230
         H            0.666513650270     3.108535750692     0.683115810230     1.007825032230
         H            2.974516650270    -2.548149249308     0.094585810230     1.007825032230
         H            3.722402650270     2.548410750692    -0.058937189770     1.007825032230
         H            4.640700650270    -0.424609249308    -1.097155189770     1.007825032230
         H           -3.807421349730    -1.523113249308     1.734659810230     1.007825032230
         H           -3.929572349730     1.444765750692     0.249317810230     1.007825032230
         H           -2.228788349730     1.892104750692    -0.059164189770     1.007825032230
         H           -3.799547349730     3.130106750692    -1.602739189770     1.007825032230
         H           -2.716222349730     2.052547750692    -2.504943189770     1.007825032230
         H           -4.399970349730     1.573547750692    -2.212792189770     1.007825032230

  Basis Set: AUG-CC-PVTZ
    Blend: AUG-CC-PVTZ
  Basis Set: (AUG-CC-PVTZ AUX)
    Blend: AUG-CC-PVTZ-JKFIT
	 Reference Energy          =   -1327.8613102595709279 [Eh]
	 Singles Energy            =      -0.0000000000000000 [Eh]
	 Same-Spin Energy          =      -1.0146520880146546 [Eh]
	 Opposite-Spin Energy      =      -3.0760864498003868 [Eh]
	 Correlation Energy        =      -4.0907385378150414 [Eh]
	 Total Energy              =   -1331.9520487973859417 [Eh]

	 ================> DF-SCS-MP2 Energies <==================
	-----------------------------------------------------------
	 SCS Same-Spin Scale       =       0.3333333333333333 [-]
	 SCS Opposite-Spin Scale   =       1.2000000000000000 [-]
	 SCS Same-Spin Energy      =      -0.3382173626715515 [Eh]
	 SCS Opposite-Spin Energy  =      -3.6913037397604640 [Eh]
	 SCS Correlation Energy    =      -4.0295211024320157 [Eh]
	 SCS Total Energy          =   -1331.8908313620029276 [Eh]
	-----------------------------------------------------------

  Dipole Moment: [D]
     X:    -1.0550      Y:     1.8007      Z:     0.7314     Total:     2.2115

*** Psi4 exiting successfully. Buy a developer a beer!
