                               Psi4 1.3.2 release

  ==> Input File <==

--------------------------------------------------------------------------
#psi4
#
memory 32 gb

molecule  {
0 1
  P       -2.2900960    -0.9400430     0.3446780
  O       -0.9821530    -0.2015620     0.9382890
  O        1.3422500    -1.6754830     1.2308510
  O        0.0787050     2.3596040     0.4621680
  O        3.0685150    -2.1870720    -0.8085900
  O        2.8473350     2.5031130     0.3715350
  O        4.1956880     0.4353970    -0.9728740
  O       -2.8268630     0.0333510    -0.8075310
  O       -3.2591210    -0.7232820     1.6216710
  O       -2.1189930    -2.3436440    -0.0996680
  C        0.1181620     0.0300090     0.0163190
  C        0.9773281    -1.2408467    -0.0815335
  C        0.8985890     1.2026440     0.5648510
  C        2.2596600    -1.0143070    -0.8180370
  C        2.1770750     1.3964720    -0.2280410
  C        3.0258420     0.1487050    -0.2103220
  C       -3.1242130     1.4315980    -0.4888860
  C       -3.5363170     2.0851650    -1.7841190
  H       -0.2830920     0.2988010    -0.9702380
  H        0.3702690    -2.0293640    -0.5720320
  H        1.1571200     0.9978770     1.6121560
  H        2.0609340    -0.7886600    -1.8727560
  H        1.9169870     1.6362870    -1.2735830
  H        3.2958550    -0.0945320     0.8276460
  H        0.5310282    -1.8922414     1.7251428
  H        0.6655400     3.1093110     0.6831840
  H        2.9735430    -2.5473740     0.0946540
  H        3.7214290     2.5491860    -0.0588690
  H        4.6397270    -0.4238340    -1.0970870
  H       -3.8083950    -1.5223380     1.7347280
  H       -3.9305460     1.4455410     0.2493860
  H       -2.2297620     1.8928800    -0.0590960
  H       -3.8005210     3.1308820    -1.6026710
  H       -2.7171960     2.0533230    -2.5048750
  H       -4.4009440     1.5743230    -2.2127240
units angstrom
no_reorient  #important for SAPT in psi4, default
symmetry c1  #important for SAPT in psi4, default
}

set PROPERTIES_ORIGIN ["COM"]
properties('MP2/aug-cc-pvtz', properties = ['dipole'])
--------------------------------------------------------------------------

    Molecular point group: c1
  Charge       = 0
  Multiplicity = 1
  Basis Set: AUG-CC-PVTZ
    Blend: AUG-CC-PVTZ
  Basis Set: (AUG-CC-PVTZ AUX)
    Blend: AUG-CC-PVTZ-JKFIT

    Orbital Energies [Eh]
    ---------------------

    Doubly Occupied:

       1A    -80.116789     2A    -20.614641     3A    -20.607312
       4A    -20.598778     5A    -20.582129     6A    -20.576881
       7A    -20.574832     8A    -20.574306     9A    -20.573094
      10A    -20.523183    11A    -11.320972    12A    -11.304333
      13A    -11.299247    14A    -11.298911    15A    -11.298168
      16A    -11.296734    17A    -11.291693    18A    -11.229755
      19A     -7.632236    20A     -5.530742    21A     -5.530368
      22A     -5.529167    23A     -1.460027    24A     -1.410715
      25A     -1.394510    26A     -1.393113    27A     -1.386725
      28A     -1.372472    29A     -1.363736    30A     -1.353910
      31A     -1.303549    32A     -1.120207    33A     -1.040335
      34A     -1.011242    35A     -1.005937    36A     -0.880586
      37A     -0.864982    38A     -0.858188    39A     -0.822396
      40A     -0.811638    41A     -0.751494    42A     -0.745183
      43A     -0.730858    44A     -0.728472    45A     -0.707919
      46A     -0.686964    47A     -0.679665    48A     -0.673391
      49A     -0.662724    50A     -0.661161    51A     -0.642367
      52A     -0.634918    53A     -0.627623    54A     -0.615311
      55A     -0.603406    56A     -0.598356    57A     -0.581541
      58A     -0.575466    59A     -0.570472    60A     -0.559117
      61A     -0.555984    62A     -0.547319    63A     -0.540841
      64A     -0.536812    65A     -0.530329    66A     -0.521858
      67A     -0.513587    68A     -0.505497    69A     -0.496792
      70A     -0.485495    71A     -0.479415    72A     -0.476415
      73A     -0.462269    74A     -0.455986    75A     -0.449005
      76A     -0.435540

  @DF-RHF Final Energy: -1327.86080088269568

   => Energetics <=

    Nuclear Repulsion Energy =           1772.3936909322692372
    One-Electron Energy =               -5356.9328009426753852
    Two-Electron Energy =                2256.6783091277102358
    Total Energy =                      -1327.8608008826959122
  Basis Set: (AUG-CC-PVTZ AUX)
    Blend: AUG-CC-PVTZ-RI
    Molecular point group: c1

    Geometry (in Angstrom), charge = 0, multiplicity = 1:

       Center              X                  Y                   Z               Mass
    ------------   -----------------  -----------------  -----------------  -----------------
         P           -2.291129632906    -0.940168154629     0.344872263924    30.973761998420
         O           -0.983186632906    -0.201687154629     0.938483263924    15.994914619570
         O            1.341216367094    -1.675608154629     1.231045263924    15.994914619570
         O            0.077671367094     2.359478845371     0.462362263924    15.994914619570
         O            3.067481367094    -2.187197154629    -0.808395736076    15.994914619570
         O            2.846301367094     2.502987845371     0.371729263924    15.994914619570
         O            4.194654367094     0.435271845371    -0.972679736076    15.994914619570
         O           -2.827896632906     0.033225845371    -0.807336736076    15.994914619570
         O           -3.260154632906    -0.723407154629     1.621865263924    15.994914619570
         O           -2.120026632906    -2.343769154629    -0.099473736076    15.994914619570
         C            0.117128367094     0.029883845371     0.016513263924    12.000000000000
         C            0.976294467094    -1.240971854629    -0.081339236076    12.000000000000
         C            0.897555367094     1.202518845371     0.565045263924    12.000000000000
         C            2.258626367094    -1.014432154629    -0.817842736076    12.000000000000
         C            2.176041367094     1.396346845371    -0.227846736076    12.000000000000
         C            3.024808367094     0.148579845371    -0.210127736076    12.000000000000
         C           -3.125246632906     1.431472845371    -0.488691736076    12.000000000000
         C           -3.537350632906     2.085039845371    -1.783924736076    12.000000000000
         H           -0.284125632906     0.298675845371    -0.970043736076     1.007825032230
         H            0.369235367094    -2.029489154629    -0.571837736076     1.007825032230
         H            1.156086367094     0.997751845371     1.612350263924     1.007825032230
         H            2.059900367094    -0.788785154629    -1.872561736076     1.007825032230
         H            1.915953367094     1.636161845371    -1.273388736076     1.007825032230
         H            3.294821367094    -0.094657154629     0.827840263924     1.007825032230
         H            0.529994567094    -1.892366554629     1.725337063924     1.007825032230
         H            0.664506367094     3.109185845371     0.683378263924     1.007825032230
         H            2.972509367094    -2.547499154629     0.094848263924     1.007825032230
         H            3.720395367094     2.549060845371    -0.058674736076     1.007825032230
         H            4.638693367094    -0.423959154629    -1.096892736076     1.007825032230
         H           -3.809428632906    -1.522463154629     1.734922263924     1.007825032230
         H           -3.931579632906     1.445415845371     0.249580263924     1.007825032230
         H           -2.230795632906     1.892754845371    -0.058901736076     1.007825032230
         H           -3.801554632906     3.130756845371    -1.602476736076     1.007825032230
         H           -2.718229632906     2.053197845371    -2.504680736076     1.007825032230
         H           -4.401977632906     1.574197845371    -2.212529736076     1.007825032230

  Basis Set: AUG-CC-PVTZ
    Blend: AUG-CC-PVTZ
  Basis Set: (AUG-CC-PVTZ AUX)
    Blend: AUG-CC-PVTZ-JKFIT
	 Reference Energy          =   -1327.8608008826956848 [Eh]
	 Singles Energy            =      -0.0000000000000000 [Eh]
	 Same-Spin Energy          =      -1.0146405292887966 [Eh]
	 Opposite-Spin Energy      =      -3.0760340719381181 [Eh]
	 Correlation Energy        =      -4.0906746012269144 [Eh]
	 Total Energy              =   -1331.9514754839226498 [Eh]

	 ================> DF-SCS-MP2 Energies <==================
	-----------------------------------------------------------
	 SCS Same-Spin Scale       =       0.3333333333333333 [-]
	 SCS Opposite-Spin Scale   =       1.2000000000000000 [-]
	 SCS Same-Spin Energy      =      -0.3382135097629322 [Eh]
	 SCS Opposite-Spin Energy  =      -3.6912408863257413 [Eh]
	 SCS Correlation Energy    =      -4.0294543960886733 [Eh]
	 SCS Total Energy          =   -1331.8902552787842524 [Eh]
	-----------------------------------------------------------

  Dipole Moment: [D]
     X:    -1.0896      Y:     1.8565      Z:     0.7344     Total:     2.2745

*** Psi4 exiting successfully. Buy a developer a beer!
