                               Psi4 1.3.2 release

  ==> Input File <==

--------------------------------------------------------------------------
#psi4
#
memory 32 gb

molecule  {
0 1
  P       -2.2900960    -0.9400430     0.3446780
  O       -0.9821530    -0.2015620     0.9382890
  O        1.3422500    -1.6754830     1.2308510
  O        0.0787050     2.3596040     0.4621680
  O        3.0685150    -2.1870720    -0.8085900
  O        2.8473350     2.5031130     0.3715350
  O        4.1956880     0.4353970    -0.9728740
  O       -2.8268630     0.0333510    -0.8075310
  O       -3.2591210    -0.7232820     1.6216710
  O       -2.1189930    -2.3436440    -0.0996680
  C        0.1181620     0.0300090     0.0163190
  C        0.9532920    -1.2442050    -0.0757250
  C        0.9140533     1.1595011     0.6293696
  C        2.2596600    -1.0143070    -0.8180370
  C        2.1770750     1.3964720    -0.2280410
  C        3.0258420     0.1487050    -0.2103220
  C       -3.1242130     1.4315980    -0.4888860
  C       -3.5363170     2.0851650    -1.7841190
  H       -0.3067129     0.2464537    -0.9732171
  H        0.3702690    -2.0293640    -0.5720320
  H        1.1571200     0.9978770     1.6121560
  H        2.0609340    -0.7886600    -1.8727560
  H        1.9169870     1.6362870    -1.2735830
  H        3.2958550    -0.0945320     0.8276460
  H        0.5217750    -1.8880320     1.7115100
  H        0.6655400     3.1093110     0.6831840
  H        2.9735430    -2.5473740     0.0946540
  H        3.7214290     2.5491860    -0.0588690
  H        4.6397270    -0.4238340    -1.0970870
  H       -3.8083950    -1.5223380     1.7347280
  H       -3.9305460     1.4455410     0.2493860
  H       -2.2297620     1.8928800    -0.0590960
  H       -3.8005210     3.1308820    -1.6026710
  H       -2.7171960     2.0533230    -2.5048750
  H       -4.4009440     1.5743230    -2.2127240
units angstrom
no_reorient  #important for SAPT in psi4, default
symmetry c1  #important for SAPT in psi4, default
}

set PROPERTIES_ORIGIN ["COM"]
properties('MP2/aug-cc-pvtz', properties = ['dipole'])
--------------------------------------------------------------------------

    Molecular point group: c1
  Charge       = 0
  Multiplicity = 1
  Basis Set: AUG-CC-PVTZ
    Blend: AUG-CC-PVTZ
  Basis Set: (AUG-CC-PVTZ AUX)
    Blend: AUG-CC-PVTZ-JKFIT

    Orbital Energies [Eh]
    ---------------------

    Doubly Occupied:

       1A    -80.116780     2A    -20.614613     3A    -20.606039
       4A    -20.599030     5A    -20.584005     6A    -20.576533
       7A    -20.575008     8A    -20.573881     9A    -20.568315
      10A    -20.523609    11A    -11.322217    12A    -11.303017
      13A    -11.299731    14A    -11.298991    15A    -11.298731
      16A    -11.298215    17A    -11.290842    18A    -11.229374
      19A     -7.632264    20A     -5.530776    21A     -5.530384
      22A     -5.529195    23A     -1.460289    24A     -1.410307
      25A     -1.394526    26A     -1.389503    27A     -1.386518
      28A     -1.370547    29A     -1.358605    30A     -1.347316
      31A     -1.303980    32A     -1.119097    33A     -1.040004
      34A     -1.012642    35A     -1.003160    36A     -0.878643
      37A     -0.864632    38A     -0.862891    39A     -0.820723
      40A     -0.814993    41A     -0.750092    42A     -0.745612
      43A     -0.732406    44A     -0.727744    45A     -0.707787
      46A     -0.683831    47A     -0.678726    48A     -0.673419
      49A     -0.661507    50A     -0.660364    51A     -0.644975
      52A     -0.631187    53A     -0.626943    54A     -0.614954
      55A     -0.604491    56A     -0.595188    57A     -0.580062
      58A     -0.575047    59A     -0.570536    60A     -0.557687
      61A     -0.556076    62A     -0.547323    63A     -0.541160
      64A     -0.536130    65A     -0.530527    66A     -0.521751
      67A     -0.513017    68A     -0.505305    69A     -0.498387
      70A     -0.487781    71A     -0.479662    72A     -0.476541
      73A     -0.463767    74A     -0.453355    75A     -0.451763
      76A     -0.436374

  @DF-RHF Final Energy: -1327.85257147521384

   => Energetics <=

    Nuclear Repulsion Energy =           1772.0334548048285797
    One-Electron Energy =               -5356.2492420227663388
    Two-Electron Energy =                2256.3632157427241509
    Total Energy =                      -1327.8525714752136082
  Basis Set: (AUG-CC-PVTZ AUX)
    Blend: AUG-CC-PVTZ-RI
    Molecular point group: c1

    Geometry (in Angstrom), charge = 0, multiplicity = 1:

       Center              X                  Y                   Z               Mass
    ------------   -----------------  -----------------  -----------------  -----------------
         P           -2.290657535219    -0.938062597333     0.342000708051    30.973761998420
         O           -0.982714535219    -0.199581597333     0.935611708051    15.994914619570
         O            1.341688464781    -1.673502597333     1.228173708051    15.994914619570
         O            0.078143464781     2.361584402667     0.459490708051    15.994914619570
         O            3.067953464781    -2.185091597333    -0.811267291949    15.994914619570
         O            2.846773464781     2.505093402667     0.368857708051    15.994914619570
         O            4.195126464781     0.437377402667    -0.975551291949    15.994914619570
         O           -2.827424535219     0.035331402667    -0.810208291949    15.994914619570
         O           -3.259682535219    -0.721301597333     1.618993708051    15.994914619570
         O           -2.119554535219    -2.341663597333    -0.102345291949    15.994914619570
         C            0.117600464781     0.031989402667     0.013641708051    12.000000000000
         C            0.952730464781    -1.242224597333    -0.078402291949    12.000000000000
         C            0.913491764781     1.161481502667     0.626692308051    12.000000000000
         C            2.259098464781    -1.012326597333    -0.820714291949    12.000000000000
         C            2.176513464781     1.398452402667    -0.230718291949    12.000000000000
         C            3.025280464781     0.150685402667    -0.212999291949    12.000000000000
         C           -3.124774535219     1.433578402667    -0.491563291949    12.000000000000
         C           -3.536878535219     2.087145402667    -1.786796291949    12.000000000000
         H           -0.307274435219     0.248434102667    -0.975894391949     1.007825032230
         H            0.369707464781    -2.027383597333    -0.574709291949     1.007825032230
         H            1.156558464781     0.999857402667     1.609478708051     1.007825032230
         H            2.060372464781    -0.786679597333    -1.875433291949     1.007825032230
         H            1.916425464781     1.638267402667    -1.276260291949     1.007825032230
         H            3.295293464781    -0.092551597333     0.824968708051     1.007825032230
         H            0.521213464781    -1.886051597333     1.708832708051     1.007825032230
         H            0.664978464781     3.111291402667     0.680506708051     1.007825032230
         H            2.972981464781    -2.545393597333     0.091976708051     1.007825032230
         H            3.720867464781     2.551166402667    -0.061546291949     1.007825032230
         H            4.639165464781    -0.421853597333    -1.099764291949     1.007825032230
         H           -3.808956535219    -1.520357597333     1.732050708051     1.007825032230
         H           -3.931107535219     1.447521402667     0.246708708051     1.007825032230
         H           -2.230323535219     1.894860402667    -0.061773291949     1.007825032230
         H           -3.801082535219     3.132862402667    -1.605348291949     1.007825032230
         H           -2.717757535219     2.055303402667    -2.507552291949     1.007825032230
         H           -4.401505535219     1.576303402667    -2.215401291949     1.007825032230

  Basis Set: AUG-CC-PVTZ
    Blend: AUG-CC-PVTZ
  Basis Set: (AUG-CC-PVTZ AUX)
    Blend: AUG-CC-PVTZ-JKFIT
	 Reference Energy          =   -1327.8525714752138356 [Eh]
	 Singles Energy            =      -0.0000000000000000 [Eh]
	 Same-Spin Energy          =      -1.0146430827905384 [Eh]
	 Opposite-Spin Energy      =      -3.0771767586115701 [Eh]
	 Correlation Energy        =      -4.0918198414021081 [Eh]
	 Total Energy              =   -1331.9443913166160200 [Eh]

	 ================> DF-SCS-MP2 Energies <==================
	-----------------------------------------------------------
	 SCS Same-Spin Scale       =       0.3333333333333333 [-]
	 SCS Opposite-Spin Scale   =       1.2000000000000000 [-]
	 SCS Same-Spin Energy      =      -0.3382143609301794 [Eh]
	 SCS Opposite-Spin Energy  =      -3.6926121103338838 [Eh]
	 SCS Correlation Energy    =      -4.0308264712640636 [Eh]
	 SCS Total Energy          =   -1331.8833979464779986 [Eh]
	-----------------------------------------------------------

  Dipole Moment: [D]
     X:    -1.0510      Y:     1.7341      Z:     0.7713     Total:     2.1695

*** Psi4 exiting successfully. Buy a developer a beer!
