                               Psi4 1.3.2 release

  ==> Input File <==

--------------------------------------------------------------------------
#psi4
#
memory 32 gb

molecule  {
0 1
  P       -2.2900960    -0.9400430     0.3446780
  O       -0.9821530    -0.2015620     0.9382890
  O        1.3422500    -1.6754830     1.2308510
  O        0.0787050     2.3596040     0.4621680
  O        3.0685150    -2.1870720    -0.8085900
  O        2.8473350     2.5031130     0.3715350
  O        4.1956880     0.4353970    -0.9728740
  O       -2.8268630     0.0333510    -0.8075310
  O       -3.2591210    -0.7232820     1.6216710
  O       -2.1189930    -2.3436440    -0.0996680
  C        0.1181620     0.0300090     0.0163190
  C        0.9532920    -1.2442050    -0.0757250
  C        0.8985890     1.2026440     0.5648510
  C        2.2541234    -0.9726444    -0.8855814
  C        2.1770750     1.3964720    -0.2280410
  C        3.0258420     0.1487050    -0.2103220
  C       -3.1242130     1.4315980    -0.4888860
  C       -3.5363170     2.0851650    -1.7841190
  H       -0.2830920     0.2988010    -0.9702380
  H        0.3702690    -2.0293640    -0.5720320
  H        1.1571200     0.9978770     1.6121560
  H        2.0609340    -0.7886600    -1.8727560
  H        1.9169870     1.6362870    -1.2735830
  H        3.3212778    -0.0430171     0.8315077
  H        0.5217750    -1.8880320     1.7115100
  H        0.6655400     3.1093110     0.6831840
  H        2.9735430    -2.5473740     0.0946540
  H        3.7214290     2.5491860    -0.0588690
  H        4.6397270    -0.4238340    -1.0970870
  H       -3.8083950    -1.5223380     1.7347280
  H       -3.9305460     1.4455410     0.2493860
  H       -2.2297620     1.8928800    -0.0590960
  H       -3.8005210     3.1308820    -1.6026710
  H       -2.7171960     2.0533230    -2.5048750
  H       -4.4009440     1.5743230    -2.2127240
units angstrom
no_reorient  #important for SAPT in psi4, default
symmetry c1  #important for SAPT in psi4, default
}

set PROPERTIES_ORIGIN ["COM"]
properties('MP2/aug-cc-pvtz', properties = ['dipole'])
--------------------------------------------------------------------------

    Molecular point group: c1
  Charge       = 0
  Multiplicity = 1
  Basis Set: AUG-CC-PVTZ
    Blend: AUG-CC-PVTZ
  Basis Set: (AUG-CC-PVTZ AUX)
    Blend: AUG-CC-PVTZ-JKFIT

    Orbital Energies [Eh]
    ---------------------

    Doubly Occupied:

       1A    -80.116611     2A    -20.614482     3A    -20.606123
       4A    -20.598824     5A    -20.583699     6A    -20.577385
       7A    -20.573756     8A    -20.572599     9A    -20.568408
      10A    -20.523126    11A    -11.319842    12A    -11.305588
      13A    -11.300084    14A    -11.299382    15A    -11.298861
      16A    -11.296680    17A    -11.293199    18A    -11.229963
      19A     -7.632057    20A     -5.530564    21A     -5.530191
      22A     -5.528989    23A     -1.459862    24A     -1.408469
      25A     -1.394747    26A     -1.388812    27A     -1.386274
      28A     -1.372460    29A     -1.360456    30A     -1.346155
      31A     -1.303526    32A     -1.119147    33A     -1.040508
      34A     -1.013079    35A     -1.002269    36A     -0.878792
      37A     -0.864440    38A     -0.863686    39A     -0.823679
      40A     -0.812464    41A     -0.748893    42A     -0.743592
      43A     -0.730780    44A     -0.728113    45A     -0.707598
      46A     -0.687123    47A     -0.675423    48A     -0.673079
      49A     -0.663598    50A     -0.659909    51A     -0.642797
      52A     -0.635733    53A     -0.625158    54A     -0.614469
      55A     -0.605578    56A     -0.600613    57A     -0.582951
      58A     -0.576122    59A     -0.569930    60A     -0.560789
      61A     -0.558346    62A     -0.548725    63A     -0.541890
      64A     -0.533793    65A     -0.529984    66A     -0.521475
      67A     -0.512024    68A     -0.503014    69A     -0.496728
      70A     -0.483362    71A     -0.479466    72A     -0.476371
      73A     -0.461523    74A     -0.454317    75A     -0.448954
      76A     -0.437738

  @DF-RHF Final Energy: -1327.85321356727968

   => Energetics <=

    Nuclear Repulsion Energy =           1771.5951273642631350
    One-Electron Energy =               -5355.3782905362859310
    Two-Electron Energy =                2255.9299496047428875
    Total Energy =                      -1327.8532135672799086
  Basis Set: (AUG-CC-PVTZ AUX)
    Blend: AUG-CC-PVTZ-RI
    Molecular point group: c1

    Geometry (in Angstrom), charge = 0, multiplicity = 1:

       Center              X                  Y                   Z               Mass
    ------------   -----------------  -----------------  -----------------  -----------------
         P           -2.289954269876    -0.941958788940     0.347478233873    30.973761998420
         O           -0.982011269876    -0.203477788940     0.941089233873    15.994914619570
         O            1.342391730124    -1.677398788940     1.233651233873    15.994914619570
         O            0.078846730124     2.357688211060     0.464968233873    15.994914619570
         O            3.068656730124    -2.188987788940    -0.805789766127    15.994914619570
         O            2.847476730124     2.501197211060     0.374335233873    15.994914619570
         O            4.195829730124     0.433481211060    -0.970073766127    15.994914619570
         O           -2.826721269876     0.031435211060    -0.804730766127    15.994914619570
         O           -3.258979269876    -0.725197788940     1.624471233873    15.994914619570
         O           -2.118851269876    -2.345559788940    -0.096867766127    15.994914619570
         C            0.118303730124     0.028093211060     0.019119233873    12.000000000000
         C            0.953433730124    -1.246120788940    -0.072924766127    12.000000000000
         C            0.898730730124     1.200728211060     0.567651233873    12.000000000000
         C            2.254265130124    -0.974560188940    -0.882781166127    12.000000000000
         C            2.177216730124     1.394556211060    -0.225240766127    12.000000000000
         C            3.025983730124     0.146789211060    -0.207521766127    12.000000000000
         C           -3.124071269876     1.429682211060    -0.486085766127    12.000000000000
         C           -3.536175269876     2.083249211060    -1.781318766127    12.000000000000
         H           -0.282950269876     0.296885211060    -0.967437766127     1.007825032230
         H            0.370410730124    -2.031279788940    -0.569231766127     1.007825032230
         H            1.157261730124     0.995961211060     1.614956233873     1.007825032230
         H            2.061075730124    -0.790575788940    -1.869955766127     1.007825032230
         H            1.917128730124     1.634371211060    -1.270782766127     1.007825032230
         H            3.321419530124    -0.044932888940     0.834307933873     1.007825032230
         H            0.521916730124    -1.889947788940     1.714310233873     1.007825032230
         H            0.665681730124     3.107395211060     0.685984233873     1.007825032230
         H            2.973684730124    -2.549289788940     0.097454233873     1.007825032230
         H            3.721570730124     2.547270211060    -0.056068766127     1.007825032230
         H            4.639868730124    -0.425749788940    -1.094286766127     1.007825032230
         H           -3.808253269876    -1.524253788940     1.737528233873     1.007825032230
         H           -3.930404269876     1.443625211060     0.252186233873     1.007825032230
         H           -2.229620269876     1.890964211060    -0.056295766127     1.007825032230
         H           -3.800379269876     3.128966211060    -1.599870766127     1.007825032230
         H           -2.717054269876     2.051407211060    -2.502074766127     1.007825032230
         H           -4.400802269876     1.572407211060    -2.209923766127     1.007825032230

  Basis Set: AUG-CC-PVTZ
    Blend: AUG-CC-PVTZ
  Basis Set: (AUG-CC-PVTZ AUX)
    Blend: AUG-CC-PVTZ-JKFIT
	 Reference Energy          =   -1327.8532135672796812 [Eh]
	 Singles Energy            =      -0.0000000000000000 [Eh]
	 Same-Spin Energy          =      -1.0143251566919551 [Eh]
	 Opposite-Spin Energy      =      -3.0763630123735282 [Eh]
	 Correlation Energy        =      -4.0906881690654835 [Eh]
	 Total Energy              =   -1331.9439017363451967 [Eh]

	 ================> DF-SCS-MP2 Energies <==================
	-----------------------------------------------------------
	 SCS Same-Spin Scale       =       0.3333333333333333 [-]
	 SCS Opposite-Spin Scale   =       1.2000000000000000 [-]
	 SCS Same-Spin Energy      =      -0.3381083855639850 [Eh]
	 SCS Opposite-Spin Energy  =      -3.6916356148482334 [Eh]
	 SCS Correlation Energy    =      -4.0297440004122187 [Eh]
	 SCS Total Energy          =   -1331.8829575676918466 [Eh]
	-----------------------------------------------------------

  Dipole Moment: [D]
     X:    -1.1393      Y:     1.9952      Z:     0.6710     Total:     2.3936

*** Psi4 exiting successfully. Buy a developer a beer!
