                               Psi4 1.3.2 release

  ==> Input File <==

--------------------------------------------------------------------------
#psi4
#
memory 32 gb

molecule  {
0 1
  P       -2.2900960    -0.9400430     0.3446780
  O       -0.9821530    -0.2015620     0.9382890
  O        1.3422500    -1.6754830     1.2308510
  O        0.0787050     2.3596040     0.4621680
  O        3.0685150    -2.1870720    -0.8085900
  O        2.8473350     2.5031130     0.3715350
  O        4.1956880     0.4353970    -0.9728740
  O       -2.8268630     0.0333510    -0.8075310
  O       -3.2544711    -0.6954757     1.6201675
  O       -2.1032642    -2.3355173    -0.1185289
  C        0.1181620     0.0300090     0.0163190
  C        0.9532920    -1.2442050    -0.0757250
  C        0.8985890     1.2026440     0.5648510
  C        2.2596600    -1.0143070    -0.8180370
  C        2.1770750     1.3964720    -0.2280410
  C        3.0258420     0.1487050    -0.2103220
  C       -3.1242130     1.4315980    -0.4888860
  C       -3.5363170     2.0851650    -1.7841190
  H       -0.2830920     0.2988010    -0.9702380
  H        0.3702690    -2.0293640    -0.5720320
  H        1.1571200     0.9978770     1.6121560
  H        2.0609340    -0.7886600    -1.8727560
  H        1.9169870     1.6362870    -1.2735830
  H        3.2958550    -0.0945320     0.8276460
  H        0.5217750    -1.8880320     1.7115100
  H        0.6655400     3.1093110     0.6831840
  H        2.9735430    -2.5473740     0.0946540
  H        3.7214290     2.5491860    -0.0588690
  H        4.6397270    -0.4238340    -1.0970870
  H       -3.8083950    -1.5223380     1.7347280
  H       -3.9305460     1.4455410     0.2493860
  H       -2.2297620     1.8928800    -0.0590960
  H       -3.8005210     3.1308820    -1.6026710
  H       -2.7171960     2.0533230    -2.5048750
  H       -4.4009440     1.5743230    -2.2127240
units angstrom
no_reorient  #important for SAPT in psi4, default
symmetry c1  #important for SAPT in psi4, default
}

set PROPERTIES_ORIGIN ["COM"]
properties('MP2/aug-cc-pvtz', properties = ['dipole'])
--------------------------------------------------------------------------

    Molecular point group: c1
  Charge       = 0
  Multiplicity = 1
  Basis Set: AUG-CC-PVTZ
    Blend: AUG-CC-PVTZ
  Basis Set: (AUG-CC-PVTZ AUX)
    Blend: AUG-CC-PVTZ-JKFIT

    Orbital Energies [Eh]
    ---------------------

    Doubly Occupied:

       1A    -80.116690     2A    -20.619226     3A    -20.605604
       4A    -20.597412     5A    -20.582721     6A    -20.576405
       7A    -20.574228     8A    -20.573745     9A    -20.572932
      10A    -20.525151    11A    -11.319794    12A    -11.302806
      13A    -11.298854    14A    -11.298413    15A    -11.298032
      16A    -11.296218    17A    -11.291024    18A    -11.229224
      19A     -7.632230    20A     -5.530764    21A     -5.530341
      22A     -5.529144    23A     -1.459423    24A     -1.410018
      25A     -1.393828    26A     -1.392073    27A     -1.384561
      28A     -1.372035    29A     -1.363522    30A     -1.353421
      31A     -1.305100    32A     -1.118451    33A     -1.039625
      34A     -1.011335    35A     -1.002901    36A     -0.878994
      37A     -0.864159    38A     -0.858448    39A     -0.819472
      40A     -0.809993    41A     -0.750995    42A     -0.743661
      43A     -0.729396    44A     -0.728069    45A     -0.706227
      46A     -0.686692    47A     -0.677935    48A     -0.673772
      49A     -0.662318    50A     -0.660513    51A     -0.642588
      52A     -0.634414    53A     -0.626391    54A     -0.614769
      55A     -0.603169    56A     -0.598062    57A     -0.581940
      58A     -0.574969    59A     -0.570611    60A     -0.559317
      61A     -0.556287    62A     -0.548053    63A     -0.540712
      64A     -0.536222    65A     -0.529223    66A     -0.521199
      67A     -0.512398    68A     -0.503774    69A     -0.497133
      70A     -0.484303    71A     -0.480289    72A     -0.477200
      73A     -0.462112    74A     -0.455463    75A     -0.449606
      76A     -0.435844

  @DF-RHF Final Energy: -1327.85865791745300

   => Energetics <=

    Nuclear Repulsion Energy =           1772.8922671708353391
    One-Electron Energy =               -5357.9939657994418667
    Two-Electron Energy =                2257.2430407111537534
    Total Energy =                      -1327.8586579174530016
  Basis Set: (AUG-CC-PVTZ AUX)
    Blend: AUG-CC-PVTZ-RI
    Molecular point group: c1

    Geometry (in Angstrom), charge = 0, multiplicity = 1:

       Center              X                  Y                   Z               Mass
    ------------   -----------------  -----------------  -----------------  -----------------
         P           -2.291227517584    -0.942038202883     0.345808747164    30.973761998420
         O           -0.983284517584    -0.203557202883     0.939419747164    15.994914619570
         O            1.341118482416    -1.677478202883     1.231981747164    15.994914619570
         O            0.077573482416     2.357608797117     0.463298747164    15.994914619570
         O            3.067383482416    -2.189067202883    -0.807459252836    15.994914619570
         O            2.846203482416     2.501117797117     0.372665747164    15.994914619570
         O            4.194556482416     0.433401797117    -0.971743252836    15.994914619570
         O           -2.827994517584     0.031355797117    -0.806400252836    15.994914619570
         O           -3.255602617584    -0.697470902883     1.621298247164    15.994914619570
         O           -2.104395717584    -2.337512502883    -0.117398152836    15.994914619570
         C            0.117030482416     0.028013797117     0.017449747164    12.000000000000
         C            0.952160482416    -1.246200202883    -0.074594252836    12.000000000000
         C            0.897457482416     1.200648797117     0.565981747164    12.000000000000
         C            2.258528482416    -1.016302202883    -0.816906252836    12.000000000000
         C            2.175943482416     1.394476797117    -0.226910252836    12.000000000000
         C            3.024710482416     0.146709797117    -0.209191252836    12.000000000000
         C           -3.125344517584     1.429602797117    -0.487755252836    12.000000000000
         C           -3.537448517584     2.083169797117    -1.782988252836    12.000000000000
         H           -0.284223517584     0.296805797117    -0.969107252836     1.007825032230
         H            0.369137482416    -2.031359202883    -0.570901252836     1.007825032230
         H            1.155988482416     0.995881797117     1.613286747164     1.007825032230
         H            2.059802482416    -0.790655202883    -1.871625252836     1.007825032230
         H            1.915855482416     1.634291797117    -1.272452252836     1.007825032230
         H            3.294723482416    -0.096527202883     0.828776747164     1.007825032230
         H            0.520643482416    -1.890027202883     1.712640747164     1.007825032230
         H            0.664408482416     3.107315797117     0.684314747164     1.007825032230
         H            2.972411482416    -2.549369202883     0.095784747164     1.007825032230
         H            3.720297482416     2.547190797117    -0.057738252836     1.007825032230
         H            4.638595482416    -0.425829202883    -1.095956252836     1.007825032230
         H           -3.809526517584    -1.524333202883     1.735858747164     1.007825032230
         H           -3.931677517584     1.443545797117     0.250516747164     1.007825032230
         H           -2.230893517584     1.890884797117    -0.057965252836     1.007825032230
         H           -3.801652517584     3.128886797117    -1.601540252836     1.007825032230
         H           -2.718327517584     2.051327797117    -2.503744252836     1.007825032230
         H           -4.402075517584     1.572327797117    -2.211593252836     1.007825032230

  Basis Set: AUG-CC-PVTZ
    Blend: AUG-CC-PVTZ
  Basis Set: (AUG-CC-PVTZ AUX)
    Blend: AUG-CC-PVTZ-JKFIT
	 Reference Energy          =   -1327.8586579174530016 [Eh]
	 Singles Energy            =      -0.0000000000000000 [Eh]
	 Same-Spin Energy          =      -1.0150918624367156 [Eh]
	 Opposite-Spin Energy      =      -3.0771617433330301 [Eh]
	 Correlation Energy        =      -4.0922536057697458 [Eh]
	 Total Energy              =   -1331.9509115232226577 [Eh]

	 ================> DF-SCS-MP2 Energies <==================
	-----------------------------------------------------------
	 SCS Same-Spin Scale       =       0.3333333333333333 [-]
	 SCS Opposite-Spin Scale   =       1.2000000000000000 [-]
	 SCS Same-Spin Energy      =      -0.3383639541455719 [Eh]
	 SCS Opposite-Spin Energy  =      -3.6925940919996361 [Eh]
	 SCS Correlation Energy    =      -4.0309580461452077 [Eh]
	 SCS Total Energy          =   -1331.8896159635983167 [Eh]
	-----------------------------------------------------------

  Dipole Moment: [D]
     X:    -1.2019      Y:     1.7532      Z:     0.8000     Total:     2.2712

*** Psi4 exiting successfully. Buy a developer a beer!
