                               Psi4 1.3.2 release

  ==> Input File <==

--------------------------------------------------------------------------
#psi4
#
memory 32 gb

molecule  {
0 1
  P       -2.2900960    -0.9400430     0.3446780
  O       -0.9561096    -0.2723711     0.9484422
  O        1.3422500    -1.6754830     1.2308510
  O        0.0787050     2.3596040     0.4621680
  O        3.0685150    -2.1870720    -0.8085900
  O        2.8473350     2.5031130     0.3715350
  O        4.1956880     0.4353970    -0.9728740
  O       -2.8268630     0.0333510    -0.8075310
  O       -3.2591210    -0.7232820     1.6216710
  O       -2.1189930    -2.3436440    -0.0996680
  C        0.1181620     0.0300090     0.0163190
  C        0.9030906    -1.2783545    -0.0237757
  C        0.8985890     1.2026440     0.5648510
  C        2.2596600    -1.0143070    -0.8180370
  C        2.1770750     1.3964720    -0.2280410
  C        3.0258420     0.1487050    -0.2103220
  C       -3.1242130     1.4315980    -0.4888860
  C       -3.5363170     2.0851650    -1.7841190
  H       -0.2830920     0.2988010    -0.9702380
  H        0.3702690    -2.0293640    -0.5720320
  H        1.1571200     0.9978770     1.6121560
  H        2.0609340    -0.7886600    -1.8727560
  H        1.9169870     1.6362870    -1.2735830
  H        3.2958550    -0.0945320     0.8276460
  H        0.5217750    -1.8880320     1.7115100
  H        0.6655400     3.1093110     0.6831840
  H        2.9735430    -2.5473740     0.0946540
  H        3.7214290     2.5491860    -0.0588690
  H        4.6397270    -0.4238340    -1.0970870
  H       -3.8083950    -1.5223380     1.7347280
  H       -3.9305460     1.4455410     0.2493860
  H       -2.2297620     1.8928800    -0.0590960
  H       -3.8005210     3.1308820    -1.6026710
  H       -2.7171960     2.0533230    -2.5048750
  H       -4.4009440     1.5743230    -2.2127240
units angstrom
no_reorient  #important for SAPT in psi4, default
symmetry c1  #important for SAPT in psi4, default
}

set PROPERTIES_ORIGIN ["COM"]
properties('MP2/aug-cc-pvtz', properties = ['dipole'])
--------------------------------------------------------------------------

    Molecular point group: c1
  Charge       = 0
  Multiplicity = 1
  Basis Set: AUG-CC-PVTZ
    Blend: AUG-CC-PVTZ
  Basis Set: (AUG-CC-PVTZ AUX)
    Blend: AUG-CC-PVTZ-JKFIT

    Orbital Energies [Eh]
    ---------------------

    Doubly Occupied:

       1A    -80.115873     2A    -20.614332     3A    -20.604904
       4A    -20.601702     5A    -20.588225     6A    -20.576626
       7A    -20.574923     8A    -20.572935     9A    -20.571641
      10A    -20.518963    11A    -11.319707    12A    -11.301203
      13A    -11.300686    14A    -11.299846    15A    -11.297243
      16A    -11.296565    17A    -11.289891    18A    -11.231047
      19A     -7.631403    20A     -5.529899    21A     -5.529531
      22A     -5.528334    23A     -1.461185    24A     -1.418180
      25A     -1.397790    26A     -1.393333    27A     -1.388133
      28A     -1.376604    29A     -1.365017    30A     -1.353545
      31A     -1.300471    32A     -1.113056    33A     -1.041835
      34A     -1.011640    35A     -0.994080    36A     -0.878951
      37A     -0.865803    38A     -0.859100    39A     -0.822267
      40A     -0.810622    41A     -0.753961    42A     -0.745596
      43A     -0.734369    44A     -0.730309    45A     -0.707148
      46A     -0.689200    47A     -0.678877    48A     -0.674933
      49A     -0.661026    50A     -0.660025    51A     -0.644041
      52A     -0.635682    53A     -0.626813    54A     -0.617574
      55A     -0.604972    56A     -0.598431    57A     -0.581189
      58A     -0.575043    59A     -0.574604    60A     -0.561995
      61A     -0.556608    62A     -0.552292    63A     -0.541797
      64A     -0.536448    65A     -0.533719    66A     -0.521060
      67A     -0.511991    68A     -0.502330    69A     -0.496834
      70A     -0.482112    71A     -0.475987    72A     -0.472386
      73A     -0.459476    74A     -0.455195    75A     -0.447801
      76A     -0.431031

  @DF-RHF Final Energy: -1327.85475683140953

   => Energetics <=

    Nuclear Repulsion Energy =           1772.4571677024910059
    One-Electron Energy =               -5357.0639560303388862
    Two-Electron Energy =                2256.7520314964385761
    Total Energy =                      -1327.8547568314093041
  Basis Set: (AUG-CC-PVTZ AUX)
    Blend: AUG-CC-PVTZ-RI
    Molecular point group: c1

    Geometry (in Angstrom), charge = 0, multiplicity = 1:

       Center              X                  Y                   Z               Mass
    ------------   -----------------  -----------------  -----------------  -----------------
         P           -2.289450774556    -0.934688632357     0.341950127175    30.973761998420
         O           -0.955464374556    -0.267016732357     0.945714327175    15.994914619570
         O            1.342895225444    -1.670128632357     1.228123127175    15.994914619570
         O            0.079350225444     2.364958367643     0.459440127175    15.994914619570
         O            3.069160225444    -2.181717632357    -0.811317872825    15.994914619570
         O            2.847980225444     2.508467367643     0.368807127175    15.994914619570
         O            4.196333225444     0.440751367643    -0.975601872825    15.994914619570
         O           -2.826217774556     0.038705367643    -0.810258872825    15.994914619570
         O           -3.258475774556    -0.717927632357     1.618943127175    15.994914619570
         O           -2.118347774556    -2.338289632357    -0.102395872825    15.994914619570
         C            0.118807225444     0.035363367643     0.013591127175    12.000000000000
         C            0.903735825444    -1.273000132357    -0.026503572825    12.000000000000
         C            0.899234225444     1.207998367643     0.562123127175    12.000000000000
         C            2.260305225444    -1.008952632357    -0.820764872825    12.000000000000
         C            2.177720225444     1.401826367643    -0.230768872825    12.000000000000
         C            3.026487225444     0.154059367643    -0.213049872825    12.000000000000
         C           -3.123567774556     1.436952367643    -0.491613872825    12.000000000000
         C           -3.535671774556     2.090519367643    -1.786846872825    12.000000000000
         H           -0.282446774556     0.304155367643    -0.972965872825     1.007825032230
         H            0.370914225444    -2.024009632357    -0.574759872825     1.007825032230
         H            1.157765225444     1.003231367643     1.609428127175     1.007825032230
         H            2.061579225444    -0.783305632357    -1.875483872825     1.007825032230
         H            1.917632225444     1.641641367643    -1.276310872825     1.007825032230
         H            3.296500225444    -0.089177632357     0.824918127175     1.007825032230
         H            0.522420225444    -1.882677632357     1.708782127175     1.007825032230
         H            0.666185225444     3.114665367643     0.680456127175     1.007825032230
         H            2.974188225444    -2.542019632357     0.091926127175     1.007825032230
         H            3.722074225444     2.554540367643    -0.061596872825     1.007825032230
         H            4.640372225444    -0.418479632357    -1.099814872825     1.007825032230
         H           -3.807749774556    -1.516983632357     1.732000127175     1.007825032230
         H           -3.929900774556     1.450895367643     0.246658127175     1.007825032230
         H           -2.229116774556     1.898234367643    -0.061823872825     1.007825032230
         H           -3.799875774556     3.136236367643    -1.605398872825     1.007825032230
         H           -2.716550774556     2.058677367643    -2.507602872825     1.007825032230
         H           -4.400298774556     1.579677367643    -2.215451872825     1.007825032230

  Basis Set: AUG-CC-PVTZ
    Blend: AUG-CC-PVTZ
  Basis Set: (AUG-CC-PVTZ AUX)
    Blend: AUG-CC-PVTZ-JKFIT
	 Reference Energy          =   -1327.8547568314095315 [Eh]
	 Singles Energy            =      -0.0000000000000000 [Eh]
	 Same-Spin Energy          =      -1.0144774245641708 [Eh]
	 Opposite-Spin Energy      =      -3.0756182521361897 [Eh]
	 Correlation Energy        =      -4.0900956767003604 [Eh]
	 Total Energy              =   -1331.9448525081099888 [Eh]

	 ================> DF-SCS-MP2 Energies <==================
	-----------------------------------------------------------
	 SCS Same-Spin Scale       =       0.3333333333333333 [-]
	 SCS Opposite-Spin Scale   =       1.2000000000000000 [-]
	 SCS Same-Spin Energy      =      -0.3381591415213903 [Eh]
	 SCS Opposite-Spin Energy  =      -3.6907419025634276 [Eh]
	 SCS Correlation Energy    =      -4.0289010440848179 [Eh]
	 SCS Total Energy          =   -1331.8836578754942366 [Eh]
	-----------------------------------------------------------

  Dipole Moment: [D]
     X:    -1.1831      Y:     1.9955      Z:     0.8224     Total:     2.4613

*** Psi4 exiting successfully. Buy a developer a beer!
