                               Psi4 1.3.2 release

  ==> Input File <==

--------------------------------------------------------------------------
#psi4
#
memory 32 gb

molecule  {
0 1
  P       -2.2900960    -0.9400430     0.3446780
  O       -0.9821530    -0.2015620     0.9382890
  O        1.3422500    -1.6754830     1.2308510
  O        0.0787050     2.3596040     0.4621680
  O        3.0685150    -2.1870720    -0.8085900
  O        2.8473350     2.5031130     0.3715350
  O        4.1956880     0.4353970    -0.9728740
  O       -2.8268630     0.0333510    -0.8075310
  O       -3.2591210    -0.7232820     1.6216710
  O       -2.1189930    -2.3436440    -0.0996680
  C        0.1181620     0.0300090     0.0163190
  C        0.9532920    -1.2442050    -0.0757250
  C        0.8985890     1.2026440     0.5648510
  C        2.2596600    -1.0143070    -0.8180370
  C        2.1770750     1.3964720    -0.2280410
  C        3.0261010     0.1423725    -0.1986744
  C       -3.1242130     1.4315980    -0.4888860
  C       -3.5363170     2.0851650    -1.7841190
  H       -0.2830920     0.2988010    -0.9702380
  H        0.3702690    -2.0293640    -0.5720320
  H        1.1571200     0.9978770     1.6121560
  H        2.0564333    -0.7970579    -1.8736612
  H        1.9169870     1.6362870    -1.2735830
  H        3.2958550    -0.0945320     0.8276460
  H        0.5217750    -1.8880320     1.7115100
  H        0.6655400     3.1093110     0.6831840
  H        2.9735430    -2.5473740     0.0946540
  H        3.7214290     2.5491860    -0.0588690
  H        4.6397270    -0.4238340    -1.0970870
  H       -3.8083950    -1.5223380     1.7347280
  H       -3.9305460     1.4455410     0.2493860
  H       -2.2297620     1.8928800    -0.0590960
  H       -3.8005210     3.1308820    -1.6026710
  H       -2.7171960     2.0533230    -2.5048750
  H       -4.4009440     1.5743230    -2.2127240
units angstrom
no_reorient  #important for SAPT in psi4, default
symmetry c1  #important for SAPT in psi4, default
}

set PROPERTIES_ORIGIN ["COM"]
properties('MP2/aug-cc-pvtz', properties = ['dipole'])
--------------------------------------------------------------------------

    Molecular point group: c1
  Charge       = 0
  Multiplicity = 1
  Basis Set: AUG-CC-PVTZ
    Blend: AUG-CC-PVTZ
  Basis Set: (AUG-CC-PVTZ AUX)
    Blend: AUG-CC-PVTZ-JKFIT

    Orbital Energies [Eh]
    ---------------------

    Doubly Occupied:

       1A    -80.116979     2A    -20.614766     3A    -20.607077
       4A    -20.598968     5A    -20.583286     6A    -20.576720
       7A    -20.574349     8A    -20.573429     9A    -20.573388
      10A    -20.523471    11A    -11.320798    12A    -11.303423
      13A    -11.299467    14A    -11.299403    15A    -11.298491
      16A    -11.296942    17A    -11.291235    18A    -11.229881
      19A     -7.632429    20A     -5.530936    21A     -5.530563
      22A     -5.529361    23A     -1.460325    24A     -1.410626
      25A     -1.393996    26A     -1.392970    27A     -1.386843
      28A     -1.371897    29A     -1.363892    30A     -1.352877
      31A     -1.303867    32A     -1.118911    33A     -1.040475
      34A     -1.011740    35A     -1.003437    36A     -0.880533
      37A     -0.865030    38A     -0.858387    39A     -0.822693
      40A     -0.811212    41A     -0.751633    42A     -0.744978
      43A     -0.731280    44A     -0.728686    45A     -0.708000
      46A     -0.687122    47A     -0.678037    48A     -0.673410
      49A     -0.661628    50A     -0.660722    51A     -0.643074
      52A     -0.634409    53A     -0.627240    54A     -0.615286
      55A     -0.603545    56A     -0.598996    57A     -0.581668
      58A     -0.575596    59A     -0.571173    60A     -0.559397
      61A     -0.556324    62A     -0.548515    63A     -0.541206
      64A     -0.536078    65A     -0.529881    66A     -0.521602
      67A     -0.512971    68A     -0.504733    69A     -0.497058
      70A     -0.484941    71A     -0.479868    72A     -0.476709
      73A     -0.462478    74A     -0.456217    75A     -0.450101
      76A     -0.436950

  @DF-RHF Final Energy: -1327.86112144701224

   => Energetics <=

    Nuclear Repulsion Energy =           1772.3743154496489751
    One-Electron Energy =               -5356.8977097747047083
    Two-Electron Energy =                2256.6622728780434954
    Total Energy =                      -1327.8611214470124651
  Basis Set: (AUG-CC-PVTZ AUX)
    Blend: AUG-CC-PVTZ-RI
    Molecular point group: c1

    Geometry (in Angstrom), charge = 0, multiplicity = 1:

       Center              X                  Y                   Z               Mass
    ------------   -----------------  -----------------  -----------------  -----------------
         P           -2.290091010167    -0.939749802728     0.344195943885    30.973761998420
         O           -0.982148010167    -0.201268802728     0.937806943885    15.994914619570
         O            1.342254989833    -1.675189802728     1.230368943885    15.994914619570
         O            0.078709989833     2.359897197272     0.461685943885    15.994914619570
         O            3.068519989833    -2.186778802728    -0.809072056115    15.994914619570
         O            2.847339989833     2.503406197272     0.371052943885    15.994914619570
         O            4.195692989833     0.435690197272    -0.973356056115    15.994914619570
         O           -2.826858010167     0.033644197272    -0.808013056115    15.994914619570
         O           -3.259116010167    -0.722988802728     1.621188943885    15.994914619570
         O           -2.118988010167    -2.343350802728    -0.100150056115    15.994914619570
         C            0.118166989833     0.030302197272     0.015836943885    12.000000000000
         C            0.953296989833    -1.243911802728    -0.076207056115    12.000000000000
         C            0.898593989833     1.202937197272     0.564368943885    12.000000000000
         C            2.259664989833    -1.014013802728    -0.818519056115    12.000000000000
         C            2.177079989833     1.396765197272    -0.228523056115    12.000000000000
         C            3.026105989833     0.142665697272    -0.199156456115    12.000000000000
         C           -3.124208010167     1.431891197272    -0.489368056115    12.000000000000
         C           -3.536312010167     2.085458197272    -1.784601056115    12.000000000000
         H           -0.283087010167     0.299094197272    -0.970720056115     1.007825032230
         H            0.370273989833    -2.029070802728    -0.572514056115     1.007825032230
         H            1.157124989833     0.998170197272     1.611673943885     1.007825032230
         H            2.056438289833    -0.796764702728    -1.874143256115     1.007825032230
         H            1.916991989833     1.636580197272    -1.274065056115     1.007825032230
         H            3.295859989833    -0.094238802728     0.827163943885     1.007825032230
         H            0.521779989833    -1.887738802728     1.711027943885     1.007825032230
         H            0.665544989833     3.109604197272     0.682701943885     1.007825032230
         H            2.973547989833    -2.547080802728     0.094171943885     1.007825032230
         H            3.721433989833     2.549479197272    -0.059351056115     1.007825032230
         H            4.639731989833    -0.423540802728    -1.097569056115     1.007825032230
         H           -3.808390010167    -1.522044802728     1.734245943885     1.007825032230
         H           -3.930541010167     1.445834197272     0.248903943885     1.007825032230
         H           -2.229757010167     1.893173197272    -0.059578056115     1.007825032230
         H           -3.800516010167     3.131175197272    -1.603153056115     1.007825032230
         H           -2.717191010167     2.053616197272    -2.505357056115     1.007825032230
         H           -4.400939010167     1.574616197272    -2.213206056115     1.007825032230

  Basis Set: AUG-CC-PVTZ
    Blend: AUG-CC-PVTZ
  Basis Set: (AUG-CC-PVTZ AUX)
    Blend: AUG-CC-PVTZ-JKFIT
	 Reference Energy          =   -1327.8611214470122377 [Eh]
	 Singles Energy            =      -0.0000000000000000 [Eh]
	 Same-Spin Energy          =      -1.0145805837171555 [Eh]
	 Opposite-Spin Energy      =      -3.0762029886084936 [Eh]
	 Correlation Energy        =      -4.0907835723256492 [Eh]
	 Total Energy              =   -1331.9519050193378007 [Eh]

	 ================> DF-SCS-MP2 Energies <==================
	-----------------------------------------------------------
	 SCS Same-Spin Scale       =       0.3333333333333333 [-]
	 SCS Opposite-Spin Scale   =       1.2000000000000000 [-]
	 SCS Same-Spin Energy      =      -0.3381935279057185 [Eh]
	 SCS Opposite-Spin Energy  =      -3.6914435863301920 [Eh]
	 SCS Correlation Energy    =      -4.0296371142359106 [Eh]
	 SCS Total Energy          =   -1331.8907585612480489 [Eh]
	-----------------------------------------------------------

  Dipole Moment: [D]
     X:    -1.1270      Y:     1.8562      Z:     0.7377     Total:     2.2934

*** Psi4 exiting successfully. Buy a developer a beer!
