                               Psi4 1.3.2 release

  ==> Input File <==

--------------------------------------------------------------------------
#psi4
#
memory 32 gb

molecule  {
0 1
  P       -2.2900960    -0.9400430     0.3446780
  O       -0.9821530    -0.2015620     0.9382890
  O        1.3422500    -1.6754830     1.2308510
  O        0.0787050     2.3596040     0.4621680
  O        3.0685150    -2.1870720    -0.8085900
  O        2.8473350     2.5031130     0.3715350
  O        4.1956880     0.4353970    -0.9728740
  O       -2.8268630     0.0333510    -0.8075310
  O       -3.2591210    -0.7232820     1.6216710
  O       -2.1189930    -2.3436440    -0.0996680
  C        0.1181620     0.0300090     0.0163190
  C        0.9532920    -1.2442050    -0.0757250
  C        0.8985890     1.2026440     0.5648510
  C        2.2596600    -1.0143070    -0.8180370
  C        2.1770750     1.3964720    -0.2280410
  C        3.0258420     0.1487050    -0.2103220
  C       -3.1242130     1.4315980    -0.4888860
  C       -3.5363170     2.0851650    -1.7841190
  H       -0.2830920     0.2988010    -0.9702380
  H        0.3702690    -2.0293640    -0.5720320
  H        1.1571200     0.9978770     1.6121560
  H        2.0609340    -0.7886600    -1.8727560
  H        1.9405505     1.6145602    -1.1788586
  H        3.2958550    -0.0945320     0.8276460
  H        0.5217750    -1.8880320     1.7115100
  H        0.6655400     3.1093110     0.6831840
  H        2.9735430    -2.5473740     0.0946540
  H        3.7214290     2.5491860    -0.0588690
  H        4.6397270    -0.4238340    -1.0970870
  H       -3.8083950    -1.5223380     1.7347280
  H       -3.9305460     1.4455410     0.2493860
  H       -2.2297620     1.8928800    -0.0590960
  H       -3.8005210     3.1308820    -1.6026710
  H       -2.7171960     2.0533230    -2.5048750
  H       -4.4009440     1.5743230    -2.2127240
units angstrom
no_reorient  #important for SAPT in psi4, default
symmetry c1  #important for SAPT in psi4, default
}

set PROPERTIES_ORIGIN ["COM"]
properties('MP2/aug-cc-pvtz', properties = ['dipole'])
--------------------------------------------------------------------------

    Molecular point group: c1
  Charge       = 0
  Multiplicity = 1
  Basis Set: AUG-CC-PVTZ
    Blend: AUG-CC-PVTZ
  Basis Set: (AUG-CC-PVTZ AUX)
    Blend: AUG-CC-PVTZ-JKFIT

    Orbital Energies [Eh]
    ---------------------

    Doubly Occupied:

       1A    -80.117001     2A    -20.614778     3A    -20.607112
       4A    -20.599039     5A    -20.583076     6A    -20.575027
       7A    -20.574643     8A    -20.574092     9A    -20.573540
      10A    -20.523495    11A    -11.320895    12A    -11.303618
      13A    -11.299518    14A    -11.299491    15A    -11.297781
      16A    -11.290571    17A    -11.284433    18A    -11.229990
      19A     -7.632453    20A     -5.530959    21A     -5.530586
      22A     -5.529384    23A     -1.460354    24A     -1.410853
      25A     -1.394594    26A     -1.392965    27A     -1.386938
      28A     -1.372733    29A     -1.363740    30A     -1.353524
      31A     -1.303892    32A     -1.120306    33A     -1.040599
      34A     -1.013673    35A     -1.004993    36A     -0.881756
      37A     -0.865911    38A     -0.861079    39A     -0.824743
      40A     -0.814415    41A     -0.754285    42A     -0.745302
      43A     -0.733067    44A     -0.728981    45A     -0.707851
      46A     -0.689063    47A     -0.678388    48A     -0.674263
      49A     -0.662109    50A     -0.660771    51A     -0.644159
      52A     -0.634847    53A     -0.627911    54A     -0.616147
      55A     -0.604939    56A     -0.599091    57A     -0.582101
      58A     -0.575637    59A     -0.571223    60A     -0.560872
      61A     -0.556877    62A     -0.548614    63A     -0.541431
      64A     -0.536957    65A     -0.530113    66A     -0.521916
      67A     -0.513923    68A     -0.504586    69A     -0.497179
      70A     -0.484812    71A     -0.479966    72A     -0.476678
      73A     -0.463920    74A     -0.457079    75A     -0.450600
      76A     -0.436115

  @DF-RHF Final Energy: -1327.85652969209195

   => Energetics <=

    Nuclear Repulsion Energy =           1773.0780831646816296
    One-Electron Energy =               -5358.2485794038075255
    Two-Electron Energy =                2257.3139665470339423
    Total Energy =                      -1327.8565296920919536
  Basis Set: (AUG-CC-PVTZ AUX)
    Blend: AUG-CC-PVTZ-RI
    Molecular point group: c1

    Geometry (in Angstrom), charge = 0, multiplicity = 1:

       Center              X                  Y                   Z               Mass
    ------------   -----------------  -----------------  -----------------  -----------------
         P           -2.290178407634    -0.939966967831     0.344346583133    30.973761998420
         O           -0.982235407634    -0.201485967831     0.937957583133    15.994914619570
         O            1.342167592366    -1.675406967831     1.230519583133    15.994914619570
         O            0.078622592366     2.359680032169     0.461836583133    15.994914619570
         O            3.068432592366    -2.186995967831    -0.808921416867    15.994914619570
         O            2.847252592366     2.503189032169     0.371203583133    15.994914619570
         O            4.195605592366     0.435473032169    -0.973205416867    15.994914619570
         O           -2.826945407634     0.033427032169    -0.807862416867    15.994914619570
         O           -3.259203407634    -0.723205967831     1.621339583133    15.994914619570
         O           -2.119075407634    -2.343567967831    -0.099999416867    15.994914619570
         C            0.118079592366     0.030085032169     0.015987583133    12.000000000000
         C            0.953209592366    -1.244128967831    -0.076056416867    12.000000000000
         C            0.898506592366     1.202720032169     0.564519583133    12.000000000000
         C            2.259577592366    -1.014230967831    -0.818368416867    12.000000000000
         C            2.176992592366     1.396548032169    -0.228372416867    12.000000000000
         C            3.025759592366     0.148781032169    -0.210653416867    12.000000000000
         C           -3.124295407634     1.431674032169    -0.489217416867    12.000000000000
         C           -3.536399407634     2.085241032169    -1.784450416867    12.000000000000
         H           -0.283174407634     0.298877032169    -0.970569416867     1.007825032230
         H            0.370186592366    -2.029287967831    -0.572363416867     1.007825032230
         H            1.157037592366     0.997953032169     1.611824583133     1.007825032230
         H            2.060851592366    -0.788583967831    -1.873087416867     1.007825032230
         H            1.940468092366     1.614636232169    -1.179190016867     1.007825032230
         H            3.295772592366    -0.094455967831     0.827314583133     1.007825032230
         H            0.521692592366    -1.887955967831     1.711178583133     1.007825032230
         H            0.665457592366     3.109387032169     0.682852583133     1.007825032230
         H            2.973460592366    -2.547297967831     0.094322583133     1.007825032230
         H            3.721346592366     2.549262032169    -0.059200416867     1.007825032230
         H            4.639644592366    -0.423757967831    -1.097418416867     1.007825032230
         H           -3.808477407634    -1.522261967831     1.734396583133     1.007825032230
         H           -3.930628407634     1.445617032169     0.249054583133     1.007825032230
         H           -2.229844407634     1.892956032169    -0.059427416867     1.007825032230
         H           -3.800603407634     3.130958032169    -1.603002416867     1.007825032230
         H           -2.717278407634     2.053399032169    -2.505206416867     1.007825032230
         H           -4.401026407634     1.574399032169    -2.213055416867     1.007825032230

  Basis Set: AUG-CC-PVTZ
    Blend: AUG-CC-PVTZ
  Basis Set: (AUG-CC-PVTZ AUX)
    Blend: AUG-CC-PVTZ-JKFIT
	 Reference Energy          =   -1327.8565296920919536 [Eh]
	 Singles Energy            =      -0.0000000000000000 [Eh]
	 Same-Spin Energy          =      -1.0143930315665435 [Eh]
	 Opposite-Spin Energy      =      -3.0753562600179394 [Eh]
	 Correlation Energy        =      -4.0897492915844831 [Eh]
	 Total Energy              =   -1331.9462789836763932 [Eh]

	 ================> DF-SCS-MP2 Energies <==================
	-----------------------------------------------------------
	 SCS Same-Spin Scale       =       0.3333333333333333 [-]
	 SCS Opposite-Spin Scale   =       1.2000000000000000 [-]
	 SCS Same-Spin Energy      =      -0.3381310105221811 [Eh]
	 SCS Opposite-Spin Energy  =      -3.6904275120215271 [Eh]
	 SCS Correlation Energy    =      -4.0285585225437082 [Eh]
	 SCS Total Energy          =   -1331.8850882146357435 [Eh]
	-----------------------------------------------------------

  Dipole Moment: [D]
     X:    -1.1407      Y:     1.8510      Z:     0.6752     Total:     2.2766

*** Psi4 exiting successfully. Buy a developer a beer!
