                               Psi4 1.3.2 release

  ==> Input File <==

--------------------------------------------------------------------------
#psi4
#
memory 32 gb

molecule  {
0 1
  P       -2.2900960    -0.9400430     0.3446780
  O       -0.9821530    -0.2015620     0.9382890
  O        1.3422500    -1.6754830     1.2308510
  O        0.0787050     2.3596040     0.4621680
  O        3.0685150    -2.1870720    -0.8085900
  O        2.8473350     2.5031130     0.3715350
  O        4.1956880     0.4353970    -0.9728740
  O       -2.8268630     0.0333510    -0.8075310
  O       -3.2591210    -0.7232820     1.6216710
  O       -2.1189930    -2.3436440    -0.0996680
  C        0.1181620     0.0300090     0.0163190
  C        0.9532920    -1.2442050    -0.0757250
  C        0.8985890     1.2026440     0.5648510
  C        2.2794028    -1.0036353    -0.8891681
  C        2.1770750     1.3964720    -0.2280410
  C        3.0258420     0.1487050    -0.2103220
  C       -3.1242130     1.4315980    -0.4888860
  C       -3.5363170     2.0851650    -1.7841190
  H       -0.2830920     0.2988010    -0.9702380
  H        0.3702690    -2.0293640    -0.5720320
  H        1.1571200     0.9978770     1.6121560
  H        2.0609340    -0.7886600    -1.8727560
  H        1.9169870     1.6362870    -1.2735830
  H        3.2958550    -0.0945320     0.8276460
  H        0.5217750    -1.8880320     1.7115100
  H        0.6655400     3.1093110     0.6831840
  H        3.0050021    -2.5854455     0.0813266
  H        3.7214290     2.5491860    -0.0588690
  H        4.6397270    -0.4238340    -1.0970870
  H       -3.8083950    -1.5223380     1.7347280
  H       -3.9305460     1.4455410     0.2493860
  H       -2.2297620     1.8928800    -0.0590960
  H       -3.8005210     3.1308820    -1.6026710
  H       -2.7171960     2.0533230    -2.5048750
  H       -4.4009440     1.5743230    -2.2127240
units angstrom
no_reorient  #important for SAPT in psi4, default
symmetry c1  #important for SAPT in psi4, default
}

set PROPERTIES_ORIGIN ["COM"]
properties('MP2/aug-cc-pvtz', properties = ['dipole'])
--------------------------------------------------------------------------

    Molecular point group: c1
  Charge       = 0
  Multiplicity = 1
  Basis Set: AUG-CC-PVTZ
    Blend: AUG-CC-PVTZ
  Basis Set: (AUG-CC-PVTZ AUX)
    Blend: AUG-CC-PVTZ-JKFIT

    Orbital Energies [Eh]
    ---------------------

    Doubly Occupied:

       1A    -80.115976     2A    -20.613960     3A    -20.605411
       4A    -20.598248     5A    -20.581745     6A    -20.576877
       7A    -20.572863     8A    -20.572280     9A    -20.571761
      10A    -20.522437    11A    -11.318841    12A    -11.303369
      13A    -11.299362    14A    -11.298879    15A    -11.297818
      16A    -11.296423    17A    -11.291738    18A    -11.229544
      19A     -7.631421    20A     -5.529928    21A     -5.529555
      22A     -5.528353    23A     -1.459186    24A     -1.408353
      25A     -1.393964    26A     -1.390382    27A     -1.386104
      28A     -1.371430    29A     -1.362467    30A     -1.352359
      31A     -1.302848    32A     -1.115011    33A     -1.040003
      34A     -1.010725    35A     -0.999074    36A     -0.877450
      37A     -0.864450    38A     -0.863427    39A     -0.823250
      40A     -0.811009    41A     -0.748426    42A     -0.743265
      43A     -0.729549    44A     -0.727286    45A     -0.707231
      46A     -0.686669    47A     -0.679527    48A     -0.672382
      49A     -0.664374    50A     -0.661192    51A     -0.641816
      52A     -0.635149    53A     -0.625651    54A     -0.614862
      55A     -0.606072    56A     -0.600550    57A     -0.581913
      58A     -0.575452    59A     -0.569086    60A     -0.559884
      61A     -0.557375    62A     -0.547985    63A     -0.540934
      64A     -0.536824    65A     -0.529276    66A     -0.520728
      67A     -0.511970    68A     -0.501811    69A     -0.495637
      70A     -0.481688    71A     -0.478770    72A     -0.475515
      73A     -0.460567    74A     -0.455191    75A     -0.447929
      76A     -0.430990

  @DF-RHF Final Energy: -1327.85587335783407

   => Energetics <=

    Nuclear Repulsion Energy =           1771.0456059440357421
    One-Electron Energy =               -5354.3593362088768117
    Two-Electron Energy =                2255.4578569070072263
    Total Energy =                      -1327.8558733578338433
  Basis Set: (AUG-CC-PVTZ AUX)
    Blend: AUG-CC-PVTZ-RI
    Molecular point group: c1

    Geometry (in Angstrom), charge = 0, multiplicity = 1:

       Center              X                  Y                   Z               Mass
    ------------   -----------------  -----------------  -----------------  -----------------
         P           -2.291028473998    -0.940354343403     0.347687786715    30.973761998420
         O           -0.983085473998    -0.201873343403     0.941298786715    15.994914619570
         O            1.341317526002    -1.675794343403     1.233860786715    15.994914619570
         O            0.077772526002     2.359292656597     0.465177786715    15.994914619570
         O            3.067582526002    -2.187383343403    -0.805580213285    15.994914619570
         O            2.846402526002     2.502801656597     0.374544786715    15.994914619570
         O            4.194755526002     0.435085656597    -0.969864213285    15.994914619570
         O           -2.827795473998     0.033039656597    -0.804521213285    15.994914619570
         O           -3.260053473998    -0.723593343403     1.624680786715    15.994914619570
         O           -2.119925473998    -2.343955343403    -0.096658213285    15.994914619570
         C            0.117229526002     0.029697656597     0.019328786715    12.000000000000
         C            0.952359526002    -1.244516343403    -0.072715213285    12.000000000000
         C            0.897656526002     1.202332656597     0.567860786715    12.000000000000
         C            2.278470326002    -1.003946643403    -0.886158313285    12.000000000000
         C            2.176142526002     1.396160656597    -0.225031213285    12.000000000000
         C            3.024909526002     0.148393656597    -0.207312213285    12.000000000000
         C           -3.125145473998     1.431286656597    -0.485876213285    12.000000000000
         C           -3.537249473998     2.084853656597    -1.781109213285    12.000000000000
         H           -0.284024473998     0.298489656597    -0.967228213285     1.007825032230
         H            0.369336526002    -2.029675343403    -0.569022213285     1.007825032230
         H            1.156187526002     0.997565656597     1.615165786715     1.007825032230
         H            2.060001526002    -0.788971343403    -1.869746213285     1.007825032230
         H            1.916054526002     1.635975656597    -1.270573213285     1.007825032230
         H            3.294922526002    -0.094843343403     0.830655786715     1.007825032230
         H            0.520842526002    -1.888343343403     1.714519786715     1.007825032230
         H            0.664607526002     3.108999656597     0.686193786715     1.007825032230
         H            3.004069626002    -2.585756843403     0.084336386715     1.007825032230
         H            3.720496526002     2.548874656597    -0.055859213285     1.007825032230
         H            4.638794526002    -0.424145343403    -1.094077213285     1.007825032230
         H           -3.809327473998    -1.522649343403     1.737737786715     1.007825032230
         H           -3.931478473998     1.445229656597     0.252395786715     1.007825032230
         H           -2.230694473998     1.892568656597    -0.056086213285     1.007825032230
         H           -3.801453473998     3.130570656597    -1.599661213285     1.007825032230
         H           -2.718128473998     2.053011656597    -2.501865213285     1.007825032230
         H           -4.401876473998     1.574011656597    -2.209714213285     1.007825032230

  Basis Set: AUG-CC-PVTZ
    Blend: AUG-CC-PVTZ
  Basis Set: (AUG-CC-PVTZ AUX)
    Blend: AUG-CC-PVTZ-JKFIT
	 Reference Energy          =   -1327.8558733578340707 [Eh]
	 Singles Energy            =      -0.0000000000000000 [Eh]
	 Same-Spin Energy          =      -1.0139472917600167 [Eh]
	 Opposite-Spin Energy      =      -3.0752978865684666 [Eh]
	 Correlation Energy        =      -4.0892451783284836 [Eh]
	 Total Energy              =   -1331.9451185361624539 [Eh]

	 ================> DF-SCS-MP2 Energies <==================
	-----------------------------------------------------------
	 SCS Same-Spin Scale       =       0.3333333333333333 [-]
	 SCS Opposite-Spin Scale   =       1.2000000000000000 [-]
	 SCS Same-Spin Energy      =      -0.3379824305866722 [Eh]
	 SCS Opposite-Spin Energy  =      -3.6903574638821599 [Eh]
	 SCS Correlation Energy    =      -4.0283398944688322 [Eh]
	 SCS Total Energy          =   -1331.8842132523029704 [Eh]
	-----------------------------------------------------------

  Dipole Moment: [D]
     X:    -1.0022      Y:     1.8128      Z:     0.6469     Total:     2.1700

*** Psi4 exiting successfully. Buy a developer a beer!
