                               Psi4 1.3.2 release

  ==> Input File <==

--------------------------------------------------------------------------
#psi4
#
memory 32 gb

molecule  {
0 1
  P       -2.2900960    -0.9400430     0.3446780
  O       -0.9821530    -0.2015620     0.9382890
  O        1.3422500    -1.6754830     1.2308510
  O        0.0787050     2.3596040     0.4621680
  O        3.0685150    -2.1870720    -0.8085900
  O        2.8473350     2.5031130     0.3715350
  O        4.1956880     0.4353970    -0.9728740
  O       -2.8268630     0.0333510    -0.8075310
  O       -3.2675339    -0.7790842     1.6235108
  O       -2.1506022    -2.3586123    -0.0615459
  C        0.1181620     0.0300090     0.0163190
  C        0.9532920    -1.2442050    -0.0757250
  C        0.8985890     1.2026440     0.5648510
  C        2.2596600    -1.0143070    -0.8180370
  C        2.1770750     1.3964720    -0.2280410
  C        3.0258420     0.1487050    -0.2103220
  C       -3.1242130     1.4315980    -0.4888860
  C       -3.5363170     2.0851650    -1.7841190
  H       -0.2830920     0.2988010    -0.9702380
  H        0.3702690    -2.0293640    -0.5720320
  H        1.1571200     0.9978770     1.6121560
  H        2.0609340    -0.7886600    -1.8727560
  H        1.9169870     1.6362870    -1.2735830
  H        3.2958550    -0.0945320     0.8276460
  H        0.5217750    -1.8880320     1.7115100
  H        0.6655400     3.1093110     0.6831840
  H        2.9735430    -2.5473740     0.0946540
  H        3.7214290     2.5491860    -0.0588690
  H        4.6397270    -0.4238340    -1.0970870
  H       -3.8083950    -1.5223380     1.7347280
  H       -3.9305460     1.4455410     0.2493860
  H       -2.2297620     1.8928800    -0.0590960
  H       -3.8005210     3.1308820    -1.6026710
  H       -2.7171960     2.0533230    -2.5048750
  H       -4.4009440     1.5743230    -2.2127240
units angstrom
no_reorient  #important for SAPT in psi4, default
symmetry c1  #important for SAPT in psi4, default
}

set PROPERTIES_ORIGIN ["COM"]
properties('MP2/aug-cc-pvtz', properties = ['dipole'])
--------------------------------------------------------------------------

    Molecular point group: c1
  Charge       = 0
  Multiplicity = 1
  Basis Set: AUG-CC-PVTZ
    Blend: AUG-CC-PVTZ
  Basis Set: (AUG-CC-PVTZ AUX)
    Blend: AUG-CC-PVTZ-JKFIT

    Orbital Energies [Eh]
    ---------------------

    Doubly Occupied:

       1A    -80.117697     2A    -20.609975     3A    -20.605083
       4A    -20.602026     5A    -20.584032     6A    -20.577658
       7A    -20.575445     8A    -20.574877     9A    -20.574629
      10A    -20.519866    11A    -11.322777    12A    -11.305075
      13A    -11.301352    14A    -11.300426    15A    -11.299906
      16A    -11.297722    17A    -11.292351    18A    -11.231169
      19A     -7.632940    20A     -5.531415    21A     -5.531121
      22A     -5.529878    23A     -1.462334    24A     -1.412885
      25A     -1.397835    26A     -1.394512    27A     -1.390780
      28A     -1.374159    29A     -1.364915    30A     -1.354766
      31A     -1.301205    32A     -1.120388    33A     -1.042168
      34A     -1.013512    35A     -1.004645    36A     -0.883303
      37A     -0.866514    38A     -0.860448    39A     -0.828688
      40A     -0.811974    41A     -0.753908    42A     -0.748917
      43A     -0.735152    44A     -0.729719    45A     -0.710748
      46A     -0.688172    47A     -0.678906    48A     -0.673576
      49A     -0.662647    50A     -0.660961    51A     -0.644378
      52A     -0.636124    53A     -0.628881    54A     -0.616629
      55A     -0.604535    56A     -0.599420    57A     -0.581477
      58A     -0.576544    59A     -0.572266    60A     -0.559556
      61A     -0.557081    62A     -0.549422    63A     -0.541957
      64A     -0.537395    65A     -0.531326    66A     -0.522787
      67A     -0.514535    68A     -0.505430    69A     -0.497156
      70A     -0.485985    71A     -0.480047    72A     -0.473574
      73A     -0.462838    74A     -0.456802    75A     -0.451109
      76A     -0.437226

  @DF-RHF Final Energy: -1327.86185704531817

   => Energetics <=

    Nuclear Repulsion Energy =           1771.6308837272222263
    One-Electron Energy =               -5355.2462027782330551
    Two-Electron Energy =                2255.7534620056926542
    Total Energy =                      -1327.8618570453181746
  Basis Set: (AUG-CC-PVTZ AUX)
    Blend: AUG-CC-PVTZ-RI
    Molecular point group: c1

    Geometry (in Angstrom), charge = 0, multiplicity = 1:

       Center              X                  Y                   Z               Mass
    ------------   -----------------  -----------------  -----------------  -----------------
         P           -2.287873694696    -0.936113370091     0.342459060973    30.973761998420
         O           -0.979930694696    -0.197632370091     0.936070060973    15.994914619570
         O            1.344472305304    -1.671553370091     1.228632060973    15.994914619570
         O            0.080927305304     2.363533629909     0.459949060973    15.994914619570
         O            3.070737305304    -2.183142370091    -0.810808939027    15.994914619570
         O            2.849557305304     2.507042629909     0.369316060973    15.994914619570
         O            4.197910305304     0.439326629909    -0.975092939027    15.994914619570
         O           -2.824640694696     0.037280629909    -0.809749939027    15.994914619570
         O           -3.265311594696    -0.775154570091     1.621291860973    15.994914619570
         O           -2.148379894696    -2.354682670091    -0.063764839027    15.994914619570
         C            0.120384305304     0.033938629909     0.014100060973    12.000000000000
         C            0.955514305304    -1.240275370091    -0.077943939027    12.000000000000
         C            0.900811305304     1.206573629909     0.562632060973    12.000000000000
         C            2.261882305304    -1.010377370091    -0.820255939027    12.000000000000
         C            2.179297305304     1.400401629909    -0.230259939027    12.000000000000
         C            3.028064305304     0.152634629909    -0.212540939027    12.000000000000
         C           -3.121990694696     1.435527629909    -0.491104939027    12.000000000000
         C           -3.534094694696     2.089094629909    -1.786337939027    12.000000000000
         H           -0.280869694696     0.302730629909    -0.972456939027     1.007825032230
         H            0.372491305304    -2.025434370091    -0.574250939027     1.007825032230
         H            1.159342305304     1.001806629909     1.609937060973     1.007825032230
         H            2.063156305304    -0.784730370091    -1.874974939027     1.007825032230
         H            1.919209305304     1.640216629909    -1.275801939027     1.007825032230
         H            3.298077305304    -0.090602370091     0.825427060973     1.007825032230
         H            0.523997305304    -1.884102370091     1.709291060973     1.007825032230
         H            0.667762305304     3.113240629909     0.680965060973     1.007825032230
         H            2.975765305304    -2.543444370091     0.092435060973     1.007825032230
         H            3.723651305304     2.553115629909    -0.061087939027     1.007825032230
         H            4.641949305304    -0.419904370091    -1.099305939027     1.007825032230
         H           -3.806172694696    -1.518408370091     1.732509060973     1.007825032230
         H           -3.928323694696     1.449470629909     0.247167060973     1.007825032230
         H           -2.227539694696     1.896809629909    -0.061314939027     1.007825032230
         H           -3.798298694696     3.134811629909    -1.604889939027     1.007825032230
         H           -2.714973694696     2.057252629909    -2.507093939027     1.007825032230
         H           -4.398721694696     1.578252629909    -2.214942939027     1.007825032230

  Basis Set: AUG-CC-PVTZ
    Blend: AUG-CC-PVTZ
  Basis Set: (AUG-CC-PVTZ AUX)
    Blend: AUG-CC-PVTZ-JKFIT
	 Reference Energy          =   -1327.8618570453181746 [Eh]
	 Singles Energy            =      -0.0000000000000000 [Eh]
	 Same-Spin Energy          =      -1.0137300141168792 [Eh]
	 Opposite-Spin Energy      =      -3.0742115477129315 [Eh]
	 Correlation Energy        =      -4.0879415618298109 [Eh]
	 Total Energy              =   -1331.9497986071480682 [Eh]

	 ================> DF-SCS-MP2 Energies <==================
	-----------------------------------------------------------
	 SCS Same-Spin Scale       =       0.3333333333333333 [-]
	 SCS Opposite-Spin Scale   =       1.2000000000000000 [-]
	 SCS Same-Spin Energy      =      -0.3379100047056264 [Eh]
	 SCS Opposite-Spin Energy  =      -3.6890538572555176 [Eh]
	 SCS Correlation Energy    =      -4.0269638619611436 [Eh]
	 SCS Total Energy          =   -1331.8888209072792961 [Eh]
	-----------------------------------------------------------

  Dipole Moment: [D]
     X:    -0.9331      Y:     2.0843      Z:     0.5615     Total:     2.3516

*** Psi4 exiting successfully. Buy a developer a beer!
