                               Psi4 1.3.2 release

  ==> Input File <==

--------------------------------------------------------------------------
#psi4
#
memory 32 gb

molecule  {
0 1
  P       -2.2900960    -0.9400430     0.3446780
  O       -0.9821530    -0.2015620     0.9382890
  O        1.3422500    -1.6754830     1.2308510
  O        0.0787050     2.3596040     0.4621680
  O        3.0685150    -2.1870720    -0.8085900
  O        2.8473350     2.5031130     0.3715350
  O        4.1898198     0.4168870    -0.9884297
  O       -2.8268630     0.0333510    -0.8075310
  O       -3.2591210    -0.7232820     1.6216710
  O       -2.1189930    -2.3436440    -0.0996680
  C        0.1181620     0.0300090     0.0163190
  C        0.9532920    -1.2442050    -0.0757250
  C        0.8985890     1.2026440     0.5648510
  C        2.2779861    -1.0161049    -0.8371223
  C        2.1770750     1.3964720    -0.2280410
  C        3.0258420     0.1487050    -0.2103220
  C       -3.1242130     1.4315980    -0.4888860
  C       -3.5363170     2.0851650    -1.7841190
  H       -0.2830920     0.2988010    -0.9702380
  H        0.3702690    -2.0293640    -0.5720320
  H        1.1571200     0.9978770     1.6121560
  H        2.0609340    -0.7886600    -1.8727560
  H        1.9169870     1.6362870    -1.2735830
  H        3.2958550    -0.0945320     0.8276460
  H        0.5217750    -1.8880320     1.7115100
  H        0.6655400     3.1093110     0.6831840
  H        2.9735430    -2.5473740     0.0946540
  H        3.7214290     2.5491860    -0.0588690
  H        4.6397270    -0.4238340    -1.0970870
  H       -3.8083950    -1.5223380     1.7347280
  H       -3.9305460     1.4455410     0.2493860
  H       -2.2297620     1.8928800    -0.0590960
  H       -3.8005210     3.1308820    -1.6026710
  H       -2.7171960     2.0533230    -2.5048750
  H       -4.4009440     1.5743230    -2.2127240
units angstrom
no_reorient  #important for SAPT in psi4, default
symmetry c1  #important for SAPT in psi4, default
}

set PROPERTIES_ORIGIN ["COM"]
properties('MP2/aug-cc-pvtz', properties = ['dipole'])
--------------------------------------------------------------------------

    Molecular point group: c1
  Charge       = 0
  Multiplicity = 1
  Basis Set: AUG-CC-PVTZ
    Blend: AUG-CC-PVTZ
  Basis Set: (AUG-CC-PVTZ AUX)
    Blend: AUG-CC-PVTZ-JKFIT

    Orbital Energies [Eh]
    ---------------------

    Doubly Occupied:

       1A    -80.116579     2A    -20.614447     3A    -20.606497
       4A    -20.598669     5A    -20.582601     6A    -20.577490
       7A    -20.574731     8A    -20.573511     9A    -20.571506
      10A    -20.523027    11A    -11.320044    12A    -11.302916
      13A    -11.299204    14A    -11.298657    15A    -11.298505
      16A    -11.297266    17A    -11.291413    18A    -11.229734
      19A     -7.632028    20A     -5.530534    21A     -5.530161
      22A     -5.528959    23A     -1.459892    24A     -1.411102
      25A     -1.395333    26A     -1.393583    27A     -1.386677
      28A     -1.373284    29A     -1.365118    30A     -1.355554
      31A     -1.303431    32A     -1.117133    33A     -1.040292
      34A     -1.012266    35A     -1.000556    36A     -0.879725
      37A     -0.864584    38A     -0.860585    39A     -0.822660
      40A     -0.810876    41A     -0.751071    42A     -0.745561
      43A     -0.731203    44A     -0.728232    45A     -0.707687
      46A     -0.687190    47A     -0.678962    48A     -0.673942
      49A     -0.665701    50A     -0.661551    51A     -0.642714
      52A     -0.635448    53A     -0.627434    54A     -0.615517
      55A     -0.604141    56A     -0.599696    57A     -0.581648
      58A     -0.575510    59A     -0.570490    60A     -0.559663
      61A     -0.557002    62A     -0.548440    63A     -0.541105
      64A     -0.536801    65A     -0.529388    66A     -0.521495
      67A     -0.512951    68A     -0.503220    69A     -0.496622
      70A     -0.483545    71A     -0.479466    72A     -0.476205
      73A     -0.461852    74A     -0.456987    75A     -0.449351
      76A     -0.434005

  @DF-RHF Final Energy: -1327.86218189310603

   => Energetics <=

    Nuclear Repulsion Energy =           1772.1533038301699889
    One-Electron Energy =               -5356.4651096344978214
    Two-Electron Energy =                2256.4496239112218063
    Total Energy =                      -1327.8621818931060261
  Basis Set: (AUG-CC-PVTZ AUX)
    Blend: AUG-CC-PVTZ-RI
    Molecular point group: c1

    Geometry (in Angstrom), charge = 0, multiplicity = 1:

       Center              X                  Y                   Z               Mass
    ------------   -----------------  -----------------  -----------------  -----------------
         P           -2.290533554460    -0.938940296962     0.346336791030    30.973761998420
         O           -0.982590554460    -0.200459296962     0.939947791030    15.994914619570
         O            1.341812445540    -1.674380296962     1.232509791030    15.994914619570
         O            0.078267445540     2.360706703038     0.463826791030    15.994914619570
         O            3.068077445540    -2.185969296962    -0.806931208970    15.994914619570
         O            2.846897445540     2.504215703038     0.373193791030    15.994914619570
         O            4.189382245540     0.417989703038    -0.986770908970    15.994914619570
         O           -2.827300554460     0.034453703038    -0.805872208970    15.994914619570
         O           -3.259558554460    -0.722179296962     1.623329791030    15.994914619570
         O           -2.119430554460    -2.342541296962    -0.098009208970    15.994914619570
         C            0.117724445540     0.031111703038     0.017977791030    12.000000000000
         C            0.952854445540    -1.243102296962    -0.074066208970    12.000000000000
         C            0.898151445540     1.203746703038     0.566509791030    12.000000000000
         C            2.277548545540    -1.015002196962    -0.835463508970    12.000000000000
         C            2.176637445540     1.397574703038    -0.226382208970    12.000000000000
         C            3.025404445540     0.149807703038    -0.208663208970    12.000000000000
         C           -3.124650554460     1.432700703038    -0.487227208970    12.000000000000
         C           -3.536754554460     2.086267703038    -1.782460208970    12.000000000000
         H           -0.283529554460     0.299903703038    -0.968579208970     1.007825032230
         H            0.369831445540    -2.028261296962    -0.570373208970     1.007825032230
         H            1.156682445540     0.998979703038     1.613814791030     1.007825032230
         H            2.060496445540    -0.787557296962    -1.871097208970     1.007825032230
         H            1.916549445540     1.637389703038    -1.271924208970     1.007825032230
         H            3.295417445540    -0.093429296962     0.829304791030     1.007825032230
         H            0.521337445540    -1.886929296962     1.713168791030     1.007825032230
         H            0.665102445540     3.110413703038     0.684842791030     1.007825032230
         H            2.973105445540    -2.546271296962     0.096312791030     1.007825032230
         H            3.720991445540     2.550288703038    -0.057210208970     1.007825032230
         H            4.639289445540    -0.422731296962    -1.095428208970     1.007825032230
         H           -3.808832554460    -1.521235296962     1.736386791030     1.007825032230
         H           -3.930983554460     1.446643703038     0.251044791030     1.007825032230
         H           -2.230199554460     1.893982703038    -0.057437208970     1.007825032230
         H           -3.800958554460     3.131984703038    -1.601012208970     1.007825032230
         H           -2.717633554460     2.054425703038    -2.503216208970     1.007825032230
         H           -4.401381554460     1.575425703038    -2.211065208970     1.007825032230

  Basis Set: AUG-CC-PVTZ
    Blend: AUG-CC-PVTZ
  Basis Set: (AUG-CC-PVTZ AUX)
    Blend: AUG-CC-PVTZ-JKFIT
	 Reference Energy          =   -1327.8621818931060261 [Eh]
	 Singles Energy            =      -0.0000000000000000 [Eh]
	 Same-Spin Energy          =      -1.0141402420454593 [Eh]
	 Opposite-Spin Energy      =      -3.0751047075047797 [Eh]
	 Correlation Energy        =      -4.0892449495502392 [Eh]
	 Total Energy              =   -1331.9514268426562467 [Eh]

	 ================> DF-SCS-MP2 Energies <==================
	-----------------------------------------------------------
	 SCS Same-Spin Scale       =       0.3333333333333333 [-]
	 SCS Opposite-Spin Scale   =       1.2000000000000000 [-]
	 SCS Same-Spin Energy      =      -0.3380467473484864 [Eh]
	 SCS Opposite-Spin Energy  =      -3.6901256490057355 [Eh]
	 SCS Correlation Energy    =      -4.0281723963542220 [Eh]
	 SCS Total Energy          =   -1331.8903542894602197 [Eh]
	-----------------------------------------------------------

  Dipole Moment: [D]
     X:    -1.0579      Y:     1.8814      Z:     0.7372     Total:     2.2809

*** Psi4 exiting successfully. Buy a developer a beer!
