                               Psi4 1.3.2 release

  ==> Input File <==

--------------------------------------------------------------------------
#psi4
#
memory 32 gb

molecule  {
0 1
  P       -2.2900960    -0.9400430     0.3446780
  O       -0.9821530    -0.2015620     0.9382890
  O        1.3422500    -1.6754830     1.2308510
  O        0.0787050     2.3596040     0.4621680
  O        3.0685150    -2.1870720    -0.8085900
  O        2.8473350     2.5031130     0.3715350
  O        4.1956880     0.4353970    -0.9728740
  O       -2.8268630     0.0333510    -0.8075310
  O       -3.2591210    -0.7232820     1.6216710
  O       -2.1189930    -2.3436440    -0.0996680
  C        0.1181620     0.0300090     0.0163190
  C        0.9532920    -1.2442050    -0.0757250
  C        0.8985890     1.2026440     0.5648510
  C        2.2596600    -1.0143070    -0.8180370
  C        2.1770750     1.3964720    -0.2280410
  C        3.0258420     0.1487050    -0.2103220
  C       -3.1242130     1.4315980    -0.4888860
  C       -3.5363170     2.0851650    -1.7841190
  H       -0.2830920     0.2988010    -0.9702380
  H        0.3702690    -2.0293640    -0.5720320
  H        1.1571200     0.9978770     1.6121560
  H        2.0609340    -0.7886600    -1.8727560
  H        1.9169870     1.6362870    -1.2735830
  H        3.2958550    -0.0945320     0.8276460
  H        0.6901871    -1.8444038     1.6128491
  H        0.6655400     3.1093110     0.6831840
  H        2.9735430    -2.5473740     0.0946540
  H        3.7214290     2.5491860    -0.0588690
  H        4.6397270    -0.4238340    -1.0970870
  H       -3.8083950    -1.5223380     1.7347280
  H       -3.9305460     1.4455410     0.2493860
  H       -2.2297620     1.8928800    -0.0590960
  H       -3.8005210     3.1308820    -1.6026710
  H       -2.7171960     2.0533230    -2.5048750
  H       -4.4009440     1.5743230    -2.2127240
units angstrom
no_reorient  #important for SAPT in psi4, default
symmetry c1  #important for SAPT in psi4, default
}

set PROPERTIES_ORIGIN ["COM"]
properties('MP2/aug-cc-pvtz', properties = ['dipole'])
--------------------------------------------------------------------------

    Molecular point group: c1
  Charge       = 0
  Multiplicity = 1
  Basis Set: AUG-CC-PVTZ
    Blend: AUG-CC-PVTZ
  Basis Set: (AUG-CC-PVTZ AUX)
    Blend: AUG-CC-PVTZ-JKFIT

    Orbital Energies [Eh]
    ---------------------

    Doubly Occupied:

       1A    -80.116327     2A    -20.613824     3A    -20.606657
       4A    -20.598697     5A    -20.577582     6A    -20.576064
       7A    -20.575098     8A    -20.574203     9A    -20.564742
      10A    -20.522549    11A    -11.322231    12A    -11.306599
      13A    -11.300885    14A    -11.299671    15A    -11.299278
      16A    -11.297621    17A    -11.292601    18A    -11.229843
      19A     -7.631762    20A     -5.530270    21A     -5.529894
      22A     -5.528694    23A     -1.463019    24A     -1.448347
      25A     -1.402442    26A     -1.394281    27A     -1.386515
      28A     -1.381673    29A     -1.367858    30A     -1.356034
      31A     -1.302992    32A     -1.125613    33A     -1.040393
      34A     -1.015535    35A     -1.009878    36A     -0.885317
      37A     -0.866551    38A     -0.861244    39A     -0.827721
      40A     -0.822230    41A     -0.762914    42A     -0.747559
      43A     -0.734655    44A     -0.729903    45A     -0.709029
      46A     -0.690085    47A     -0.688303    48A     -0.674494
      49A     -0.663496    50A     -0.661823    51A     -0.644792
      52A     -0.636532    53A     -0.627944    54A     -0.618213
      55A     -0.604584    56A     -0.602632    57A     -0.582654
      58A     -0.577869    59A     -0.574865    60A     -0.560417
      61A     -0.557669    62A     -0.550532    63A     -0.541404
      64A     -0.538688    65A     -0.531307    66A     -0.523586
      67A     -0.513945    68A     -0.507243    69A     -0.498291
      70A     -0.485918    71A     -0.480143    72A     -0.476119
      73A     -0.463063    74A     -0.456965    75A     -0.452232
      76A     -0.438498

  @DF-RHF Final Energy: -1327.81593735345837

   => Energetics <=

    Nuclear Repulsion Energy =           1773.8539699144364477
    One-Electron Energy =               -5359.4176101542334436
    Two-Electron Energy =                2257.7477028863381747
    Total Energy =                      -1327.8159373534585939
  Basis Set: (AUG-CC-PVTZ AUX)
    Blend: AUG-CC-PVTZ-RI
    Molecular point group: c1

    Geometry (in Angstrom), charge = 0, multiplicity = 1:

       Center              X                  Y                   Z               Mass
    ------------   -----------------  -----------------  -----------------  -----------------
         P           -2.290685182363    -0.940195622180     0.345023170847    30.973761998420
         O           -0.982742182363    -0.201714622180     0.938634170847    15.994914619570
         O            1.341660817637    -1.675635622180     1.231196170847    15.994914619570
         O            0.078115817637     2.359451377820     0.462513170847    15.994914619570
         O            3.067925817637    -2.187224622180    -0.808244829153    15.994914619570
         O            2.846745817637     2.502960377820     0.371880170847    15.994914619570
         O            4.195098817637     0.435244377820    -0.972528829153    15.994914619570
         O           -2.827452182363     0.033198377820    -0.807185829153    15.994914619570
         O           -3.259710182363    -0.723434622180     1.622016170847    15.994914619570
         O           -2.119582182363    -2.343796622180    -0.099322829153    15.994914619570
         C            0.117572817637     0.029856377820     0.016664170847    12.000000000000
         C            0.952702817637    -1.244357622180    -0.075379829153    12.000000000000
         C            0.897999817637     1.202491377820     0.565196170847    12.000000000000
         C            2.259070817637    -1.014459622180    -0.817691829153    12.000000000000
         C            2.176485817637     1.396319377820    -0.227695829153    12.000000000000
         C            3.025252817637     0.148552377820    -0.209976829153    12.000000000000
         C           -3.124802182363     1.431445377820    -0.488540829153    12.000000000000
         C           -3.536906182363     2.085012377820    -1.783773829153    12.000000000000
         H           -0.283681182363     0.298648377820    -0.969892829153     1.007825032230
         H            0.369679817637    -2.029516622180    -0.571686829153     1.007825032230
         H            1.156530817637     0.997724377820     1.612501170847     1.007825032230
         H            2.060344817637    -0.788812622180    -1.872410829153     1.007825032230
         H            1.916397817637     1.636134377820    -1.273237829153     1.007825032230
         H            3.295265817637    -0.094684622180     0.827991170847     1.007825032230
         H            0.689597917637    -1.844556422180     1.613194270847     1.007825032230
         H            0.664950817637     3.109158377820     0.683529170847     1.007825032230
         H            2.972953817637    -2.547526622180     0.094999170847     1.007825032230
         H            3.720839817637     2.549033377820    -0.058523829153     1.007825032230
         H            4.639137817637    -0.423986622180    -1.096741829153     1.007825032230
         H           -3.808984182363    -1.522490622180     1.735073170847     1.007825032230
         H           -3.931135182363     1.445388377820     0.249731170847     1.007825032230
         H           -2.230351182363     1.892727377820    -0.058750829153     1.007825032230
         H           -3.801110182363     3.130729377820    -1.602325829153     1.007825032230
         H           -2.717785182363     2.053170377820    -2.504529829153     1.007825032230
         H           -4.401533182363     1.574170377820    -2.212378829153     1.007825032230

  Basis Set: AUG-CC-PVTZ
    Blend: AUG-CC-PVTZ
  Basis Set: (AUG-CC-PVTZ AUX)
    Blend: AUG-CC-PVTZ-JKFIT
	 Reference Energy          =   -1327.8159373534583665 [Eh]
	 Singles Energy            =      -0.0000000000000000 [Eh]
	 Same-Spin Energy          =      -1.0119695823491404 [Eh]
	 Opposite-Spin Energy      =      -3.0702622290736268 [Eh]
	 Correlation Energy        =      -4.0822318114227674 [Eh]
	 Total Energy              =   -1331.8981691648812102 [Eh]

	 ================> DF-SCS-MP2 Energies <==================
	-----------------------------------------------------------
	 SCS Same-Spin Scale       =       0.3333333333333333 [-]
	 SCS Opposite-Spin Scale   =       1.2000000000000000 [-]
	 SCS Same-Spin Energy      =      -0.3373231941163801 [Eh]
	 SCS Opposite-Spin Energy  =      -3.6843146748883520 [Eh]
	 SCS Correlation Energy    =      -4.0216378690047323 [Eh]
	 SCS Total Energy          =   -1331.8375752224631015 [Eh]
	-----------------------------------------------------------

  Dipole Moment: [D]
     X:    -0.9479      Y:     1.9261      Z:     0.5858     Total:     2.2252

*** Psi4 exiting successfully. Buy a developer a beer!
