                               Psi4 1.3.2 release

  ==> Input File <==

--------------------------------------------------------------------------
#psi4
#
memory 32 gb

molecule  {
0 1
  P       -2.2900960    -0.9400430     0.3446780
  O       -1.0293356    -0.1324145     0.9502046
  O        1.3422500    -1.6754830     1.2308510
  O        0.0787050     2.3596040     0.4621680
  O        3.0685150    -2.1870720    -0.8085900
  O        2.8473350     2.5031130     0.3715350
  O        4.1956880     0.4353970    -0.9728740
  O       -2.8268630     0.0333510    -0.8075310
  O       -3.2591210    -0.7232820     1.6216710
  O       -2.1940690    -2.3444453    -0.1192708
  C        0.1181620     0.0300090     0.0163190
  C        0.9532920    -1.2442050    -0.0757250
  C        0.8985890     1.2026440     0.5648510
  C        2.2596600    -1.0143070    -0.8180370
  C        2.1770750     1.3964720    -0.2280410
  C        3.0258420     0.1487050    -0.2103220
  C       -3.1242130     1.4315980    -0.4888860
  C       -3.5363170     2.0851650    -1.7841190
  H       -0.2830920     0.2988010    -0.9702380
  H        0.3702690    -2.0293640    -0.5720320
  H        1.1571200     0.9978770     1.6121560
  H        2.0609340    -0.7886600    -1.8727560
  H        1.9169870     1.6362870    -1.2735830
  H        3.2958550    -0.0945320     0.8276460
  H        0.5217750    -1.8880320     1.7115100
  H        0.6655400     3.1093110     0.6831840
  H        2.9735430    -2.5473740     0.0946540
  H        3.7214290     2.5491860    -0.0588690
  H        4.6397270    -0.4238340    -1.0970870
  H       -3.8083950    -1.5223380     1.7347280
  H       -3.9305460     1.4455410     0.2493860
  H       -2.2297620     1.8928800    -0.0590960
  H       -3.8005210     3.1308820    -1.6026710
  H       -2.7171960     2.0533230    -2.5048750
  H       -4.4009440     1.5743230    -2.2127240
units angstrom
no_reorient  #important for SAPT in psi4, default
symmetry c1  #important for SAPT in psi4, default
}

set PROPERTIES_ORIGIN ["COM"]
properties('MP2/aug-cc-pvtz', properties = ['dipole'])
--------------------------------------------------------------------------

    Molecular point group: c1
  Charge       = 0
  Multiplicity = 1
  Basis Set: AUG-CC-PVTZ
    Blend: AUG-CC-PVTZ
  Basis Set: (AUG-CC-PVTZ AUX)
    Blend: AUG-CC-PVTZ-JKFIT

    Orbital Energies [Eh]
    ---------------------

    Doubly Occupied:

       1A    -80.114287     2A    -20.610858     3A    -20.608722
       4A    -20.592742     5A    -20.587920     6A    -20.578318
       7A    -20.578275     8A    -20.576334     9A    -20.574129
      10A    -20.526063    11A    -11.325997    12A    -11.310095
      13A    -11.303739    14A    -11.300891    15A    -11.298611
      16A    -11.295405    17A    -11.294078    18A    -11.227282
      19A     -7.629927    20A     -5.528520    21A     -5.527994
      22A     -5.526828    23A     -1.456561    24A     -1.411975
      25A     -1.396032    26A     -1.391334    27A     -1.382010
      28A     -1.372500    29A     -1.366366    30A     -1.355813
      31A     -1.304790    32A     -1.122625    33A     -1.037164
      34A     -1.014546    35A     -1.006729    36A     -0.879925
      37A     -0.862579    38A     -0.860952    39A     -0.820061
      40A     -0.813010    41A     -0.753613    42A     -0.745937
      43A     -0.731396    44A     -0.722807    45A     -0.706973
      46A     -0.687721    47A     -0.681250    48A     -0.672558
      49A     -0.663721    50A     -0.659675    51A     -0.643704
      52A     -0.634650    53A     -0.627259    54A     -0.615561
      55A     -0.601950    56A     -0.600757    57A     -0.582552
      58A     -0.573184    59A     -0.570847    60A     -0.560098
      61A     -0.559333    62A     -0.547214    63A     -0.539908
      64A     -0.538794    65A     -0.528200    66A     -0.523929
      67A     -0.512414    68A     -0.506057    69A     -0.496665
      70A     -0.487834    71A     -0.478537    72A     -0.475456
      73A     -0.466694    74A     -0.457786    75A     -0.453724
      76A     -0.439769

  @DF-RHF Final Energy: -1327.85649652199481

   => Energetics <=

    Nuclear Repulsion Energy =           1770.6754334712554737
    One-Electron Energy =               -5353.4228135755547555
    Two-Electron Energy =                2254.8908835823044683
    Total Energy =                      -1327.8564965219948135
  Basis Set: (AUG-CC-PVTZ AUX)
    Blend: AUG-CC-PVTZ-RI
    Molecular point group: c1

    Geometry (in Angstrom), charge = 0, multiplicity = 1:

       Center              X                  Y                   Z               Mass
    ------------   -----------------  -----------------  -----------------  -----------------
         P           -2.283307419814    -0.943837982555     0.345104831264    30.973761998420
         O           -1.022547019814    -0.136209482555     0.950631431264    15.994914619570
         O            1.349038580186    -1.679277982555     1.231277831264    15.994914619570
         O            0.085493580186     2.355809017445     0.462594831264    15.994914619570
         O            3.075303580186    -2.190866982555    -0.808163168736    15.994914619570
         O            2.854123580186     2.499318017445     0.371961831264    15.994914619570
         O            4.202476580186     0.431602017445    -0.972447168736    15.994914619570
         O           -2.820074419814     0.029556017445    -0.807104168736    15.994914619570
         O           -3.252332419814    -0.727076982555     1.622097831264    15.994914619570
         O           -2.187280419814    -2.348240282555    -0.118843968736    15.994914619570
         C            0.124950580186     0.026214017445     0.016745831264    12.000000000000
         C            0.960080580186    -1.247999982555    -0.075298168736    12.000000000000
         C            0.905377580186     1.198849017445     0.565277831264    12.000000000000
         C            2.266448580186    -1.018101982555    -0.817610168736    12.000000000000
         C            2.183863580186     1.392677017445    -0.227614168736    12.000000000000
         C            3.032630580186     0.144910017445    -0.209895168736    12.000000000000
         C           -3.117424419814     1.427803017445    -0.488459168736    12.000000000000
         C           -3.529528419814     2.081370017445    -1.783692168736    12.000000000000
         H           -0.276303419814     0.295006017445    -0.969811168736     1.007825032230
         H            0.377057580186    -2.033158982555    -0.571605168736     1.007825032230
         H            1.163908580186     0.994082017445     1.612582831264     1.007825032230
         H            2.067722580186    -0.792454982555    -1.872329168736     1.007825032230
         H            1.923775580186     1.632492017445    -1.273156168736     1.007825032230
         H            3.302643580186    -0.098326982555     0.828072831264     1.007825032230
         H            0.528563580186    -1.891826982555     1.711936831264     1.007825032230
         H            0.672328580186     3.105516017445     0.683610831264     1.007825032230
         H            2.980331580186    -2.551168982555     0.095080831264     1.007825032230
         H            3.728217580186     2.545391017445    -0.058442168736     1.007825032230
         H            4.646515580186    -0.427628982555    -1.096660168736     1.007825032230
         H           -3.801606419814    -1.526132982555     1.735154831264     1.007825032230
         H           -3.923757419814     1.441746017445     0.249812831264     1.007825032230
         H           -2.222973419814     1.889085017445    -0.058669168736     1.007825032230
         H           -3.793732419814     3.127087017445    -1.602244168736     1.007825032230
         H           -2.710407419814     2.049528017445    -2.504448168736     1.007825032230
         H           -4.394155419814     1.570528017445    -2.212297168736     1.007825032230

  Basis Set: AUG-CC-PVTZ
    Blend: AUG-CC-PVTZ
  Basis Set: (AUG-CC-PVTZ AUX)
    Blend: AUG-CC-PVTZ-JKFIT
	 Reference Energy          =   -1327.8564965219948135 [Eh]
	 Singles Energy            =      -0.0000000000000000 [Eh]
	 Same-Spin Energy          =      -1.0150626445582955 [Eh]
	 Opposite-Spin Energy      =      -3.0775717442335382 [Eh]
	 Correlation Energy        =      -4.0926343887918337 [Eh]
	 Total Energy              =   -1331.9491309107866073 [Eh]

	 ================> DF-SCS-MP2 Energies <==================
	-----------------------------------------------------------
	 SCS Same-Spin Scale       =       0.3333333333333333 [-]
	 SCS Opposite-Spin Scale   =       1.2000000000000000 [-]
	 SCS Same-Spin Energy      =      -0.3383542148527652 [Eh]
	 SCS Opposite-Spin Energy  =      -3.6930860930802458 [Eh]
	 SCS Correlation Energy    =      -4.0314403079330106 [Eh]
	 SCS Total Energy          =   -1331.8879368299278667 [Eh]
	-----------------------------------------------------------

  Dipole Moment: [D]
     X:    -0.5533      Y:     1.7037      Z:     0.7284     Total:     1.9337

*** Psi4 exiting successfully. Buy a developer a beer!
