                               Psi4 1.3.2 release

  ==> Input File <==

--------------------------------------------------------------------------
#psi4
#
memory 32 gb

molecule  {
0 1
  P       -2.2900960    -0.9400430     0.3446780
  O       -0.9821530    -0.2015620     0.9382890
  O        1.3422500    -1.6754830     1.2308510
  O        0.0787050     2.3596040     0.4621680
  O        3.0685150    -2.1870720    -0.8085900
  O        2.8473350     2.5031130     0.3715350
  O        4.1956880     0.4353970    -0.9728740
  O       -2.8268630     0.0333510    -0.8075310
  O       -3.2591210    -0.7232820     1.6216710
  O       -2.1189930    -2.3436440    -0.0996680
  C        0.1181620     0.0300090     0.0163190
  C        0.9532920    -1.2442050    -0.0757250
  C        0.8985890     1.2026440     0.5648510
  C        2.2778510    -0.9583721    -0.7644344
  C        2.1770750     1.3964720    -0.2280410
  C        3.0258420     0.1487050    -0.2103220
  C       -3.1242130     1.4315980    -0.4888860
  C       -3.5363170     2.0851650    -1.7841190
  H       -0.2830920     0.2988010    -0.9702380
  H        0.3297152    -2.0224706    -0.5319768
  H        1.1571200     0.9978770     1.6121560
  H        2.0609340    -0.7886600    -1.8727560
  H        1.9169870     1.6362870    -1.2735830
  H        3.2958550    -0.0945320     0.8276460
  H        0.5217750    -1.8880320     1.7115100
  H        0.6655400     3.1093110     0.6831840
  H        2.9735430    -2.5473740     0.0946540
  H        3.7214290     2.5491860    -0.0588690
  H        4.6397270    -0.4238340    -1.0970870
  H       -3.8083950    -1.5223380     1.7347280
  H       -3.9305460     1.4455410     0.2493860
  H       -2.2297620     1.8928800    -0.0590960
  H       -3.8005210     3.1308820    -1.6026710
  H       -2.7171960     2.0533230    -2.5048750
  H       -4.4009440     1.5743230    -2.2127240
units angstrom
no_reorient  #important for SAPT in psi4, default
symmetry c1  #important for SAPT in psi4, default
}

set PROPERTIES_ORIGIN ["COM"]
properties('MP2/aug-cc-pvtz', properties = ['dipole'])
--------------------------------------------------------------------------

    Molecular point group: c1
  Charge       = 0
  Multiplicity = 1
  Basis Set: AUG-CC-PVTZ
    Blend: AUG-CC-PVTZ
  Basis Set: (AUG-CC-PVTZ AUX)
    Blend: AUG-CC-PVTZ-JKFIT

    Orbital Energies [Eh]
    ---------------------

    Doubly Occupied:

       1A    -80.117616     2A    -20.615221     3A    -20.607411
       4A    -20.599385     5A    -20.581951     6A    -20.578233
       7A    -20.576596     8A    -20.574363     9A    -20.571808
      10A    -20.524451    11A    -11.320178    12A    -11.305469
      13A    -11.301670    14A    -11.299753    15A    -11.299694
      16A    -11.298864    17A    -11.291732    18A    -11.230122
      19A     -7.633068    20A     -5.531574    21A     -5.531198
      22A     -5.530005    23A     -1.460810    24A     -1.410773
      25A     -1.396224    26A     -1.391158    27A     -1.387214
      28A     -1.374071    29A     -1.361760    30A     -1.349069
      31A     -1.304886    32A     -1.126151    33A     -1.040981
      34A     -1.021298    35A     -1.003136    36A     -0.884154
      37A     -0.866151    38A     -0.858489    39A     -0.821794
      40A     -0.808634    41A     -0.753006    42A     -0.747028
      43A     -0.732669    44A     -0.729107    45A     -0.709240
      46A     -0.690776    47A     -0.675705    48A     -0.672906
      49A     -0.664497    50A     -0.658706    51A     -0.644420
      52A     -0.636104    53A     -0.627146    54A     -0.616209
      55A     -0.604660    56A     -0.592420    57A     -0.581249
      58A     -0.575237    59A     -0.572046    60A     -0.559903
      61A     -0.557025    62A     -0.548526    63A     -0.540971
      64A     -0.533332    65A     -0.527901    66A     -0.520093
      67A     -0.512434    68A     -0.503599    69A     -0.497763
      70A     -0.483559    71A     -0.480260    72A     -0.477388
      73A     -0.463269    74A     -0.457686    75A     -0.453203
      76A     -0.446529

  @DF-RHF Final Energy: -1327.85146513851078

   => Energetics <=

    Nuclear Repulsion Energy =           1773.6375628304795100
    One-Electron Energy =               -5359.3106873932265444
    Two-Electron Energy =                2257.8216594242362589
    Total Energy =                      -1327.8514651385107754
  Basis Set: (AUG-CC-PVTZ AUX)
    Blend: AUG-CC-PVTZ-RI
    Molecular point group: c1

    Geometry (in Angstrom), charge = 0, multiplicity = 1:

       Center              X                  Y                   Z               Mass
    ------------   -----------------  -----------------  -----------------  -----------------
         P           -2.290711881342    -0.942397227073     0.342304883033    30.973761998420
         O           -0.982768881342    -0.203916227073     0.935915883033    15.994914619570
         O            1.341634118658    -1.677837227073     1.228477883033    15.994914619570
         O            0.078089118658     2.357249772927     0.459794883033    15.994914619570
         O            3.067899118658    -2.189426227073    -0.810963116967    15.994914619570
         O            2.846719118658     2.500758772927     0.369161883033    15.994914619570
         O            4.195072118658     0.433042772927    -0.975247116967    15.994914619570
         O           -2.827478881342     0.030996772927    -0.809904116967    15.994914619570
         O           -3.259736881342    -0.725636227073     1.619297883033    15.994914619570
         O           -2.119608881342    -2.345998227073    -0.102041116967    15.994914619570
         C            0.117546118658     0.027654772927     0.013945883033    12.000000000000
         C            0.952676118658    -1.246559227073    -0.078098116967    12.000000000000
         C            0.897973118658     1.200289772927     0.562477883033    12.000000000000
         C            2.277235118658    -0.960726327073    -0.766807516967    12.000000000000
         C            2.176459118658     1.394117772927    -0.230414116967    12.000000000000
         C            3.025226118658     0.146350772927    -0.212695116967    12.000000000000
         C           -3.124828881342     1.429243772927    -0.491259116967    12.000000000000
         C           -3.536932881342     2.082810772927    -1.786492116967    12.000000000000
         H           -0.283707881342     0.296446772927    -0.972611116967     1.007825032230
         H            0.329099318658    -2.024824827073    -0.534349916967     1.007825032230
         H            1.156504118658     0.995522772927     1.609782883033     1.007825032230
         H            2.060318118658    -0.791014227073    -1.875129116967     1.007825032230
         H            1.916371118658     1.633932772927    -1.275956116967     1.007825032230
         H            3.295239118658    -0.096886227073     0.825272883033     1.007825032230
         H            0.521159118658    -1.890386227073     1.709136883033     1.007825032230
         H            0.664924118658     3.106956772927     0.680810883033     1.007825032230
         H            2.972927118658    -2.549728227073     0.092280883033     1.007825032230
         H            3.720813118658     2.546831772927    -0.061242116967     1.007825032230
         H            4.639111118658    -0.426188227073    -1.099460116967     1.007825032230
         H           -3.809010881342    -1.524692227073     1.732354883033     1.007825032230
         H           -3.931161881342     1.443186772927     0.247012883033     1.007825032230
         H           -2.230377881342     1.890525772927    -0.061469116967     1.007825032230
         H           -3.801136881342     3.128527772927    -1.605044116967     1.007825032230
         H           -2.717811881342     2.050968772927    -2.507248116967     1.007825032230
         H           -4.401559881342     1.571968772927    -2.215097116967     1.007825032230

  Basis Set: AUG-CC-PVTZ
    Blend: AUG-CC-PVTZ
  Basis Set: (AUG-CC-PVTZ AUX)
    Blend: AUG-CC-PVTZ-JKFIT
	 Reference Energy          =   -1327.8514651385107754 [Eh]
	 Singles Energy            =      -0.0000000000000000 [Eh]
	 Same-Spin Energy          =      -1.0156553587145798 [Eh]
	 Opposite-Spin Energy      =      -3.0779910496356360 [Eh]
	 Correlation Energy        =      -4.0936464083502155 [Eh]
	 Total Energy              =   -1331.9451115468609714 [Eh]

	 ================> DF-SCS-MP2 Energies <==================
	-----------------------------------------------------------
	 SCS Same-Spin Scale       =       0.3333333333333333 [-]
	 SCS Opposite-Spin Scale   =       1.2000000000000000 [-]
	 SCS Same-Spin Energy      =      -0.3385517862381933 [Eh]
	 SCS Opposite-Spin Energy  =      -3.6935892595627631 [Eh]
	 SCS Correlation Energy    =      -4.0321410458009561 [Eh]
	 SCS Total Energy          =   -1331.8836061843117022 [Eh]
	-----------------------------------------------------------

  Dipole Moment: [D]
     X:    -1.1764      Y:     2.0177      Z:     0.7961     Total:     2.4676

*** Psi4 exiting successfully. Buy a developer a beer!
