                               Psi4 1.3.2 release

  ==> Input File <==

--------------------------------------------------------------------------
#psi4
#
memory 32 gb

molecule  {
0 1
  P       -2.2900960    -0.9400430     0.3446780
  O       -0.9821530    -0.2015620     0.9382890
  O        1.3422500    -1.6754830     1.2308510
  O        0.0787050     2.3596040     0.4621680
  O        3.0685150    -2.1870720    -0.8085900
  O        2.8473350     2.5031130     0.3715350
  O        4.1956880     0.4353970    -0.9728740
  O       -2.8268630     0.0333510    -0.8075310
  O       -3.2591210    -0.7232820     1.6216710
  O       -2.1189930    -2.3436440    -0.0996680
  C        0.1181620     0.0300090     0.0163190
  C        0.9532920    -1.2442050    -0.0757250
  C        0.9278511     1.1929226     0.6078901
  C        2.2596600    -1.0143070    -0.8180370
  C        2.1770750     1.3964720    -0.2280410
  C        3.0258420     0.1487050    -0.2103220
  C       -3.1242130     1.4315980    -0.4888860
  C       -3.5363170     2.0851650    -1.7841190
  H       -0.2830920     0.2988010    -0.9702380
  H        0.3702690    -2.0293640    -0.5720320
  H        1.1571200     0.9978770     1.6121560
  H        2.0609340    -0.7886600    -1.8727560
  H        1.9545806     1.6384752    -1.2817230
  H        3.2958550    -0.0945320     0.8276460
  H        0.5217750    -1.8880320     1.7115100
  H        0.6655400     3.1093110     0.6831840
  H        2.9735430    -2.5473740     0.0946540
  H        3.7214290     2.5491860    -0.0588690
  H        4.6397270    -0.4238340    -1.0970870
  H       -3.8083950    -1.5223380     1.7347280
  H       -3.9305460     1.4455410     0.2493860
  H       -2.2297620     1.8928800    -0.0590960
  H       -3.8005210     3.1308820    -1.6026710
  H       -2.7171960     2.0533230    -2.5048750
  H       -4.4009440     1.5743230    -2.2127240
units angstrom
no_reorient  #important for SAPT in psi4, default
symmetry c1  #important for SAPT in psi4, default
}

set PROPERTIES_ORIGIN ["COM"]
properties('MP2/aug-cc-pvtz', properties = ['dipole'])
--------------------------------------------------------------------------

    Molecular point group: c1
  Charge       = 0
  Multiplicity = 1
  Basis Set: AUG-CC-PVTZ
    Blend: AUG-CC-PVTZ
  Basis Set: (AUG-CC-PVTZ AUX)
    Blend: AUG-CC-PVTZ-JKFIT

    Orbital Energies [Eh]
    ---------------------

    Doubly Occupied:

       1A    -80.116747     2A    -20.614590     3A    -20.606759
       4A    -20.598755     5A    -20.583589     6A    -20.575852
       7A    -20.574726     8A    -20.574321     9A    -20.571227
      10A    -20.523322    11A    -11.321762    12A    -11.302810
      13A    -11.299446    14A    -11.298931    15A    -11.298319
      16A    -11.297179    17A    -11.291077    18A    -11.229517
      19A     -7.632203    20A     -5.530712    21A     -5.530333
      22A     -5.529134    23A     -1.459975    24A     -1.410256
      25A     -1.394601    26A     -1.390745    27A     -1.386503
      28A     -1.371318    29A     -1.360579    30A     -1.351547
      31A     -1.303694    32A     -1.117966    33A     -1.040084
      34A     -1.010768    35A     -1.003613    36A     -0.879600
      37A     -0.864527    38A     -0.860831    39A     -0.821220
      40A     -0.813371    41A     -0.750386    42A     -0.745806
      43A     -0.731614    44A     -0.727797    45A     -0.707350
      46A     -0.685087    47A     -0.678312    48A     -0.673486
      49A     -0.662137    50A     -0.660480    51A     -0.643263
      52A     -0.632767    53A     -0.627014    54A     -0.615346
      55A     -0.605652    56A     -0.596412    57A     -0.578924
      58A     -0.575336    59A     -0.570911    60A     -0.558621
      61A     -0.556027    62A     -0.548063    63A     -0.541010
      64A     -0.535766    65A     -0.529906    66A     -0.521036
      67A     -0.513170    68A     -0.504947    69A     -0.497080
      70A     -0.486424    71A     -0.479466    72A     -0.476403
      73A     -0.466760    74A     -0.454132    75A     -0.451314
      76A     -0.435940

  @DF-RHF Final Energy: -1327.85740713942710

   => Energetics <=

    Nuclear Repulsion Energy =           1771.8290126953531853
    One-Electron Energy =               -5355.8395357615436296
    Two-Electron Energy =                2256.1531159267633484
    Total Energy =                      -1327.8574071394268685
  Basis Set: (AUG-CC-PVTZ AUX)
    Blend: AUG-CC-PVTZ-RI
    Molecular point group: c1

    Geometry (in Angstrom), charge = 0, multiplicity = 1:

       Center              X                  Y                   Z               Mass
    ------------   -----------------  -----------------  -----------------  -----------------
         P           -2.291446489955    -0.939645665543     0.342913553826    30.973761998420
         O           -0.983503489955    -0.201164665543     0.936524553826    15.994914619570
         O            1.340899510045    -1.675085665543     1.229086553826    15.994914619570
         O            0.077354510045     2.360001334457     0.460403553826    15.994914619570
         O            3.067164510045    -2.186674665543    -0.810354446174    15.994914619570
         O            2.845984510045     2.503510334457     0.369770553826    15.994914619570
         O            4.194337510045     0.435794334457    -0.974638446174    15.994914619570
         O           -2.828213489955     0.033748334457    -0.809295446174    15.994914619570
         O           -3.260471489955    -0.722884665543     1.619906553826    15.994914619570
         O           -2.120343489955    -2.343246665543    -0.101432446174    15.994914619570
         C            0.116811510045     0.030406334457     0.014554553826    12.000000000000
         C            0.951941510045    -1.243807665543    -0.077489446174    12.000000000000
         C            0.926500610045     1.193319934457     0.606125653826    12.000000000000
         C            2.258309510045    -1.013909665543    -0.819801446174    12.000000000000
         C            2.175724510045     1.396869334457    -0.229805446174    12.000000000000
         C            3.024491510045     0.149102334457    -0.212086446174    12.000000000000
         C           -3.125563489955     1.431995334457    -0.490650446174    12.000000000000
         C           -3.537667489955     2.085562334457    -1.785883446174    12.000000000000
         H           -0.284442489955     0.299198334457    -0.972002446174     1.007825032230
         H            0.368918510045    -2.028966665543    -0.573796446174     1.007825032230
         H            1.155769510045     0.998274334457     1.610391553826     1.007825032230
         H            2.059583510045    -0.788262665543    -1.874520446174     1.007825032230
         H            1.953230110045     1.638872534457    -1.283487446174     1.007825032230
         H            3.294504510045    -0.094134665543     0.825881553826     1.007825032230
         H            0.520424510045    -1.887634665543     1.709745553826     1.007825032230
         H            0.664189510045     3.109708334457     0.681419553826     1.007825032230
         H            2.972192510045    -2.546976665543     0.092889553826     1.007825032230
         H            3.720078510045     2.549583334457    -0.060633446174     1.007825032230
         H            4.638376510045    -0.423436665543    -1.098851446174     1.007825032230
         H           -3.809745489955    -1.521940665543     1.732963553826     1.007825032230
         H           -3.931896489955     1.445938334457     0.247621553826     1.007825032230
         H           -2.231112489955     1.893277334457    -0.060860446174     1.007825032230
         H           -3.801871489955     3.131279334457    -1.604435446174     1.007825032230
         H           -2.718546489955     2.053720334457    -2.506639446174     1.007825032230
         H           -4.402294489955     1.574720334457    -2.214488446174     1.007825032230

  Basis Set: AUG-CC-PVTZ
    Blend: AUG-CC-PVTZ
  Basis Set: (AUG-CC-PVTZ AUX)
    Blend: AUG-CC-PVTZ-JKFIT
	 Reference Energy          =   -1327.8574071394270959 [Eh]
	 Singles Energy            =      -0.0000000000000000 [Eh]
	 Same-Spin Energy          =      -1.0145522608594224 [Eh]
	 Opposite-Spin Energy      =      -3.0766519980134261 [Eh]
	 Correlation Energy        =      -4.0912042588728488 [Eh]
	 Total Energy              =   -1331.9486113983000450 [Eh]

	 ================> DF-SCS-MP2 Energies <==================
	-----------------------------------------------------------
	 SCS Same-Spin Scale       =       0.3333333333333333 [-]
	 SCS Opposite-Spin Scale   =       1.2000000000000000 [-]
	 SCS Same-Spin Energy      =      -0.3381840869531408 [Eh]
	 SCS Opposite-Spin Energy  =      -3.6919823976161110 [Eh]
	 SCS Correlation Energy    =      -4.0301664845692518 [Eh]
	 SCS Total Energy          =   -1331.8875736239963317 [Eh]
	-----------------------------------------------------------

  Dipole Moment: [D]
     X:    -1.0595      Y:     1.8073      Z:     0.7525     Total:     2.2260

*** Psi4 exiting successfully. Buy a developer a beer!
