                               Psi4 1.3.2 release

  ==> Input File <==

--------------------------------------------------------------------------
#psi4
#
memory 32 gb

molecule  {
0 1
  P       -2.2900960    -0.9400430     0.3446780
  O       -0.9821530    -0.2015620     0.9382890
  O        1.3422500    -1.6754830     1.2308510
  O        0.0787050     2.3596040     0.4621680
  O        3.0685150    -2.1870720    -0.8085900
  O        2.8473350     2.5031130     0.3715350
  O        4.1956880     0.4353970    -0.9728740
  O       -2.8268630     0.0333510    -0.8075310
  O       -3.2591210    -0.7232820     1.6216710
  O       -2.1189930    -2.3436440    -0.0996680
  C        0.1181620     0.0300090     0.0163190
  C        0.9532920    -1.2442050    -0.0757250
  C        0.8985890     1.2026440     0.5648510
  C        2.2596600    -1.0143070    -0.8180370
  C        2.1770750     1.3964720    -0.2280410
  C        3.0258420     0.1487050    -0.2103220
  C       -3.1242130     1.4315980    -0.4888860
  C       -3.5363170     2.0851650    -1.7841190
  H       -0.2830920     0.2988010    -0.9702380
  H        0.3702690    -2.0293640    -0.5720320
  H        1.1571200     0.9978770     1.6121560
  H        2.0609340    -0.7886600    -1.8727560
  H        1.9169870     1.6362870    -1.2735830
  H        3.2958550    -0.0945320     0.8276460
  H        0.5217750    -1.8880320     1.7115100
  H        0.6655400     3.1093110     0.6831840
  H        2.9541031    -2.6211247     0.2795402
  H        3.7214290     2.5491860    -0.0588690
  H        4.6397270    -0.4238340    -1.0970870
  H       -3.8083950    -1.5223380     1.7347280
  H       -3.9305460     1.4455410     0.2493860
  H       -2.2297620     1.8928800    -0.0590960
  H       -3.8005210     3.1308820    -1.6026710
  H       -2.7171960     2.0533230    -2.5048750
  H       -4.4009440     1.5743230    -2.2127240
units angstrom
no_reorient  #important for SAPT in psi4, default
symmetry c1  #important for SAPT in psi4, default
}

set PROPERTIES_ORIGIN ["COM"]
properties('MP2/aug-cc-pvtz', properties = ['dipole'])
--------------------------------------------------------------------------

    Molecular point group: c1
  Charge       = 0
  Multiplicity = 1
  Basis Set: AUG-CC-PVTZ
    Blend: AUG-CC-PVTZ
  Basis Set: (AUG-CC-PVTZ AUX)
    Blend: AUG-CC-PVTZ-JKFIT

    Orbital Energies [Eh]
    ---------------------

    Doubly Occupied:

       1A    -80.116944     2A    -20.614794     3A    -20.606906
       4A    -20.598883     5A    -20.585710     6A    -20.583179
       7A    -20.576019     8A    -20.573138     9A    -20.572575
      10A    -20.523484    11A    -11.320445    12A    -11.303029
      13A    -11.299303    14A    -11.298231    15A    -11.296809
      16A    -11.295723    17A    -11.289789    18A    -11.229757
      19A     -7.632395    20A     -5.530902    21A     -5.530528
      22A     -5.529327    23A     -1.460271    24A     -1.408704
      25A     -1.394201    26A     -1.388628    27A     -1.385830
      28A     -1.372475    29A     -1.358361    30A     -1.332822
      31A     -1.303880    32A     -1.116668    33A     -1.040334
      34A     -1.010555    35A     -0.998644    36A     -0.879661
      37A     -0.864667    38A     -0.852275    39A     -0.820716
      40A     -0.806497    41A     -0.750288    42A     -0.744330
      43A     -0.730182    44A     -0.727927    45A     -0.706193
      46A     -0.686453    47A     -0.673722    48A     -0.670702
      49A     -0.661689    50A     -0.643297    51A     -0.640950
      52A     -0.631753    53A     -0.625729    54A     -0.613601
      55A     -0.602819    56A     -0.595129    57A     -0.580986
      58A     -0.575451    59A     -0.571546    60A     -0.558743
      61A     -0.551056    62A     -0.548220    63A     -0.539964
      64A     -0.533833    65A     -0.529159    66A     -0.518023
      67A     -0.510074    68A     -0.500461    69A     -0.495069
      70A     -0.482839    71A     -0.479827    72A     -0.476506
      73A     -0.461525    74A     -0.454470    75A     -0.449488
      76A     -0.433243

  @DF-RHF Final Energy: -1327.82643296027163

   => Energetics <=

    Nuclear Repulsion Energy =           1771.4700437339820382
    One-Electron Energy =               -5355.2763372005538258
    Two-Electron Energy =                2255.9798605063001560
    Total Energy =                      -1327.8264329602716316
  Basis Set: (AUG-CC-PVTZ AUX)
    Blend: AUG-CC-PVTZ-RI
    Molecular point group: c1

    Geometry (in Angstrom), charge = 0, multiplicity = 1:

       Center              X                  Y                   Z               Mass
    ------------   -----------------  -----------------  -----------------  -----------------
         P           -2.290027953736    -0.939784954350     0.344031138443    30.973761998420
         O           -0.982084953736    -0.201303954350     0.937642138443    15.994914619570
         O            1.342318046264    -1.675224954350     1.230204138443    15.994914619570
         O            0.078773046264     2.359862045650     0.461521138443    15.994914619570
         O            3.068583046264    -2.186813954350    -0.809236861557    15.994914619570
         O            2.847403046264     2.503371045650     0.370888138443    15.994914619570
         O            4.195756046264     0.435655045650    -0.973520861557    15.994914619570
         O           -2.826794953736     0.033609045650    -0.808177861557    15.994914619570
         O           -3.259052953736    -0.723023954350     1.621024138443    15.994914619570
         O           -2.118924953736    -2.343385954350    -0.100314861557    15.994914619570
         C            0.118230046264     0.030267045650     0.015672138443    12.000000000000
         C            0.953360046264    -1.243946954350    -0.076371861557    12.000000000000
         C            0.898657046264     1.202902045650     0.564204138443    12.000000000000
         C            2.259728046264    -1.014048954350    -0.818683861557    12.000000000000
         C            2.177143046264     1.396730045650    -0.228687861557    12.000000000000
         C            3.025910046264     0.148963045650    -0.210968861557    12.000000000000
         C           -3.124144953736     1.431856045650    -0.489532861557    12.000000000000
         C           -3.536248953736     2.085423045650    -1.784765861557    12.000000000000
         H           -0.283023953736     0.299059045650    -0.970884861557     1.007825032230
         H            0.370337046264    -2.029105954350    -0.572678861557     1.007825032230
         H            1.157188046264     0.998135045650     1.611509138443     1.007825032230
         H            2.061002046264    -0.788401954350    -1.873402861557     1.007825032230
         H            1.917055046264     1.636545045650    -1.274229861557     1.007825032230
         H            3.295923046264    -0.094273954350     0.826999138443     1.007825032230
         H            0.521843046264    -1.887773954350     1.710863138443     1.007825032230
         H            0.665608046264     3.109569045650     0.682537138443     1.007825032230
         H            2.954171146264    -2.620866654350     0.278893338443     1.007825032230
         H            3.721497046264     2.549444045650    -0.059515861557     1.007825032230
         H            4.639795046264    -0.423575954350    -1.097733861557     1.007825032230
         H           -3.808326953736    -1.522079954350     1.734081138443     1.007825032230
         H           -3.930477953736     1.445799045650     0.248739138443     1.007825032230
         H           -2.229693953736     1.893138045650    -0.059742861557     1.007825032230
         H           -3.800452953736     3.131140045650    -1.603317861557     1.007825032230
         H           -2.717127953736     2.053581045650    -2.505521861557     1.007825032230
         H           -4.400875953736     1.574581045650    -2.213370861557     1.007825032230

  Basis Set: AUG-CC-PVTZ
    Blend: AUG-CC-PVTZ
  Basis Set: (AUG-CC-PVTZ AUX)
    Blend: AUG-CC-PVTZ-JKFIT
	 Reference Energy          =   -1327.8264329602716316 [Eh]
	 Singles Energy            =      -0.0000000000000000 [Eh]
	 Same-Spin Energy          =      -1.0172889662317168 [Eh]
	 Opposite-Spin Energy      =      -3.0829255162642228 [Eh]
	 Correlation Energy        =      -4.1002144824959394 [Eh]
	 Total Energy              =   -1331.9266474427674893 [Eh]

	 ================> DF-SCS-MP2 Energies <==================
	-----------------------------------------------------------
	 SCS Same-Spin Scale       =       0.3333333333333333 [-]
	 SCS Opposite-Spin Scale   =       1.2000000000000000 [-]
	 SCS Same-Spin Energy      =      -0.3390963220772389 [Eh]
	 SCS Opposite-Spin Energy  =      -3.6995106195170671 [Eh]
	 SCS Correlation Energy    =      -4.0386069415943062 [Eh]
	 SCS Total Energy          =   -1331.8650399018658845 [Eh]
	-----------------------------------------------------------

  Dipole Moment: [D]
     X:    -1.1703      Y:     1.7592      Z:     0.9186     Total:     2.3040

*** Psi4 exiting successfully. Buy a developer a beer!
