                               Psi4 1.3.2 release

  ==> Input File <==

--------------------------------------------------------------------------
#psi4
#
memory 32 gb

molecule  {
0 1
  P       -2.2900960    -0.9400430     0.3446780
  O       -0.9821530    -0.2015620     0.9382890
  O        1.3538371    -1.6536624     1.2343659
  O        0.0787050     2.3596040     0.4621680
  O        3.0685150    -2.1870720    -0.8085900
  O        2.8473350     2.5031130     0.3715350
  O        4.1956880     0.4353970    -0.9728740
  O       -2.8268630     0.0333510    -0.8075310
  O       -3.2591210    -0.7232820     1.6216710
  O       -2.1189930    -2.3436440    -0.0996680
  C        0.1181620     0.0300090     0.0163190
  C        0.9532920    -1.2442050    -0.0757250
  C        0.8985890     1.2026440     0.5648510
  C        2.2596600    -1.0143070    -0.8180370
  C        2.1770750     1.3964720    -0.2280410
  C        3.0258420     0.1487050    -0.2103220
  C       -3.1242130     1.4315980    -0.4888860
  C       -3.5363170     2.0851650    -1.7841190
  H       -0.2830920     0.2988010    -0.9702380
  H        0.3685225    -2.0181098    -0.5874154
  H        1.1571200     0.9978770     1.6121560
  H        2.0609340    -0.7886600    -1.8727560
  H        1.9169870     1.6362870    -1.2735830
  H        3.2958550    -0.0945320     0.8276460
  H        0.5217750    -1.8880320     1.7115100
  H        0.6655400     3.1093110     0.6831840
  H        2.9735430    -2.5473740     0.0946540
  H        3.7214290     2.5491860    -0.0588690
  H        4.6397270    -0.4238340    -1.0970870
  H       -3.8083950    -1.5223380     1.7347280
  H       -3.9305460     1.4455410     0.2493860
  H       -2.2297620     1.8928800    -0.0590960
  H       -3.8005210     3.1308820    -1.6026710
  H       -2.7171960     2.0533230    -2.5048750
  H       -4.4009440     1.5743230    -2.2127240
units angstrom
no_reorient  #important for SAPT in psi4, default
symmetry c1  #important for SAPT in psi4, default
}

set PROPERTIES_ORIGIN ["COM"]
properties('MP2/aug-cc-pvtz', properties = ['dipole'])
--------------------------------------------------------------------------

    Molecular point group: c1
  Charge       = 0
  Multiplicity = 1
  Basis Set: AUG-CC-PVTZ
    Blend: AUG-CC-PVTZ
  Basis Set: (AUG-CC-PVTZ AUX)
    Blend: AUG-CC-PVTZ-JKFIT

    Orbital Energies [Eh]
    ---------------------

    Doubly Occupied:

       1A    -80.117004     2A    -20.614788     3A    -20.606960
       4A    -20.598939     5A    -20.585459     6A    -20.576496
       7A    -20.574595     8A    -20.573763     9A    -20.573110
      10A    -20.523621    11A    -11.320247    12A    -11.303628
      13A    -11.299345    14A    -11.298915    15A    -11.298123
      16A    -11.296324    17A    -11.290985    18A    -11.229828
      19A     -7.632455    20A     -5.530961    21A     -5.530588
      22A     -5.529388    23A     -1.460276    24A     -1.410522
      25A     -1.394416    26A     -1.392642    27A     -1.386861
      28A     -1.372187    29A     -1.363429    30A     -1.353487
      31A     -1.304005    32A     -1.118445    33A     -1.040426
      34A     -1.011787    35A     -1.003074    36A     -0.879974
      37A     -0.864771    38A     -0.858819    39A     -0.822228
      40A     -0.809538    41A     -0.750971    42A     -0.745260
      43A     -0.731530    44A     -0.728390    45A     -0.707613
      46A     -0.686845    47A     -0.677888    48A     -0.673586
      49A     -0.661978    50A     -0.660802    51A     -0.642634
      52A     -0.634727    53A     -0.627093    54A     -0.614294
      55A     -0.603379    56A     -0.598658    57A     -0.581529
      58A     -0.575511    59A     -0.570963    60A     -0.559377
      61A     -0.556894    62A     -0.548879    63A     -0.541301
      64A     -0.536094    65A     -0.529751    66A     -0.521565
      67A     -0.512885    68A     -0.504290    69A     -0.497337
      70A     -0.484496    71A     -0.479905    72A     -0.476706
      73A     -0.462170    74A     -0.455542    75A     -0.449762
      76A     -0.436300

  @DF-RHF Final Energy: -1327.85995523986458

   => Energetics <=

    Nuclear Repulsion Energy =           1772.6772452237364632
    One-Electron Energy =               -5357.5157665563901901
    Two-Electron Energy =                2256.9785660927891513
    Total Energy =                      -1327.8599552398645756
  Basis Set: (AUG-CC-PVTZ AUX)
    Blend: AUG-CC-PVTZ-RI
    Molecular point group: c1

    Geometry (in Angstrom), charge = 0, multiplicity = 1:

       Center              X                  Y                   Z               Mass
    ------------   -----------------  -----------------  -----------------  -----------------
         P           -2.290733243634    -0.941293970396     0.344536643114    30.973761998420
         O           -0.982790243634    -0.202812970396     0.938147643114    15.994914619570
         O            1.353199856366    -1.654913370396     1.234224543114    15.994914619570
         O            0.078067756366     2.358353029604     0.462026643114    15.994914619570
         O            3.067877756366    -2.188322970396    -0.808731356886    15.994914619570
         O            2.846697756366     2.501862029604     0.371393643114    15.994914619570
         O            4.195050756366     0.434146029604    -0.973015356886    15.994914619570
         O           -2.827500243634     0.032100029604    -0.807672356886    15.994914619570
         O           -3.259758243634    -0.724532970396     1.621529643114    15.994914619570
         O           -2.119630243634    -2.344894970396    -0.099809356886    15.994914619570
         C            0.117524756366     0.028758029604     0.016177643114    12.000000000000
         C            0.952654756366    -1.245455970396    -0.075866356886    12.000000000000
         C            0.897951756366     1.201393029604     0.564709643114    12.000000000000
         C            2.259022756366    -1.015557970396    -0.818178356886    12.000000000000
         C            2.176437756366     1.395221029604    -0.228182356886    12.000000000000
         C            3.025204756366     0.147454029604    -0.210463356886    12.000000000000
         C           -3.124850243634     1.430347029604    -0.489027356886    12.000000000000
         C           -3.536954243634     2.083914029604    -1.784260356886    12.000000000000
         H           -0.283729243634     0.297550029604    -0.970379356886     1.007825032230
         H            0.367885256366    -2.019360770396    -0.587556756886     1.007825032230
         H            1.156482756366     0.996626029604     1.612014643114     1.007825032230
         H            2.060296756366    -0.789910970396    -1.872897356886     1.007825032230
         H            1.916349756366     1.635036029604    -1.273724356886     1.007825032230
         H            3.295217756366    -0.095782970396     0.827504643114     1.007825032230
         H            0.521137756366    -1.889282970396     1.711368643114     1.007825032230
         H            0.664902756366     3.108060029604     0.683042643114     1.007825032230
         H            2.972905756366    -2.548624970396     0.094512643114     1.007825032230
         H            3.720791756366     2.547935029604    -0.059010356886     1.007825032230
         H            4.639089756366    -0.425084970396    -1.097228356886     1.007825032230
         H           -3.809032243634    -1.523588970396     1.734586643114     1.007825032230
         H           -3.931183243634     1.444290029604     0.249244643114     1.007825032230
         H           -2.230399243634     1.891629029604    -0.059237356886     1.007825032230
         H           -3.801158243634     3.129631029604    -1.602812356886     1.007825032230
         H           -2.717833243634     2.052072029604    -2.505016356886     1.007825032230
         H           -4.401581243634     1.573072029604    -2.212865356886     1.007825032230

  Basis Set: AUG-CC-PVTZ
    Blend: AUG-CC-PVTZ
  Basis Set: (AUG-CC-PVTZ AUX)
    Blend: AUG-CC-PVTZ-JKFIT
	 Reference Energy          =   -1327.8599552398645756 [Eh]
	 Singles Energy            =      -0.0000000000000000 [Eh]
	 Same-Spin Energy          =      -1.0149006260272444 [Eh]
	 Opposite-Spin Energy      =      -3.0767297927458559 [Eh]
	 Correlation Energy        =      -4.0916304187731001 [Eh]
	 Total Energy              =   -1331.9515856586376685 [Eh]

	 ================> DF-SCS-MP2 Energies <==================
	-----------------------------------------------------------
	 SCS Same-Spin Scale       =       0.3333333333333333 [-]
	 SCS Opposite-Spin Scale   =       1.2000000000000000 [-]
	 SCS Same-Spin Energy      =      -0.3383002086757481 [Eh]
	 SCS Opposite-Spin Energy  =      -3.6920757512950271 [Eh]
	 SCS Correlation Energy    =      -4.0303759599707751 [Eh]
	 SCS Total Energy          =   -1331.8903311998353729 [Eh]
	-----------------------------------------------------------

  Dipole Moment: [D]
     X:    -1.1307      Y:     1.8085      Z:     0.7272     Total:     2.2534

*** Psi4 exiting successfully. Buy a developer a beer!
