                               Psi4 1.3.2 release

  ==> Input File <==

--------------------------------------------------------------------------
#psi4
#
memory 32 gb

molecule  {
0 1
  P       -2.2900960    -0.9400430     0.3446780
  O       -0.9821530    -0.2015620     0.9382890
  O        1.3422500    -1.6754830     1.2308510
  O        0.0787050     2.3596040     0.4621680
  O        3.0685150    -2.1870720    -0.8085900
  O        2.8473350     2.5031130     0.3715350
  O        4.1956880     0.4353970    -0.9728740
  O       -2.8268630     0.0333510    -0.8075310
  O       -3.2591210    -0.7232820     1.6216710
  O       -2.1189930    -2.3436440    -0.0996680
  C        0.0628961    -0.0116067     0.0563054
  C        0.9532920    -1.2442050    -0.0757250
  C        0.8985890     1.2026440     0.5648510
  C        2.2772693    -1.0910590    -0.8065519
  C        2.1770750     1.3964720    -0.2280410
  C        3.0258420     0.1487050    -0.2103220
  C       -3.1242130     1.4315980    -0.4888860
  C       -3.5363170     2.0851650    -1.7841190
  H       -0.2830920     0.2988010    -0.9702380
  H        0.3702690    -2.0293640    -0.5720320
  H        1.1571200     0.9978770     1.6121560
  H        2.0609340    -0.7886600    -1.8727560
  H        1.9169870     1.6362870    -1.2735830
  H        3.2958550    -0.0945320     0.8276460
  H        0.5217750    -1.8880320     1.7115100
  H        0.6655400     3.1093110     0.6831840
  H        2.9735430    -2.5473740     0.0946540
  H        3.7214290     2.5491860    -0.0588690
  H        4.6397270    -0.4238340    -1.0970870
  H       -3.8083950    -1.5223380     1.7347280
  H       -3.9305460     1.4455410     0.2493860
  H       -2.2297620     1.8928800    -0.0590960
  H       -3.8005210     3.1308820    -1.6026710
  H       -2.7171960     2.0533230    -2.5048750
  H       -4.4009440     1.5743230    -2.2127240
units angstrom
no_reorient  #important for SAPT in psi4, default
symmetry c1  #important for SAPT in psi4, default
}

set PROPERTIES_ORIGIN ["COM"]
properties('MP2/aug-cc-pvtz', properties = ['dipole'])
--------------------------------------------------------------------------

    Molecular point group: c1
  Charge       = 0
  Multiplicity = 1
  Basis Set: AUG-CC-PVTZ
    Blend: AUG-CC-PVTZ
  Basis Set: (AUG-CC-PVTZ AUX)
    Blend: AUG-CC-PVTZ-JKFIT

    Orbital Energies [Eh]
    ---------------------

    Doubly Occupied:

       1A    -80.121876     2A    -20.618115     3A    -20.616479
       4A    -20.601486     5A    -20.582856     6A    -20.580493
       7A    -20.574018     8A    -20.570845     9A    -20.570073
      10A    -20.526921    11A    -11.319674    12A    -11.300601
      13A    -11.300486    14A    -11.297966    15A    -11.295498
      16A    -11.293006    17A    -11.287180    18A    -11.230358
      19A     -7.637411    20A     -5.535946    21A     -5.535505
      22A     -5.534285    23A     -1.474821    24A     -1.423142
      25A     -1.412191    26A     -1.392475    27A     -1.389814
      28A     -1.375868    29A     -1.369120    30A     -1.353642
      31A     -1.307598    32A     -1.104095    33A     -1.041493
      34A     -1.005203    35A     -0.994634    36A     -0.884459
      37A     -0.865974    38A     -0.857638    39A     -0.824081
      40A     -0.807576    41A     -0.755221    42A     -0.746066
      43A     -0.738673    44A     -0.730397    45A     -0.707319
      46A     -0.686362    47A     -0.684921    48A     -0.675186
      49A     -0.664771    50A     -0.660014    51A     -0.647654
      52A     -0.636364    53A     -0.636310    54A     -0.618940
      55A     -0.608774    56A     -0.597999    57A     -0.580642
      58A     -0.579040    59A     -0.573211    60A     -0.560827
      61A     -0.553210    62A     -0.548870    63A     -0.543553
      64A     -0.538393    65A     -0.528213    66A     -0.517456
      67A     -0.511237    68A     -0.498829    69A     -0.496925
      70A     -0.482125    71A     -0.478850    72A     -0.478010
      73A     -0.459488    74A     -0.452589    75A     -0.442958
      76A     -0.418701

  @DF-RHF Final Energy: -1327.85075283002493

   => Energetics <=

    Nuclear Repulsion Energy =           1772.6206231990504421
    One-Electron Energy =               -5357.2367534042778061
    Two-Electron Energy =                2256.7653773752026609
    Total Energy =                      -1327.8507528300247031
  Basis Set: (AUG-CC-PVTZ AUX)
    Blend: AUG-CC-PVTZ-RI
    Molecular point group: c1

    Geometry (in Angstrom), charge = 0, multiplicity = 1:

       Center              X                  Y                   Z               Mass
    ------------   -----------------  -----------------  -----------------  -----------------
         P           -2.288527274528    -0.935112039554     0.342533799231    30.973761998420
         O           -0.980584274528    -0.196631039554     0.936144799231    15.994914619570
         O            1.343818725472    -1.670552039554     1.228706799231    15.994914619570
         O            0.080273725472     2.364534960446     0.460023799231    15.994914619570
         O            3.070083725472    -2.182141039554    -0.810734200769    15.994914619570
         O            2.848903725472     2.508043960446     0.369390799231    15.994914619570
         O            4.197256725472     0.440327960446    -0.975018200769    15.994914619570
         O           -2.825294274528     0.038281960446    -0.809675200769    15.994914619570
         O           -3.257552274528    -0.718351039554     1.619526799231    15.994914619570
         O           -2.117424274528    -2.338713039554    -0.101812200769    15.994914619570
         C            0.064464825472    -0.006675739554     0.054161199231    12.000000000000
         C            0.954860725472    -1.239274039554    -0.077869200769    12.000000000000
         C            0.900157725472     1.207574960446     0.562706799231    12.000000000000
         C            2.278838025472    -1.086128039554    -0.808696100769    12.000000000000
         C            2.178643725472     1.401402960446    -0.230185200769    12.000000000000
         C            3.027410725472     0.153635960446    -0.212466200769    12.000000000000
         C           -3.122644274528     1.436528960446    -0.491030200769    12.000000000000
         C           -3.534748274528     2.090095960446    -1.786263200769    12.000000000000
         H           -0.281523274528     0.303731960446    -0.972382200769     1.007825032230
         H            0.371837725472    -2.024433039554    -0.574176200769     1.007825032230
         H            1.158688725472     1.002807960446     1.610011799231     1.007825032230
         H            2.062502725472    -0.783729039554    -1.874900200769     1.007825032230
         H            1.918555725472     1.641217960446    -1.275727200769     1.007825032230
         H            3.297423725472    -0.089601039554     0.825501799231     1.007825032230
         H            0.523343725472    -1.883101039554     1.709365799231     1.007825032230
         H            0.667108725472     3.114241960446     0.681039799231     1.007825032230
         H            2.975111725472    -2.542443039554     0.092509799231     1.007825032230
         H            3.722997725472     2.554116960446    -0.061013200769     1.007825032230
         H            4.641295725472    -0.418903039554    -1.099231200769     1.007825032230
         H           -3.806826274528    -1.517407039554     1.732583799231     1.007825032230
         H           -3.928977274528     1.450471960446     0.247241799231     1.007825032230
         H           -2.228193274528     1.897810960446    -0.061240200769     1.007825032230
         H           -3.798952274528     3.135812960446    -1.604815200769     1.007825032230
         H           -2.715627274528     2.058253960446    -2.507019200769     1.007825032230
         H           -4.399375274528     1.579253960446    -2.214868200769     1.007825032230

  Basis Set: AUG-CC-PVTZ
    Blend: AUG-CC-PVTZ
  Basis Set: (AUG-CC-PVTZ AUX)
    Blend: AUG-CC-PVTZ-JKFIT
	 Reference Energy          =   -1327.8507528300249305 [Eh]
	 Singles Energy            =      -0.0000000000000000 [Eh]
	 Same-Spin Energy          =      -1.0146219446286715 [Eh]
	 Opposite-Spin Energy      =      -3.0750788115760965 [Eh]
	 Correlation Energy        =      -4.0897007562047678 [Eh]
	 Total Energy              =   -1331.9404535862297507 [Eh]

	 ================> DF-SCS-MP2 Energies <==================
	-----------------------------------------------------------
	 SCS Same-Spin Scale       =       0.3333333333333333 [-]
	 SCS Opposite-Spin Scale   =       1.2000000000000000 [-]
	 SCS Same-Spin Energy      =      -0.3382073148762238 [Eh]
	 SCS Opposite-Spin Energy  =      -3.6900945738913156 [Eh]
	 SCS Correlation Energy    =      -4.0283018887675395 [Eh]
	 SCS Total Energy          =   -1331.8790547187925313 [Eh]
	-----------------------------------------------------------

  Dipole Moment: [D]
     X:    -1.3482      Y:     1.5031      Z:     0.8069     Total:     2.1744

*** Psi4 exiting successfully. Buy a developer a beer!
