                               Psi4 1.3.2 release

  ==> Input File <==

--------------------------------------------------------------------------
#psi4
#
memory 32 gb

molecule  {
0 1
  P       -2.2900960    -0.9400430     0.3446780
  O       -0.9821530    -0.2015620     0.9382890
  O        1.3422500    -1.6754830     1.2308510
  O        0.1132553     2.3804610     0.4332904
  O        3.0685150    -2.1870720    -0.8085900
  O        2.8473350     2.5031130     0.3715350
  O        4.1956880     0.4353970    -0.9728740
  O       -2.8268630     0.0333510    -0.8075310
  O       -3.2591210    -0.7232820     1.6216710
  O       -2.1189930    -2.3436440    -0.0996680
  C        0.1181620     0.0300090     0.0163190
  C        0.9532920    -1.2442050    -0.0757250
  C        0.8985890     1.2026440     0.5648510
  C        2.2596600    -1.0143070    -0.8180370
  C        2.1601442     1.4447188    -0.2417789
  C        3.0258420     0.1487050    -0.2103220
  C       -3.1242130     1.4315980    -0.4888860
  C       -3.5363170     2.0851650    -1.7841190
  H       -0.2830920     0.2988010    -0.9702380
  H        0.3702690    -2.0293640    -0.5720320
  H        1.1571200     0.9978770     1.6121560
  H        2.0609340    -0.7886600    -1.8727560
  H        1.9169870     1.6362870    -1.2735830
  H        3.2958550    -0.0945320     0.8276460
  H        0.5217750    -1.8880320     1.7115100
  H        0.6655400     3.1093110     0.6831840
  H        2.9735430    -2.5473740     0.0946540
  H        3.7214290     2.5491860    -0.0588690
  H        4.6397270    -0.4238340    -1.0970870
  H       -3.8083950    -1.5223380     1.7347280
  H       -3.9305460     1.4455410     0.2493860
  H       -2.2297620     1.8928800    -0.0590960
  H       -3.8005210     3.1308820    -1.6026710
  H       -2.7171960     2.0533230    -2.5048750
  H       -4.4009440     1.5743230    -2.2127240
units angstrom
no_reorient  #important for SAPT in psi4, default
symmetry c1  #important for SAPT in psi4, default
}

set PROPERTIES_ORIGIN ["COM"]
properties('MP2/aug-cc-pvtz', properties = ['dipole'])
--------------------------------------------------------------------------

    Molecular point group: c1
  Charge       = 0
  Multiplicity = 1
  Basis Set: AUG-CC-PVTZ
    Blend: AUG-CC-PVTZ
  Basis Set: (AUG-CC-PVTZ AUX)
    Blend: AUG-CC-PVTZ-JKFIT

    Orbital Energies [Eh]
    ---------------------

    Doubly Occupied:

       1A    -80.117401     2A    -20.615127     3A    -20.607782
       4A    -20.599354     5A    -20.582906     6A    -20.577837
       7A    -20.573502     8A    -20.572017     9A    -20.568347
      10A    -20.523749    11A    -11.321687    12A    -11.303338
      13A    -11.299942    14A    -11.298300    15A    -11.297719
      16A    -11.294536    17A    -11.290069    18A    -11.230113
      19A     -7.632847    20A     -5.531353    21A     -5.530982
      22A     -5.529776    23A     -1.460778    24A     -1.411747
      25A     -1.398447    26A     -1.393336    27A     -1.387235
      28A     -1.373379    29A     -1.366841    30A     -1.354469
      31A     -1.304159    32A     -1.115309    33A     -1.040735
      34A     -1.007211    35A     -1.002654    36A     -0.880527
      37A     -0.865477    38A     -0.857376    39A     -0.823291
      40A     -0.811047    41A     -0.754491    42A     -0.744840
      43A     -0.732624    44A     -0.729345    45A     -0.709663
      46A     -0.690610    47A     -0.677627    48A     -0.673849
      49A     -0.662070    50A     -0.658468    51A     -0.646274
      52A     -0.634531    53A     -0.627245    54A     -0.615242
      55A     -0.607855    56A     -0.597980    57A     -0.582255
      58A     -0.575885    59A     -0.571294    60A     -0.561017
      61A     -0.556091    62A     -0.548996    63A     -0.541464
      64A     -0.536261    65A     -0.530206    66A     -0.520690
      67A     -0.513672    68A     -0.503993    69A     -0.496899
      70A     -0.484416    71A     -0.480307    72A     -0.476904
      73A     -0.463340    74A     -0.451568    75A     -0.444878
      76A     -0.433703

  @DF-RHF Final Energy: -1327.86050228577233

   => Energetics <=

    Nuclear Repulsion Energy =           1771.7459000476567326
    One-Electron Energy =               -5355.6342999074022373
    Two-Electron Energy =                2256.0278975739734051
    Total Energy =                      -1327.8605022857723270
  Basis Set: (AUG-CC-PVTZ AUX)
    Blend: AUG-CC-PVTZ-RI
    Molecular point group: c1

    Geometry (in Angstrom), charge = 0, multiplicity = 1:

       Center              X                  Y                   Z               Mass
    ------------   -----------------  -----------------  -----------------  -----------------
         P           -2.291309111171    -0.943210948394     0.346853743492    30.973761998420
         O           -0.983366111171    -0.204729948394     0.940464743492    15.994914619570
         O            1.341036888829    -1.678650948394     1.233026743492    15.994914619570
         O            0.112042188829     2.377293051606     0.435466143492    15.994914619570
         O            3.067301888829    -2.190239948394    -0.806414256508    15.994914619570
         O            2.846121888829     2.499945051606     0.373710743492    15.994914619570
         O            4.194474888829     0.432229051606    -0.970698256508    15.994914619570
         O           -2.828076111171     0.030183051606    -0.805355256508    15.994914619570
         O           -3.260334111171    -0.726449948394     1.623846743492    15.994914619570
         O           -2.120206111171    -2.346811948394    -0.097492256508    15.994914619570
         C            0.116948888829     0.026841051606     0.018494743492    12.000000000000
         C            0.952078888829    -1.247372948394    -0.073549256508    12.000000000000
         C            0.897375888829     1.199476051606     0.567026743492    12.000000000000
         C            2.258446888829    -1.017474948394    -0.815861256508    12.000000000000
         C            2.158931088829     1.441550851606    -0.239603156508    12.000000000000
         C            3.024628888829     0.145537051606    -0.208146256508    12.000000000000
         C           -3.125426111171     1.428430051606    -0.486710256508    12.000000000000
         C           -3.537530111171     2.081997051606    -1.781943256508    12.000000000000
         H           -0.284305111171     0.295633051606    -0.968062256508     1.007825032230
         H            0.369055888829    -2.032531948394    -0.569856256508     1.007825032230
         H            1.155906888829     0.994709051606     1.614331743492     1.007825032230
         H            2.059720888829    -0.791827948394    -1.870580256508     1.007825032230
         H            1.915773888829     1.633119051606    -1.271407256508     1.007825032230
         H            3.294641888829    -0.097699948394     0.829821743492     1.007825032230
         H            0.520561888829    -1.891199948394     1.713685743492     1.007825032230
         H            0.664326888829     3.106143051606     0.685359743492     1.007825032230
         H            2.972329888829    -2.550541948394     0.096829743492     1.007825032230
         H            3.720215888829     2.546018051606    -0.056693256508     1.007825032230
         H            4.638513888829    -0.427001948394    -1.094911256508     1.007825032230
         H           -3.809608111171    -1.525505948394     1.736903743492     1.007825032230
         H           -3.931759111171     1.442373051606     0.251561743492     1.007825032230
         H           -2.230975111171     1.889712051606    -0.056920256508     1.007825032230
         H           -3.801734111171     3.127714051606    -1.600495256508     1.007825032230
         H           -2.718409111171     2.050155051606    -2.502699256508     1.007825032230
         H           -4.402157111171     1.571155051606    -2.210548256508     1.007825032230

  Basis Set: AUG-CC-PVTZ
    Blend: AUG-CC-PVTZ
  Basis Set: (AUG-CC-PVTZ AUX)
    Blend: AUG-CC-PVTZ-JKFIT
	 Reference Energy          =   -1327.8605022857723270 [Eh]
	 Singles Energy            =      -0.0000000000000000 [Eh]
	 Same-Spin Energy          =      -1.0137807150242961 [Eh]
	 Opposite-Spin Energy      =      -3.0744566986981643 [Eh]
	 Correlation Energy        =      -4.0882374137224602 [Eh]
	 Total Energy              =   -1331.9487396994948085 [Eh]

	 ================> DF-SCS-MP2 Energies <==================
	-----------------------------------------------------------
	 SCS Same-Spin Scale       =       0.3333333333333333 [-]
	 SCS Opposite-Spin Scale   =       1.2000000000000000 [-]
	 SCS Same-Spin Energy      =      -0.3379269050080987 [Eh]
	 SCS Opposite-Spin Energy  =      -3.6893480384377968 [Eh]
	 SCS Correlation Energy    =      -4.0272749434458959 [Eh]
	 SCS Total Energy          =   -1331.8877772292182726 [Eh]
	-----------------------------------------------------------

  Dipole Moment: [D]
     X:    -1.1863      Y:     1.9185      Z:     0.7785     Total:     2.3862

*** Psi4 exiting successfully. Buy a developer a beer!
