                               Psi4 1.4a3.dev225

  ==> Input File <==

--------------------------------------------------------------------------
#psi4
#
memory 32 gb

molecule  {
0 1
  P       -2.3219140    -1.0563120    -0.0968450
  O       -1.0285840    -0.5623410     0.7549430
  O        1.3695440    -1.8069540     1.2202350
  O       -0.1592450     2.1412630     0.5207450
  O        3.3269040    -2.0858120    -0.6453880
  O        2.5724350     2.5270130     0.6374560
  O        4.2203020     0.6406430    -0.6358120
  O       -2.8737010     0.2643620    -0.8096810
  O       -3.3065970    -1.3497020     1.1531960
  O       -2.1073926    -2.1662540    -1.0223804
  C        0.1200290    -0.1583450    -0.0432010
  C        1.0698050    -1.3527180    -0.1046720
  C        0.7441670     1.0454510     0.6308160
  C        2.4193320    -0.9866070    -0.7068450
  C        2.0603010     1.3853380    -0.0470020
  C        3.0180900     0.2181970     0.0056710
  C       -3.2473180     1.4231610     0.0025120
  C       -3.2076300     2.6262440    -0.9075720
  H       -0.2047330     0.1313700    -1.0514980
  H        0.5965010    -2.1549610    -0.6866410
  H        0.9371260     0.8063110     1.6860210
  H        2.3054700    -0.7437210    -1.7704410
  H        1.8633300     1.6367370    -1.1028410
  H        3.2142070    -0.0417910     1.0561650
  H        0.5126160    -2.0057500     1.6426110
  H        0.3598300     2.9232990     0.7925780
  H        3.1793900    -2.4823080     0.2360710
  H        3.4672560     2.6739710     0.2770410
  H        4.7639490    -0.1654590    -0.7244900
  H       -3.7873380    -2.1826420     0.9908450
  H       -4.2474700     1.2335250     0.4005830
  H       -2.5352900     1.5309660     0.8217280
  H       -3.5402110     3.5125760    -0.3587690
  H       -2.1856630     2.7912820    -1.2511950
  H       -3.8637180     2.4807570    -1.7684970
units angstrom
no_reorient  #important for SAPT in psi4, default
symmetry c1  #important for SAPT in psi4, default
}

set PROPERTIES_ORIGIN ["COM"]
properties('MP2/aug-cc-pvtz', properties = ['dipole'])
--------------------------------------------------------------------------

    Molecular point group: c1
  Charge       = 0
  Multiplicity = 1
  Basis Set: AUG-CC-PVTZ
    Blend: AUG-CC-PVTZ
  Basis Set: (AUG-CC-PVTZ AUX)
    Blend: AUG-CC-PVTZ-JKFIT

    Orbital Energies [Eh]
    ---------------------

    Doubly Occupied:

       1A    -80.113006     2A    -20.613607     3A    -20.606825
       4A    -20.594794     5A    -20.584028     6A    -20.578363
       7A    -20.575284     8A    -20.575179     9A    -20.574345
      10A    -20.521971    11A    -11.321027    12A    -11.305265
      13A    -11.300317    14A    -11.300289    15A    -11.298210
      16A    -11.295411    17A    -11.292941    18A    -11.222422
      19A     -7.629187    20A     -5.527608    21A     -5.527112
      22A     -5.526343    23A     -1.458434    24A     -1.410660
      25A     -1.395157    26A     -1.392282    27A     -1.384177
      28A     -1.372370    29A     -1.364102    30A     -1.354172
      31A     -1.311233    32A     -1.118591    33A     -1.034847
      34A     -1.011128    35A     -1.003464    36A     -0.877148
      37A     -0.861790    38A     -0.859412    39A     -0.822025
      40A     -0.809867    41A     -0.754183    42A     -0.745690
      43A     -0.728706    44A     -0.725849    45A     -0.705201
      46A     -0.686495    47A     -0.678964    48A     -0.674155
      49A     -0.662314    50A     -0.659292    51A     -0.641737
      52A     -0.637598    53A     -0.623542    54A     -0.612694
      55A     -0.603851    56A     -0.596889    57A     -0.582191
      58A     -0.577605    59A     -0.569828    60A     -0.560127
      61A     -0.556265    62A     -0.547884    63A     -0.538576
      64A     -0.537837    65A     -0.529624    66A     -0.517870
      67A     -0.508213    68A     -0.503240    69A     -0.495777
      70A     -0.487670    71A     -0.481473    72A     -0.476957
      73A     -0.463255    74A     -0.457137    75A     -0.451035
      76A     -0.436835

  @DF-RHF Final Energy: -1327.86253508166942

   => Energetics <=

    Nuclear Repulsion Energy =           1775.6468141708646726
    One-Electron Energy =               -5363.5367988119451184
    Two-Electron Energy =                2260.0274495594112523
    Total Energy =                      -1327.8625350816691935
  Basis Set: (AUG-CC-PVTZ AUX)
    Blend: AUG-CC-PVTZ-RI
    Molecular point group: c1

    Geometry (in Angstrom), charge = 0, multiplicity = 1:

       Center              X                  Y                   Z               Mass
    ------------   -----------------  -----------------  -----------------  -----------------
         P           -2.310989559035    -1.019376605219    -0.099992971549    30.973761998420
         O           -1.017659559035    -0.525405605219     0.751795028451    15.994914619570
         O            1.380468440965    -1.770018605219     1.217087028451    15.994914619570
         O           -0.148320559035     2.178198394781     0.517597028451    15.994914619570
         O            3.337828440965    -2.048876605219    -0.648535971549    15.994914619570
         O            2.583359440965     2.563948394781     0.634308028451    15.994914619570
         O            4.231226440965     0.677578394781    -0.638959971549    15.994914619570
         O           -2.862776559035     0.301297394781    -0.812828971549    15.994914619570
         O           -3.295672559035    -1.312766605219     1.150048028451    15.994914619570
         O           -2.096468159035    -2.129318605219    -1.025528371549    15.994914619570
         C            0.130953440965    -0.121409605219    -0.046348971549    12.000000000000
         C            1.080729440965    -1.315782605219    -0.107819971549    12.000000000000
         C            0.755091440965     1.082386394781     0.627668028451    12.000000000000
         C            2.430256440965    -0.949671605219    -0.709992971549    12.000000000000
         C            2.071225440965     1.422273394781    -0.050149971549    12.000000000000
         C            3.029014440965     0.255132394781     0.002523028451    12.000000000000
         C           -3.236393559035     1.460096394781    -0.000635971549    12.000000000000
         C           -3.196705559035     2.663179394781    -0.910719971549    12.000000000000
         H           -0.193808559035     0.168305394781    -1.054645971549     1.007825032230
         H            0.607425440965    -2.118025605219    -0.689788971549     1.007825032230
         H            0.948050440965     0.843246394781     1.682873028451     1.007825032230
         H            2.316394440965    -0.706785605219    -1.773588971549     1.007825032230
         H            1.874254440965     1.673672394781    -1.105988971549     1.007825032230
         H            3.225131440965    -0.004855605219     1.053017028451     1.007825032230
         H            0.523540440965    -1.968814605219     1.639463028451     1.007825032230
         H            0.370754440965     2.960234394781     0.789430028451     1.007825032230
         H            3.190314440965    -2.445372605219     0.232923028451     1.007825032230
         H            3.478180440965     2.710906394781     0.273893028451     1.007825032230
         H            4.774873440965    -0.128523605219    -0.727637971549     1.007825032230
         H           -3.776413559035    -2.145706605219     0.987697028451     1.007825032230
         H           -4.236545559035     1.270460394781     0.397435028451     1.007825032230
         H           -2.524365559035     1.567901394781     0.818580028451     1.007825032230
         H           -3.529286559035     3.549511394781    -0.361916971549     1.007825032230
         H           -2.174738559035     2.828217394781    -1.254342971549     1.007825032230
         H           -3.852793559035     2.517692394781    -1.771644971549     1.007825032230

  Basis Set: AUG-CC-PVTZ
    Blend: AUG-CC-PVTZ
  Basis Set: (AUG-CC-PVTZ AUX)
    Blend: AUG-CC-PVTZ-JKFIT
	 Reference Energy          =   -1327.8625350816694208 [Eh]
	 Singles Energy            =      -0.0000000000000000 [Eh]
	 Same-Spin Energy          =      -1.0142353004692246 [Eh]
	 Opposite-Spin Energy      =      -3.0754633008514509 [Eh]
	 Correlation Energy        =      -4.0896986013206753 [Eh]
	 Total Energy              =   -1331.9522336829900269 [Eh]

	 ================> DF-SCS-MP2 Energies <==================
	-----------------------------------------------------------
	 SCS Same-Spin Scale       =       0.3333333333333333 [-]
	 SCS Opposite-Spin Scale   =       1.2000000000000000 [-]
	 SCS Same-Spin Energy      =      -0.3380784334897415 [Eh]
	 SCS Opposite-Spin Energy  =      -3.6905559610217411 [Eh]
	 SCS Correlation Energy    =      -4.0286343945114824 [Eh]
	 SCS Total Energy          =   -1331.8911694761809485 [Eh]
	-----------------------------------------------------------

  Dipole Moment: [D]
     X:    -0.8558      Y:     1.3396      Z:     1.8217     Total:     2.4178

*** Psi4 exiting successfully. Buy a developer a beer!
