                               Psi4 1.3.2 release

  ==> Input File <==

--------------------------------------------------------------------------
#psi4
#
memory 32 gb

molecule  {
0 1
  P       -2.2900960    -0.9400430     0.3446780
  O       -0.9821530    -0.2015620     0.9382890
  O        1.3422500    -1.6754830     1.2308510
  O        0.0787050     2.3596040     0.4621680
  O        3.0685150    -2.1870720    -0.8085900
  O        2.8473350     2.5031130     0.3715350
  O        4.1956880     0.4353970    -0.9728740
  O       -2.8268630     0.0333510    -0.8075310
  O       -3.2591210    -0.7232820     1.6216710
  O       -2.1189930    -2.3436440    -0.0996680
  C        0.1181620     0.0300090     0.0163190
  C        0.9532920    -1.2442050    -0.0757250
  C        0.8985890     1.2026440     0.5648510
  C        2.1983516    -0.9650130    -0.8298713
  C        2.1195123     1.3543323    -0.2620062
  C        3.0258420     0.1487050    -0.2103220
  C       -3.1242130     1.4315980    -0.4888860
  C       -3.5363170     2.0851650    -1.7841190
  H       -0.2830920     0.2988010    -0.9702380
  H        0.3702690    -2.0293640    -0.5720320
  H        1.1571200     0.9978770     1.6121560
  H        2.0609340    -0.7886600    -1.8727560
  H        1.9169870     1.6362870    -1.2735830
  H        3.2958550    -0.0945320     0.8276460
  H        0.5217750    -1.8880320     1.7115100
  H        0.6655400     3.1093110     0.6831840
  H        2.9735430    -2.5473740     0.0946540
  H        3.7214290     2.5491860    -0.0588690
  H        4.6397270    -0.4238340    -1.0970870
  H       -3.8083950    -1.5223380     1.7347280
  H       -3.9305460     1.4455410     0.2493860
  H       -2.2297620     1.8928800    -0.0590960
  H       -3.8005210     3.1308820    -1.6026710
  H       -2.7171960     2.0533230    -2.5048750
  H       -4.4009440     1.5743230    -2.2127240
units angstrom
no_reorient  #important for SAPT in psi4, default
symmetry c1  #important for SAPT in psi4, default
}

set PROPERTIES_ORIGIN ["COM"]
properties('MP2/aug-cc-pvtz', properties = ['dipole'])
--------------------------------------------------------------------------

    Molecular point group: c1
  Charge       = 0
  Multiplicity = 1
  Basis Set: AUG-CC-PVTZ
    Blend: AUG-CC-PVTZ
  Basis Set: (AUG-CC-PVTZ AUX)
    Blend: AUG-CC-PVTZ-JKFIT

    Orbital Energies [Eh]
    ---------------------

    Doubly Occupied:

       1A    -80.118136     2A    -20.615738     3A    -20.608222
       4A    -20.600215     5A    -20.586040     6A    -20.577156
       7A    -20.575679     8A    -20.567604     9A    -20.565968
      10A    -20.524731    11A    -11.322887    12A    -11.306571
      13A    -11.301270    14A    -11.300540    15A    -11.300292
      16A    -11.297631    17A    -11.296816    18A    -11.230897
      19A     -7.633592    20A     -5.532099    21A     -5.531723
      22A     -5.530524    23A     -1.461616    24A     -1.409425
      25A     -1.390350    26A     -1.388198    27A     -1.387436
      28A     -1.374482    29A     -1.343136    30A     -1.336619
      31A     -1.305118    32A     -1.133152    33A     -1.041645
      34A     -1.016735    35A     -1.015244    36A     -0.883570
      37A     -0.866506    38A     -0.858589    39A     -0.823211
      40A     -0.816592    41A     -0.751734    42A     -0.744106
      43A     -0.734514    44A     -0.729569    45A     -0.703924
      46A     -0.688929    47A     -0.675943    48A     -0.674807
      49A     -0.661728    50A     -0.651207    51A     -0.640508
      52A     -0.636043    53A     -0.625826    54A     -0.615784
      55A     -0.604216    56A     -0.592665    57A     -0.583464
      58A     -0.577075    59A     -0.570698    60A     -0.559636
      61A     -0.551977    62A     -0.549072    63A     -0.543414
      64A     -0.536242    65A     -0.528240    66A     -0.521299
      67A     -0.511879    68A     -0.505903    69A     -0.497771
      70A     -0.486684    71A     -0.481138    72A     -0.477876
      73A     -0.470781    74A     -0.461995    75A     -0.454114
      76A     -0.437025

  @DF-RHF Final Energy: -1327.84563571531248

   => Energetics <=

    Nuclear Repulsion Energy =           1773.6332303096903615
    One-Electron Energy =               -5359.3302591235142245
    Two-Electron Energy =                2257.8513930985113802
    Total Energy =                      -1327.8456357153122553
  Basis Set: (AUG-CC-PVTZ AUX)
    Blend: AUG-CC-PVTZ-RI
    Molecular point group: c1

    Geometry (in Angstrom), charge = 0, multiplicity = 1:

       Center              X                  Y                   Z               Mass
    ------------   -----------------  -----------------  -----------------  -----------------
         P           -2.285144053837    -0.940341015014     0.346585899038    30.973761998420
         O           -0.977201053837    -0.201860015014     0.940196899038    15.994914619570
         O            1.347201946163    -1.675781015014     1.232758899038    15.994914619570
         O            0.083656946163     2.359305984986     0.464075899038    15.994914619570
         O            3.073466946163    -2.187370015014    -0.806682100962    15.994914619570
         O            2.852286946163     2.502814984986     0.373442899038    15.994914619570
         O            4.200639946163     0.435098984986    -0.970966100962    15.994914619570
         O           -2.821911053837     0.033052984986    -0.805623100962    15.994914619570
         O           -3.254169053837    -0.723580015014     1.623578899038    15.994914619570
         O           -2.114041053837    -2.343942015014    -0.097760100962    15.994914619570
         C            0.123113946163     0.029710984986     0.018226899038    12.000000000000
         C            0.958243946163    -1.244503015014    -0.073817100962    12.000000000000
         C            0.903540946163     1.202345984986     0.566758899038    12.000000000000
         C            2.203303546163    -0.965311015014    -0.827963400962    12.000000000000
         C            2.124464246163     1.354034284986    -0.260098300962    12.000000000000
         C            3.030793946163     0.148406984986    -0.208414100962    12.000000000000
         C           -3.119261053837     1.431299984986    -0.486978100962    12.000000000000
         C           -3.531365053837     2.084866984986    -1.782211100962    12.000000000000
         H           -0.278140053837     0.298502984986    -0.968330100962     1.007825032230
         H            0.375220946163    -2.029662015014    -0.570124100962     1.007825032230
         H            1.162071946163     0.997578984986     1.614063899038     1.007825032230
         H            2.065885946163    -0.788958015014    -1.870848100962     1.007825032230
         H            1.921938946163     1.635988984986    -1.271675100962     1.007825032230
         H            3.300806946163    -0.094830015014     0.829553899038     1.007825032230
         H            0.526726946163    -1.888330015014     1.713417899038     1.007825032230
         H            0.670491946163     3.109012984986     0.685091899038     1.007825032230
         H            2.978494946163    -2.547672015014     0.096561899038     1.007825032230
         H            3.726380946163     2.548887984986    -0.056961100962     1.007825032230
         H            4.644678946163    -0.424132015014    -1.095179100962     1.007825032230
         H           -3.803443053837    -1.522636015014     1.736635899038     1.007825032230
         H           -3.925594053837     1.445242984986     0.251293899038     1.007825032230
         H           -2.224810053837     1.892581984986    -0.057188100962     1.007825032230
         H           -3.795569053837     3.130583984986    -1.600763100962     1.007825032230
         H           -2.712244053837     2.053024984986    -2.502967100962     1.007825032230
         H           -4.395992053837     1.574024984986    -2.210816100962     1.007825032230

  Basis Set: AUG-CC-PVTZ
    Blend: AUG-CC-PVTZ
  Basis Set: (AUG-CC-PVTZ AUX)
    Blend: AUG-CC-PVTZ-JKFIT
	 Reference Energy          =   -1327.8456357153124827 [Eh]
	 Singles Energy            =      -0.0000000000000000 [Eh]
	 Same-Spin Energy          =      -1.0158268316819752 [Eh]
	 Opposite-Spin Energy      =      -3.0795551458153088 [Eh]
	 Correlation Energy        =      -4.0953819774972837 [Eh]
	 Total Energy              =   -1331.9410176928097371 [Eh]

	 ================> DF-SCS-MP2 Energies <==================
	-----------------------------------------------------------
	 SCS Same-Spin Scale       =       0.3333333333333333 [-]
	 SCS Opposite-Spin Scale   =       1.2000000000000000 [-]
	 SCS Same-Spin Energy      =      -0.3386089438939917 [Eh]
	 SCS Opposite-Spin Energy  =      -3.6954661749783702 [Eh]
	 SCS Correlation Energy    =      -4.0340751188723623 [Eh]
	 SCS Total Energy          =   -1331.8797108341848343 [Eh]
	-----------------------------------------------------------

  Dipole Moment: [D]
     X:    -1.4129      Y:     1.8694      Z:     0.6305     Total:     2.4266

*** Psi4 exiting successfully. Buy a developer a beer!
