                               Psi4 1.3.2 release

  ==> Input File <==

--------------------------------------------------------------------------
#psi4
#
memory 32 gb

molecule  {
0 1
  P       -2.2900960    -0.9400430     0.3446780
  O       -0.9840454    -0.1909997     0.9291512
  O        1.3422500    -1.6754830     1.2308510
  O        0.0787050     2.3596040     0.4621680
  O        3.0685150    -2.1870720    -0.8085900
  O        2.8473350     2.5031130     0.3715350
  O        4.1956880     0.4353970    -0.9728740
  O       -2.8163826     0.0421947    -0.8048575
  O       -3.2591210    -0.7232820     1.6216710
  O       -2.1189930    -2.3436440    -0.0996680
  C        0.1181620     0.0300090     0.0163190
  C        0.9532920    -1.2442050    -0.0757250
  C        0.8985890     1.2026440     0.5648510
  C        2.2596600    -1.0143070    -0.8180370
  C        2.1770750     1.3964720    -0.2280410
  C        3.0258420     0.1487050    -0.2103220
  C       -3.1242130     1.4315980    -0.4888860
  C       -3.5363170     2.0851650    -1.7841190
  H       -0.2830920     0.2988010    -0.9702380
  H        0.3702690    -2.0293640    -0.5720320
  H        1.1571200     0.9978770     1.6121560
  H        2.0609340    -0.7886600    -1.8727560
  H        1.9169870     1.6362870    -1.2735830
  H        3.2958550    -0.0945320     0.8276460
  H        0.5217750    -1.8880320     1.7115100
  H        0.6655400     3.1093110     0.6831840
  H        2.9735430    -2.5473740     0.0946540
  H        3.7214290     2.5491860    -0.0588690
  H        4.6397270    -0.4238340    -1.0970870
  H       -3.8083950    -1.5223380     1.7347280
  H       -3.9305460     1.4455410     0.2493860
  H       -2.2297620     1.8928800    -0.0590960
  H       -3.8005210     3.1308820    -1.6026710
  H       -2.7171960     2.0533230    -2.5048750
  H       -4.4009440     1.5743230    -2.2127240
units angstrom
no_reorient  #important for SAPT in psi4, default
symmetry c1  #important for SAPT in psi4, default
}

set PROPERTIES_ORIGIN ["COM"]
properties('MP2/aug-cc-pvtz', properties = ['dipole'])
--------------------------------------------------------------------------

    Molecular point group: c1
  Charge       = 0
  Multiplicity = 1
  Basis Set: AUG-CC-PVTZ
    Blend: AUG-CC-PVTZ
  Basis Set: (AUG-CC-PVTZ AUX)
    Blend: AUG-CC-PVTZ-JKFIT

    Orbital Energies [Eh]
    ---------------------

    Doubly Occupied:

       1A    -80.117814     2A    -20.615844     3A    -20.606390
       4A    -20.598216     5A    -20.583307     6A    -20.576505
       7A    -20.574584     8A    -20.573959     9A    -20.573002
      10A    -20.524918    11A    -11.319855    12A    -11.303447
      13A    -11.299284    14A    -11.298292    15A    -11.298102
      16A    -11.296321    17A    -11.291274    18A    -11.229322
      19A     -7.633212    20A     -5.531712    21A     -5.531384
      22A     -5.530133    23A     -1.461446    24A     -1.411056
      25A     -1.395018    26A     -1.393112    27A     -1.388023
      28A     -1.372853    29A     -1.363774    30A     -1.353693
      31A     -1.305177    32A     -1.118732    33A     -1.040070
      34A     -1.011795    35A     -1.003264    36A     -0.881095
      37A     -0.865030    38A     -0.858921    39A     -0.822251
      40A     -0.810443    41A     -0.751765    42A     -0.745541
      43A     -0.731740    44A     -0.729097    45A     -0.708303
      46A     -0.687105    47A     -0.678355    48A     -0.674040
      49A     -0.662523    50A     -0.661056    51A     -0.643355
      52A     -0.634826    53A     -0.627954    54A     -0.615590
      55A     -0.603500    56A     -0.598333    57A     -0.581904
      58A     -0.576348    59A     -0.571061    60A     -0.559314
      61A     -0.556613    62A     -0.548179    63A     -0.541441
      64A     -0.536454    65A     -0.529375    66A     -0.521510
      67A     -0.512416    68A     -0.503975    69A     -0.497112
      70A     -0.484233    71A     -0.479616    72A     -0.477314
      73A     -0.462344    74A     -0.455614    75A     -0.449863
      76A     -0.436234

  @DF-RHF Final Energy: -1327.86175448365771

   => Energetics <=

    Nuclear Repulsion Energy =           1772.9377859397659449
    One-Electron Energy =               -5358.0058127759557465
    Two-Electron Energy =                2257.2062723525318688
    Total Energy =                      -1327.8617544836579327
  Basis Set: (AUG-CC-PVTZ AUX)
    Blend: AUG-CC-PVTZ-RI
    Molecular point group: c1

    Geometry (in Angstrom), charge = 0, multiplicity = 1:

       Center              X                  Y                   Z               Mass
    ------------   -----------------  -----------------  -----------------  -----------------
         P           -2.290572825601    -0.941120522474     0.345036928355    30.973761998420
         O           -0.984522225601    -0.192077222474     0.929510128355    15.994914619570
         O            1.341773174399    -1.676560522474     1.231209928355    15.994914619570
         O            0.078228174399     2.358526477526     0.462526928355    15.994914619570
         O            3.068038174399    -2.188149522474    -0.808231071645    15.994914619570
         O            2.846858174399     2.502035477526     0.371893928355    15.994914619570
         O            4.195211174399     0.434319477526    -0.972515071645    15.994914619570
         O           -2.816859425601     0.041117177526    -0.804498571645    15.994914619570
         O           -3.259597825601    -0.724359522474     1.622029928355    15.994914619570
         O           -2.119469825601    -2.344721522474    -0.099309071645    15.994914619570
         C            0.117685174399     0.028931477526     0.016677928355    12.000000000000
         C            0.952815174399    -1.245282522474    -0.075366071645    12.000000000000
         C            0.898112174399     1.201566477526     0.565209928355    12.000000000000
         C            2.259183174399    -1.015384522474    -0.817678071645    12.000000000000
         C            2.176598174399     1.395394477526    -0.227682071645    12.000000000000
         C            3.025365174399     0.147627477526    -0.209963071645    12.000000000000
         C           -3.124689825601     1.430520477526    -0.488527071645    12.000000000000
         C           -3.536793825601     2.084087477526    -1.783760071645    12.000000000000
         H           -0.283568825601     0.297723477526    -0.969879071645     1.007825032230
         H            0.369792174399    -2.030441522474    -0.571673071645     1.007825032230
         H            1.156643174399     0.996799477526     1.612514928355     1.007825032230
         H            2.060457174399    -0.789737522474    -1.872397071645     1.007825032230
         H            1.916510174399     1.635209477526    -1.273224071645     1.007825032230
         H            3.295378174399    -0.095609522474     0.828004928355     1.007825032230
         H            0.521298174399    -1.889109522474     1.711868928355     1.007825032230
         H            0.665063174399     3.108233477526     0.683542928355     1.007825032230
         H            2.973066174399    -2.548451522474     0.095012928355     1.007825032230
         H            3.720952174399     2.548108477526    -0.058510071645     1.007825032230
         H            4.639250174399    -0.424911522474    -1.096728071645     1.007825032230
         H           -3.808871825601    -1.523415522474     1.735086928355     1.007825032230
         H           -3.931022825601     1.444463477526     0.249744928355     1.007825032230
         H           -2.230238825601     1.891802477526    -0.058737071645     1.007825032230
         H           -3.800997825601     3.129804477526    -1.602312071645     1.007825032230
         H           -2.717672825601     2.052245477526    -2.504516071645     1.007825032230
         H           -4.401420825601     1.573245477526    -2.212365071645     1.007825032230

  Basis Set: AUG-CC-PVTZ
    Blend: AUG-CC-PVTZ
  Basis Set: (AUG-CC-PVTZ AUX)
    Blend: AUG-CC-PVTZ-JKFIT
	 Reference Energy          =   -1327.8617544836577054 [Eh]
	 Singles Energy            =      -0.0000000000000000 [Eh]
	 Same-Spin Energy          =      -1.0145739254388699 [Eh]
	 Opposite-Spin Energy      =      -3.0758521029514236 [Eh]
	 Correlation Energy        =      -4.0904260283902936 [Eh]
	 Total Energy              =   -1331.9521805120480167 [Eh]

	 ================> DF-SCS-MP2 Energies <==================
	-----------------------------------------------------------
	 SCS Same-Spin Scale       =       0.3333333333333333 [-]
	 SCS Opposite-Spin Scale   =       1.2000000000000000 [-]
	 SCS Same-Spin Energy      =      -0.3381913084796233 [Eh]
	 SCS Opposite-Spin Energy  =      -3.6910225235417080 [Eh]
	 SCS Correlation Energy    =      -4.0292138320213313 [Eh]
	 SCS Total Energy          =   -1331.8909683156789470 [Eh]
	-----------------------------------------------------------

  Dipole Moment: [D]
     X:    -1.1473      Y:     1.7870      Z:     0.7464     Total:     2.2509

*** Psi4 exiting successfully. Buy a developer a beer!
