                               Psi4 1.3.2 release

  ==> Input File <==

--------------------------------------------------------------------------
#psi4
#
memory 32 gb

molecule  {
0 1
  P       -2.2900960    -0.9400430     0.3446780
  O       -0.9821530    -0.2015620     0.9382890
  O        1.3422500    -1.6754830     1.2308510
  O        0.0287653     2.3256840     0.5057080
  O        3.0685150    -2.1870720    -0.8085900
  O        2.8473350     2.5031130     0.3715350
  O        4.1956880     0.4353970    -0.9728740
  O       -2.8268630     0.0333510    -0.8075310
  O       -3.2591210    -0.7232820     1.6216710
  O       -2.1189930    -2.3436440    -0.0996680
  C        0.1181620     0.0300090     0.0163190
  C        0.9532920    -1.2442050    -0.0757250
  C        0.8985890     1.2026440     0.5648510
  C        2.2596600    -1.0143070    -0.8180370
  C        2.1995447     1.3236774    -0.2056285
  C        3.0258420     0.1487050    -0.2103220
  C       -3.1242130     1.4315980    -0.4888860
  C       -3.5363170     2.0851650    -1.7841190
  H       -0.2830920     0.2988010    -0.9702380
  H        0.3702690    -2.0293640    -0.5720320
  H        1.1571200     0.9978770     1.6121560
  H        2.0609340    -0.7886600    -1.8727560
  H        1.9169870     1.6362870    -1.2735830
  H        3.2958550    -0.0945320     0.8276460
  H        0.5217750    -1.8880320     1.7115100
  H        0.6655400     3.1093110     0.6831840
  H        2.9735430    -2.5473740     0.0946540
  H        3.7214290     2.5491860    -0.0588690
  H        4.6397270    -0.4238340    -1.0970870
  H       -3.8083950    -1.5223380     1.7347280
  H       -3.9305460     1.4455410     0.2493860
  H       -2.2297620     1.8928800    -0.0590960
  H       -3.8005210     3.1308820    -1.6026710
  H       -2.7171960     2.0533230    -2.5048750
  H       -4.4009440     1.5743230    -2.2127240
units angstrom
no_reorient  #important for SAPT in psi4, default
symmetry c1  #important for SAPT in psi4, default
}

set PROPERTIES_ORIGIN ["COM"]
properties('MP2/aug-cc-pvtz', properties = ['dipole'])
--------------------------------------------------------------------------

    Molecular point group: c1
  Charge       = 0
  Multiplicity = 1
  Basis Set: AUG-CC-PVTZ
    Blend: AUG-CC-PVTZ
  Basis Set: (AUG-CC-PVTZ AUX)
    Blend: AUG-CC-PVTZ-JKFIT

    Orbital Energies [Eh]
    ---------------------

    Doubly Occupied:

       1A    -80.116373     2A    -20.614250     3A    -20.606037
       4A    -20.598454     5A    -20.583534     6A    -20.581451
       7A    -20.577098     8A    -20.576094     9A    -20.575114
      10A    -20.523061    11A    -11.319554    12A    -11.303901
      13A    -11.301796    14A    -11.301533    15A    -11.299928
      16A    -11.298722    17A    -11.292182    18A    -11.229618
      19A     -7.631829    20A     -5.530335    21A     -5.529960
      22A     -5.528764    23A     -1.459703    24A     -1.410897
      25A     -1.394881    26A     -1.388566    27A     -1.386246
      28A     -1.370609    29A     -1.362407    30A     -1.349121
      31A     -1.303433    32A     -1.126681    33A     -1.040279
      34A     -1.021540    35A     -1.003429    36A     -0.880656
      37A     -0.865083    38A     -0.861528    39A     -0.820546
      40A     -0.809869    41A     -0.748781    42A     -0.746430
      43A     -0.730964    44A     -0.726350    45A     -0.706180
      46A     -0.682176    47A     -0.679335    48A     -0.673669
      49A     -0.667266    50A     -0.660218    51A     -0.640091
      52A     -0.634292    53A     -0.626939    54A     -0.614899
      55A     -0.599092    56A     -0.597867    57A     -0.581455
      58A     -0.575284    59A     -0.570780    60A     -0.558513
      61A     -0.555104    62A     -0.547655    63A     -0.541038
      64A     -0.539520    65A     -0.529532    66A     -0.521466
      67A     -0.512001    68A     -0.504985    69A     -0.497794
      70A     -0.485968    71A     -0.479404    72A     -0.476206
      73A     -0.468395    74A     -0.458337    75A     -0.447693
      76A     -0.437861

  @DF-RHF Final Energy: -1327.84515314018790

   => Energetics <=

    Nuclear Repulsion Energy =           1773.6365365903834572
    One-Electron Energy =               -5359.3661771333809156
    Two-Electron Energy =                2257.8844874028095546
    Total Energy =                      -1327.8451531401879038
  Basis Set: (AUG-CC-PVTZ AUX)
    Blend: AUG-CC-PVTZ-RI
    Molecular point group: c1

    Geometry (in Angstrom), charge = 0, multiplicity = 1:

       Center              X                  Y                   Z               Mass
    ------------   -----------------  -----------------  -----------------  -----------------
         P           -2.288259047894    -0.935127070037     0.341326726564    30.973761998420
         O           -0.980316047894    -0.196646070037     0.934937726564    15.994914619570
         O            1.344086952106    -1.670567070037     1.227499726564    15.994914619570
         O            0.030602252106     2.330599929963     0.502356726564    15.994914619570
         O            3.070351952106    -2.182156070037    -0.811941273436    15.994914619570
         O            2.849171952106     2.508028929963     0.368183726564    15.994914619570
         O            4.197524952106     0.440312929963    -0.976225273436    15.994914619570
         O           -2.825026047894     0.038266929963    -0.810882273436    15.994914619570
         O           -3.257284047894    -0.718366070037     1.618319726564    15.994914619570
         O           -2.117156047894    -2.338728070037    -0.103019273436    15.994914619570
         C            0.119998952106     0.034924929963     0.012967726564    12.000000000000
         C            0.955128952106    -1.239289070037    -0.079076273436    12.000000000000
         C            0.900425952106     1.207559929963     0.561499726564    12.000000000000
         C            2.261496952106    -1.009391070037    -0.821388273436    12.000000000000
         C            2.201381652106     1.328593329963    -0.208979773436    12.000000000000
         C            3.027678952106     0.153620929963    -0.213673273436    12.000000000000
         C           -3.122376047894     1.436513929963    -0.492237273436    12.000000000000
         C           -3.534480047894     2.090080929963    -1.787470273436    12.000000000000
         H           -0.281255047894     0.303716929963    -0.973589273436     1.007825032230
         H            0.372105952106    -2.024448070037    -0.575383273436     1.007825032230
         H            1.158956952106     1.002792929963     1.608804726564     1.007825032230
         H            2.062770952106    -0.783744070037    -1.876107273436     1.007825032230
         H            1.918823952106     1.641202929963    -1.276934273436     1.007825032230
         H            3.297691952106    -0.089616070037     0.824294726564     1.007825032230
         H            0.523611952106    -1.883116070037     1.708158726564     1.007825032230
         H            0.667376952106     3.114226929963     0.679832726564     1.007825032230
         H            2.975379952106    -2.542458070037     0.091302726564     1.007825032230
         H            3.723265952106     2.554101929963    -0.062220273436     1.007825032230
         H            4.641563952106    -0.418918070037    -1.100438273436     1.007825032230
         H           -3.806558047894    -1.517422070037     1.731376726564     1.007825032230
         H           -3.928709047894     1.450456929963     0.246034726564     1.007825032230
         H           -2.227925047894     1.897795929963    -0.062447273436     1.007825032230
         H           -3.798684047894     3.135797929963    -1.606022273436     1.007825032230
         H           -2.715359047894     2.058238929963    -2.508226273436     1.007825032230
         H           -4.399107047894     1.579238929963    -2.216075273436     1.007825032230

  Basis Set: AUG-CC-PVTZ
    Blend: AUG-CC-PVTZ
  Basis Set: (AUG-CC-PVTZ AUX)
    Blend: AUG-CC-PVTZ-JKFIT
	 Reference Energy          =   -1327.8451531401879038 [Eh]
	 Singles Energy            =      -0.0000000000000000 [Eh]
	 Same-Spin Energy          =      -1.0165750551070261 [Eh]
	 Opposite-Spin Energy      =      -3.0799629413235285 [Eh]
	 Correlation Energy        =      -4.0965379964305546 [Eh]
	 Total Energy              =   -1331.9416911366183740 [Eh]

	 ================> DF-SCS-MP2 Energies <==================
	-----------------------------------------------------------
	 SCS Same-Spin Scale       =       0.3333333333333333 [-]
	 SCS Opposite-Spin Scale   =       1.2000000000000000 [-]
	 SCS Same-Spin Energy      =      -0.3388583517023420 [Eh]
	 SCS Opposite-Spin Energy  =      -3.6959555295882343 [Eh]
	 SCS Correlation Energy    =      -4.0348138812905763 [Eh]
	 SCS Total Energy          =   -1331.8799670214784783 [Eh]
	-----------------------------------------------------------

  Dipole Moment: [D]
     X:    -1.0344      Y:     1.7894      Z:     0.6481     Total:     2.1661

*** Psi4 exiting successfully. Buy a developer a beer!
