                               Psi4 1.3.2 release

  ==> Input File <==

--------------------------------------------------------------------------
#psi4
#
memory 32 gb

molecule  {
0 1
  P       -2.2900960    -0.9400430     0.3446780
  O       -0.9821530    -0.2015620     0.9382890
  O        1.3422500    -1.6754830     1.2308510
  O        0.0787050     2.3596040     0.4621680
  O        3.0685150    -2.1870720    -0.8085900
  O        2.8473350     2.5031130     0.3715350
  O        4.1956880     0.4353970    -0.9728740
  O       -2.8268630     0.0333510    -0.8075310
  O       -3.2591210    -0.7232820     1.6216710
  O       -2.1189930    -2.3436440    -0.0996680
  C        0.1181620     0.0300090     0.0163190
  C        0.9532920    -1.2442050    -0.0757250
  C        0.8985890     1.2026440     0.5648510
  C        2.2596600    -1.0143070    -0.8180370
  C        2.2172113     1.3886579    -0.2564204
  C        3.0258420     0.1487050    -0.2103220
  C       -3.1242130     1.4315980    -0.4888860
  C       -3.5363170     2.0851650    -1.7841190
  H       -0.2830920     0.2988010    -0.9702380
  H        0.3702690    -2.0293640    -0.5720320
  H        1.1571200     0.9978770     1.6121560
  H        2.0609340    -0.7886600    -1.8727560
  H        1.9169870     1.6362870    -1.2735830
  H        3.2958550    -0.0945320     0.8276460
  H        0.5217750    -1.8880320     1.7115100
  H        0.6655400     3.1093110     0.6831840
  H        2.9735430    -2.5473740     0.0946540
  H        3.7129016     2.5221573    -0.0777338
  H        4.6397270    -0.4238340    -1.0970870
  H       -3.8083950    -1.5223380     1.7347280
  H       -3.9305460     1.4455410     0.2493860
  H       -2.2297620     1.8928800    -0.0590960
  H       -3.8005210     3.1308820    -1.6026710
  H       -2.7171960     2.0533230    -2.5048750
  H       -4.4009440     1.5743230    -2.2127240
units angstrom
no_reorient  #important for SAPT in psi4, default
symmetry c1  #important for SAPT in psi4, default
}

set PROPERTIES_ORIGIN ["COM"]
properties('MP2/aug-cc-pvtz', properties = ['dipole'])
--------------------------------------------------------------------------

    Molecular point group: c1
  Charge       = 0
  Multiplicity = 1
  Basis Set: AUG-CC-PVTZ
    Blend: AUG-CC-PVTZ
  Basis Set: (AUG-CC-PVTZ AUX)
    Blend: AUG-CC-PVTZ-JKFIT

    Orbital Energies [Eh]
    ---------------------

    Doubly Occupied:

       1A    -80.116518     2A    -20.614413     3A    -20.606248
       4A    -20.598651     5A    -20.583115     6A    -20.578667
       7A    -20.575585     8A    -20.574310     9A    -20.573487
      10A    -20.523144    11A    -11.319478    12A    -11.303513
      13A    -11.300454    14A    -11.299259    15A    -11.299190
      16A    -11.295869    17A    -11.290856    18A    -11.229753
      19A     -7.631975    20A     -5.530482    21A     -5.530105
      22A     -5.528908    23A     -1.459807    24A     -1.411180
      25A     -1.396024    26A     -1.392818    27A     -1.386583
      28A     -1.372676    29A     -1.364793    30A     -1.354915
      31A     -1.303540    32A     -1.117575    33A     -1.040338
      34A     -1.015151    35A     -0.999051    36A     -0.877957
      37A     -0.863993    38A     -0.861326    39A     -0.821694
      40A     -0.811191    41A     -0.751767    42A     -0.746298
      43A     -0.731672    44A     -0.727994    45A     -0.706270
      46A     -0.687144    47A     -0.678596    48A     -0.673585
      49A     -0.663436    50A     -0.660079    51A     -0.641940
      52A     -0.633494    53A     -0.627979    54A     -0.616377
      55A     -0.602450    56A     -0.598966    57A     -0.581856
      58A     -0.575354    59A     -0.571046    60A     -0.562151
      61A     -0.557074    62A     -0.547786    63A     -0.541345
      64A     -0.538815    65A     -0.529723    66A     -0.520022
      67A     -0.513362    68A     -0.504709    69A     -0.495990
      70A     -0.484357    71A     -0.479444    72A     -0.476397
      73A     -0.463292    74A     -0.457497    75A     -0.447460
      76A     -0.437180

  @DF-RHF Final Energy: -1327.85759544204029

   => Energetics <=

    Nuclear Repulsion Energy =           1772.1128538639873113
    One-Electron Energy =               -5356.3658971258500969
    Two-Electron Energy =                2256.3954478198224933
    Total Energy =                      -1327.8575954420402923
  Basis Set: (AUG-CC-PVTZ AUX)
    Blend: AUG-CC-PVTZ-RI
    Molecular point group: c1

    Geometry (in Angstrom), charge = 0, multiplicity = 1:

       Center              X                  Y                   Z               Mass
    ------------   -----------------  -----------------  -----------------  -----------------
         P           -2.291738124353    -0.939622899800     0.345926216645    30.973761998420
         O           -0.983795124353    -0.201141899800     0.939537216645    15.994914619570
         O            1.340607875647    -1.675062899800     1.232099216645    15.994914619570
         O            0.077062875647     2.360024100200     0.463416216645    15.994914619570
         O            3.066872875647    -2.186651899800    -0.807341783355    15.994914619570
         O            2.845692875647     2.503533100200     0.372783216645    15.994914619570
         O            4.194045875647     0.435817100200    -0.971625783355    15.994914619570
         O           -2.828505124353     0.033771100200    -0.806282783355    15.994914619570
         O           -3.260763124353    -0.722861899800     1.622919216645    15.994914619570
         O           -2.120635124353    -2.343223899800    -0.098419783355    15.994914619570
         C            0.116519875647     0.030429100200     0.017567216645    12.000000000000
         C            0.951649875647    -1.243784899800    -0.074476783355    12.000000000000
         C            0.896946875647     1.203064100200     0.566099216645    12.000000000000
         C            2.258017875647    -1.013886899800    -0.816788783355    12.000000000000
         C            2.215569175647     1.389078000200    -0.255172183355    12.000000000000
         C            3.024199875647     0.149125100200    -0.209073783355    12.000000000000
         C           -3.125855124353     1.432018100200    -0.487637783355    12.000000000000
         C           -3.537959124353     2.085585100200    -1.782870783355    12.000000000000
         H           -0.284734124353     0.299221100200    -0.968989783355     1.007825032230
         H            0.368626875647    -2.028943899800    -0.570783783355     1.007825032230
         H            1.155477875647     0.998297100200     1.613404216645     1.007825032230
         H            2.059291875647    -0.788239899800    -1.871507783355     1.007825032230
         H            1.915344875647     1.636707100200    -1.272334783355     1.007825032230
         H            3.294212875647    -0.094111899800     0.828894216645     1.007825032230
         H            0.520132875647    -1.887611899800     1.712758216645     1.007825032230
         H            0.663897875647     3.109731100200     0.684432216645     1.007825032230
         H            2.971900875647    -2.546953899800     0.095902216645     1.007825032230
         H            3.711259475647     2.522577400200    -0.076485583355     1.007825032230
         H            4.638084875647    -0.423413899800    -1.095838783355     1.007825032230
         H           -3.810037124353    -1.521917899800     1.735976216645     1.007825032230
         H           -3.932188124353     1.445961100200     0.250634216645     1.007825032230
         H           -2.231404124353     1.893300100200    -0.057847783355     1.007825032230
         H           -3.802163124353     3.131302100200    -1.601422783355     1.007825032230
         H           -2.718838124353     2.053743100200    -2.503626783355     1.007825032230
         H           -4.402586124353     1.574743100200    -2.211475783355     1.007825032230

  Basis Set: AUG-CC-PVTZ
    Blend: AUG-CC-PVTZ
  Basis Set: (AUG-CC-PVTZ AUX)
    Blend: AUG-CC-PVTZ-JKFIT
	 Reference Energy          =   -1327.8575954420402923 [Eh]
	 Singles Energy            =      -0.0000000000000000 [Eh]
	 Same-Spin Energy          =      -1.0149240842576075 [Eh]
	 Opposite-Spin Energy      =      -3.0768231556469821 [Eh]
	 Correlation Energy        =      -4.0917472399045893 [Eh]
	 Total Energy              =   -1331.9493426819449269 [Eh]

	 ================> DF-SCS-MP2 Energies <==================
	-----------------------------------------------------------
	 SCS Same-Spin Scale       =       0.3333333333333333 [-]
	 SCS Opposite-Spin Scale   =       1.2000000000000000 [-]
	 SCS Same-Spin Energy      =      -0.3383080280858691 [Eh]
	 SCS Opposite-Spin Energy  =      -3.6921877867763784 [Eh]
	 SCS Correlation Energy    =      -4.0304958148622472 [Eh]
	 SCS Total Energy          =   -1331.8880912569024986 [Eh]
	-----------------------------------------------------------

  Dipole Moment: [D]
     X:    -1.0876      Y:     1.8317      Z:     0.6861     Total:     2.2381

*** Psi4 exiting successfully. Buy a developer a beer!
