                               Psi4 1.3.2 release

  ==> Input File <==

--------------------------------------------------------------------------
#psi4
#
memory 32 gb

molecule  {
0 1
  P       -2.2900960    -0.9400430     0.3446780
  O       -0.9821530    -0.2015620     0.9382890
  O        1.3422500    -1.6754830     1.2308510
  O        0.0787050     2.3596040     0.4621680
  O        3.0685150    -2.1870720    -0.8085900
  O        2.8473350     2.5031130     0.3715350
  O        4.1956880     0.4353970    -0.9728740
  O       -2.8268630     0.0333510    -0.8075310
  O       -3.2591210    -0.7232820     1.6216710
  O       -2.1189930    -2.3436440    -0.0996680
  C        0.1181620     0.0300090     0.0163190
  C        0.9145912    -1.2308748    -0.1439703
  C        0.8985890     1.2026440     0.5648510
  C        2.2596600    -1.0143070    -0.8180370
  C        2.1770750     1.3964720    -0.2280410
  C        3.0258420     0.1487050    -0.2103220
  C       -3.1242130     1.4315980    -0.4888860
  C       -3.5363170     2.0851650    -1.7841190
  H       -0.2830920     0.2988010    -0.9702380
  H        0.3702690    -2.0293640    -0.5720320
  H        1.1571200     0.9978770     1.6121560
  H        2.0048245    -0.7938774    -1.8617374
  H        1.9169870     1.6362870    -1.2735830
  H        3.2958550    -0.0945320     0.8276460
  H        0.5217750    -1.8880320     1.7115100
  H        0.6655400     3.1093110     0.6831840
  H        2.9735430    -2.5473740     0.0946540
  H        3.7214290     2.5491860    -0.0588690
  H        4.6397270    -0.4238340    -1.0970870
  H       -3.8083950    -1.5223380     1.7347280
  H       -3.9305460     1.4455410     0.2493860
  H       -2.2297620     1.8928800    -0.0590960
  H       -3.8005210     3.1308820    -1.6026710
  H       -2.7171960     2.0533230    -2.5048750
  H       -4.4009440     1.5743230    -2.2127240
units angstrom
no_reorient  #important for SAPT in psi4, default
symmetry c1  #important for SAPT in psi4, default
}

set PROPERTIES_ORIGIN ["COM"]
properties('MP2/aug-cc-pvtz', properties = ['dipole'])
--------------------------------------------------------------------------

    Molecular point group: c1
  Charge       = 0
  Multiplicity = 1
  Basis Set: AUG-CC-PVTZ
    Blend: AUG-CC-PVTZ
  Basis Set: (AUG-CC-PVTZ AUX)
    Blend: AUG-CC-PVTZ-JKFIT

    Orbital Energies [Eh]
    ---------------------

    Doubly Occupied:

       1A    -80.117756     2A    -20.615216     3A    -20.608269
       4A    -20.599616     5A    -20.577362     6A    -20.576233
       7A    -20.574778     8A    -20.574593     9A    -20.573848
      10A    -20.524367    11A    -11.323192    12A    -11.304092
      13A    -11.301972    14A    -11.300444    15A    -11.299917
      16A    -11.297513    17A    -11.293216    18A    -11.230334
      19A     -7.633213    20A     -5.531719    21A     -5.531345
      22A     -5.530145    23A     -1.460959    24A     -1.407339
      25A     -1.395061    26A     -1.388763    27A     -1.387396
      28A     -1.369514    29A     -1.358129    30A     -1.345964
      31A     -1.304760    32A     -1.122905    33A     -1.041003
      34A     -1.016615    35A     -1.006896    36A     -0.881802
      37A     -0.865734    38A     -0.862841    39A     -0.823804
      40A     -0.806656    41A     -0.751020    42A     -0.742522
      43A     -0.733593    44A     -0.728490    45A     -0.708736
      46A     -0.688420    47A     -0.674086    48A     -0.671540
      49A     -0.662317    50A     -0.660261    51A     -0.645056
      52A     -0.635566    53A     -0.626026    54A     -0.612932
      55A     -0.604400    56A     -0.599066    57A     -0.583690
      58A     -0.576151    59A     -0.568435    60A     -0.559677
      61A     -0.556494    62A     -0.546143    63A     -0.540736
      64A     -0.536755    65A     -0.523967    66A     -0.519554
      67A     -0.513264    68A     -0.501836    69A     -0.497346
      70A     -0.485283    71A     -0.480905    72A     -0.477518
      73A     -0.465705    74A     -0.456599    75A     -0.454497
      76A     -0.442380

  @DF-RHF Final Energy: -1327.85311020775453

   => Energetics <=

    Nuclear Repulsion Energy =           1772.1467131227755090
    One-Electron Energy =               -5356.4071615085385929
    Two-Electron Energy =                2256.4073381780085583
    Total Energy =                      -1327.8531102077545256
  Basis Set: (AUG-CC-PVTZ AUX)
    Blend: AUG-CC-PVTZ-RI
    Molecular point group: c1

    Geometry (in Angstrom), charge = 0, multiplicity = 1:

       Center              X                  Y                   Z               Mass
    ------------   -----------------  -----------------  -----------------  -----------------
         P           -2.288287467841    -0.940580035809     0.347482392357    30.973761998420
         O           -0.980344467841    -0.202099035809     0.941093392357    15.994914619570
         O            1.344058532159    -1.676020035809     1.233655392357    15.994914619570
         O            0.080513532159     2.359066964191     0.464972392357    15.994914619570
         O            3.070323532159    -2.187609035809    -0.805785607643    15.994914619570
         O            2.849143532159     2.502575964191     0.374339392357    15.994914619570
         O            4.197496532159     0.434859964191    -0.970069607643    15.994914619570
         O           -2.825054467841     0.032813964191    -0.804726607643    15.994914619570
         O           -3.257312467841    -0.723819035809     1.624475392357    15.994914619570
         O           -2.117184467841    -2.344181035809    -0.096863607643    15.994914619570
         C            0.119970532159     0.029471964191     0.019123392357    12.000000000000
         C            0.916399732159    -1.231411835809    -0.141165907643    12.000000000000
         C            0.900397532159     1.202106964191     0.567655392357    12.000000000000
         C            2.261468532159    -1.014844035809    -0.815232607643    12.000000000000
         C            2.178883532159     1.395934964191    -0.225236607643    12.000000000000
         C            3.027650532159     0.148167964191    -0.207517607643    12.000000000000
         C           -3.122404467841     1.431060964191    -0.486081607643    12.000000000000
         C           -3.534508467841     2.084627964191    -1.781314607643    12.000000000000
         H           -0.281283467841     0.298263964191    -0.967433607643     1.007825032230
         H            0.372077532159    -2.029901035809    -0.569227607643     1.007825032230
         H            1.158928532159     0.997339964191     1.614960392357     1.007825032230
         H            2.006633032159    -0.794414435809    -1.858933007643     1.007825032230
         H            1.918795532159     1.635749964191    -1.270778607643     1.007825032230
         H            3.297663532159    -0.095069035809     0.830450392357     1.007825032230
         H            0.523583532159    -1.888569035809     1.714314392357     1.007825032230
         H            0.667348532159     3.108773964191     0.685988392357     1.007825032230
         H            2.975351532159    -2.547911035809     0.097458392357     1.007825032230
         H            3.723237532159     2.548648964191    -0.056064607643     1.007825032230
         H            4.641535532159    -0.424371035809    -1.094282607643     1.007825032230
         H           -3.806586467841    -1.522875035809     1.737532392357     1.007825032230
         H           -3.928737467841     1.445003964191     0.252190392357     1.007825032230
         H           -2.227953467841     1.892342964191    -0.056291607643     1.007825032230
         H           -3.798712467841     3.130344964191    -1.599866607643     1.007825032230
         H           -2.715387467841     2.052785964191    -2.502070607643     1.007825032230
         H           -4.399135467841     1.573785964191    -2.209919607643     1.007825032230

  Basis Set: AUG-CC-PVTZ
    Blend: AUG-CC-PVTZ
  Basis Set: (AUG-CC-PVTZ AUX)
    Blend: AUG-CC-PVTZ-JKFIT
	 Reference Energy          =   -1327.8531102077545256 [Eh]
	 Singles Energy            =      -0.0000000000000000 [Eh]
	 Same-Spin Energy          =      -1.0149823355564753 [Eh]
	 Opposite-Spin Energy      =      -3.0777830641508728 [Eh]
	 Correlation Energy        =      -4.0927653997073481 [Eh]
	 Total Energy              =   -1331.9458756074618577 [Eh]

	 ================> DF-SCS-MP2 Energies <==================
	-----------------------------------------------------------
	 SCS Same-Spin Scale       =       0.3333333333333333 [-]
	 SCS Opposite-Spin Scale   =       1.2000000000000000 [-]
	 SCS Same-Spin Energy      =      -0.3383274451854917 [Eh]
	 SCS Opposite-Spin Energy  =      -3.6933396769810471 [Eh]
	 SCS Correlation Energy    =      -4.0316671221665388 [Eh]
	 SCS Total Energy          =   -1331.8847773299210075 [Eh]
	-----------------------------------------------------------

  Dipole Moment: [D]
     X:    -1.1777      Y:     1.9475      Z:     0.5502     Total:     2.3414

*** Psi4 exiting successfully. Buy a developer a beer!
