                               Psi4 1.3.2 release

  ==> Input File <==

--------------------------------------------------------------------------
#psi4
#
memory 32 gb

molecule  {
0 1
  P       -2.2900960    -0.9400430     0.3446780
  O       -0.9821530    -0.2015620     0.9382890
  O        1.3364118    -1.6863444     1.2289442
  O        0.0787050     2.3596040     0.4621680
  O        3.0685150    -2.1870720    -0.8085900
  O        2.8473350     2.5031130     0.3715350
  O        4.1956880     0.4353970    -0.9728740
  O       -2.8268630     0.0333510    -0.8075310
  O       -3.2591210    -0.7232820     1.6216710
  O       -2.1189930    -2.3436440    -0.0996680
  C        0.1181620     0.0300090     0.0163190
  C        0.9532920    -1.2442050    -0.0757250
  C        0.8985890     1.2026440     0.5648510
  C        2.2596600    -1.0143070    -0.8180370
  C        2.1770750     1.3964720    -0.2280410
  C        3.0258420     0.1487050    -0.2103220
  C       -3.1242130     1.4315980    -0.4888860
  C       -3.5363170     2.0851650    -1.7841190
  H       -0.2830920     0.2988010    -0.9702380
  H        0.3712089    -2.0349016    -0.5642833
  H        1.1571200     0.9978770     1.6121560
  H        2.0609340    -0.7886600    -1.8727560
  H        1.9169870     1.6362870    -1.2735830
  H        3.2958550    -0.0945320     0.8276460
  H        0.5217750    -1.8880320     1.7115100
  H        0.6655400     3.1093110     0.6831840
  H        2.9735430    -2.5473740     0.0946540
  H        3.7214290     2.5491860    -0.0588690
  H        4.6397270    -0.4238340    -1.0970870
  H       -3.8083950    -1.5223380     1.7347280
  H       -3.9305460     1.4455410     0.2493860
  H       -2.2297620     1.8928800    -0.0590960
  H       -3.8005210     3.1308820    -1.6026710
  H       -2.7171960     2.0533230    -2.5048750
  H       -4.4009440     1.5743230    -2.2127240
units angstrom
no_reorient  #important for SAPT in psi4, default
symmetry c1  #important for SAPT in psi4, default
}

set PROPERTIES_ORIGIN ["COM"]
properties('MP2/aug-cc-pvtz', properties = ['dipole'])
--------------------------------------------------------------------------

    Molecular point group: c1
  Charge       = 0
  Multiplicity = 1
  Basis Set: AUG-CC-PVTZ
    Blend: AUG-CC-PVTZ
  Basis Set: (AUG-CC-PVTZ AUX)
    Blend: AUG-CC-PVTZ-JKFIT

    Orbital Energies [Eh]
    ---------------------

    Doubly Occupied:

       1A    -80.116933     2A    -20.614721     3A    -20.607098
       4A    -20.598954     5A    -20.582007     6A    -20.576982
       7A    -20.574652     8A    -20.574297     9A    -20.573684
      10A    -20.523359    11A    -11.321052    12A    -11.303524
      13A    -11.299604    14A    -11.299419    15A    -11.298914
      16A    -11.296912    17A    -11.291702    18A    -11.229893
      19A     -7.632382    20A     -5.530888    21A     -5.530516
      22A     -5.529312    23A     -1.460315    24A     -1.411028
      25A     -1.394896    26A     -1.393215    27A     -1.386873
      28A     -1.373053    29A     -1.364252    30A     -1.354058
      31A     -1.303761    32A     -1.119408    33A     -1.040491
      34A     -1.012188    35A     -1.003683    36A     -0.880481
      37A     -0.865019    38A     -0.859246    39A     -0.822388
      40A     -0.811254    41A     -0.752141    42A     -0.745283
      43A     -0.731475    44A     -0.728736    45A     -0.708135
      46A     -0.687326    47A     -0.678275    48A     -0.673766
      49A     -0.662494    50A     -0.661076    51A     -0.643421
      52A     -0.635134    53A     -0.627428    54A     -0.615913
      55A     -0.603763    56A     -0.598451    57A     -0.581831
      58A     -0.575599    59A     -0.571229    60A     -0.559384
      61A     -0.556518    62A     -0.548289    63A     -0.541128
      64A     -0.536886    65A     -0.530021    66A     -0.521800
      67A     -0.513231    68A     -0.504327    69A     -0.496935
      70A     -0.484984    71A     -0.479828    72A     -0.476584
      73A     -0.462521    74A     -0.456088    75A     -0.450304
      76A     -0.436287

  @DF-RHF Final Energy: -1327.86190707204128

   => Energetics <=

    Nuclear Repulsion Energy =           1772.3338999687282467
    One-Electron Energy =               -5356.7936055622485583
    Two-Electron Energy =                2256.5977985214785804
    Total Energy =                      -1327.8619070720415039
  Basis Set: (AUG-CC-PVTZ AUX)
    Blend: AUG-CC-PVTZ-RI
    Molecular point group: c1

    Geometry (in Angstrom), charge = 0, multiplicity = 1:

       Center              X                  Y                   Z               Mass
    ------------   -----------------  -----------------  -----------------  -----------------
         P           -2.289775082875    -0.939420516648     0.344756758003    30.973761998420
         O           -0.981832082875    -0.200939516648     0.938367758003    15.994914619570
         O            1.336732717125    -1.685721916648     1.229022958003    15.994914619570
         O            0.079025917125     2.360226483352     0.462246758003    15.994914619570
         O            3.068835917125    -2.186449516648    -0.808511241997    15.994914619570
         O            2.847655917125     2.503735483352     0.371613758003    15.994914619570
         O            4.196008917125     0.436019483352    -0.972795241997    15.994914619570
         O           -2.826542082875     0.033973483352    -0.807452241997    15.994914619570
         O           -3.258800082875    -0.722659516648     1.621749758003    15.994914619570
         O           -2.118672082875    -2.343021516648    -0.099589241997    15.994914619570
         C            0.118482917125     0.030631483352     0.016397758003    12.000000000000
         C            0.953612917125    -1.243582516648    -0.075646241997    12.000000000000
         C            0.898909917125     1.203266483352     0.564929758003    12.000000000000
         C            2.259980917125    -1.013684516648    -0.817958241997    12.000000000000
         C            2.177395917125     1.397094483352    -0.227962241997    12.000000000000
         C            3.026162917125     0.149327483352    -0.210243241997    12.000000000000
         C           -3.123892082875     1.432220483352    -0.488807241997    12.000000000000
         C           -3.535996082875     2.085787483352    -1.784040241997    12.000000000000
         H           -0.282771082875     0.299423483352    -0.970159241997     1.007825032230
         H            0.371529817125    -2.034279116648    -0.564204541997     1.007825032230
         H            1.157440917125     0.998499483352     1.612234758003     1.007825032230
         H            2.061254917125    -0.788037516648    -1.872677241997     1.007825032230
         H            1.917307917125     1.636909483352    -1.273504241997     1.007825032230
         H            3.296175917125    -0.093909516648     0.827724758003     1.007825032230
         H            0.522095917125    -1.887409516648     1.711588758003     1.007825032230
         H            0.665860917125     3.109933483352     0.683262758003     1.007825032230
         H            2.973863917125    -2.546751516648     0.094732758003     1.007825032230
         H            3.721749917125     2.549808483352    -0.058790241997     1.007825032230
         H            4.640047917125    -0.423211516648    -1.097008241997     1.007825032230
         H           -3.808074082875    -1.521715516648     1.734806758003     1.007825032230
         H           -3.930225082875     1.446163483352     0.249464758003     1.007825032230
         H           -2.229441082875     1.893502483352    -0.059017241997     1.007825032230
         H           -3.800200082875     3.131504483352    -1.602592241997     1.007825032230
         H           -2.716875082875     2.053945483352    -2.504796241997     1.007825032230
         H           -4.400623082875     1.574945483352    -2.212645241997     1.007825032230

  Basis Set: AUG-CC-PVTZ
    Blend: AUG-CC-PVTZ
  Basis Set: (AUG-CC-PVTZ AUX)
    Blend: AUG-CC-PVTZ-JKFIT
	 Reference Energy          =   -1327.8619070720412765 [Eh]
	 Singles Energy            =      -0.0000000000000000 [Eh]
	 Same-Spin Energy          =      -1.0144682613028584 [Eh]
	 Opposite-Spin Energy      =      -3.0757985761689270 [Eh]
	 Correlation Energy        =      -4.0902668374717859 [Eh]
	 Total Energy              =   -1331.9521739095130215 [Eh]

	 ================> DF-SCS-MP2 Energies <==================
	-----------------------------------------------------------
	 SCS Same-Spin Scale       =       0.3333333333333333 [-]
	 SCS Opposite-Spin Scale   =       1.2000000000000000 [-]
	 SCS Same-Spin Energy      =      -0.3381560871009528 [Eh]
	 SCS Opposite-Spin Energy  =      -3.6909582914027124 [Eh]
	 SCS Correlation Energy    =      -4.0291143785036656 [Eh]
	 SCS Total Energy          =   -1331.8910214505449403 [Eh]
	-----------------------------------------------------------

  Dipole Moment: [D]
     X:    -1.1046      Y:     1.8900      Z:     0.7190     Total:     2.3042

*** Psi4 exiting successfully. Buy a developer a beer!
