                               Psi4 1.3.2 release

  ==> Input File <==

--------------------------------------------------------------------------
#psi4
#
memory 32 gb

molecule  {
0 1
  P       -2.2900960    -0.9400430     0.3446780
  O       -0.9821530    -0.2015620     0.9382890
  O        1.3422500    -1.6754830     1.2308510
  O        0.0787050     2.3596040     0.4621680
  O        3.0685150    -2.1870720    -0.8085900
  O        2.8473350     2.5031130     0.3715350
  O        4.1956880     0.4353970    -0.9728740
  O       -2.8268630     0.0333510    -0.8075310
  O       -3.2568329    -0.7093701     1.6209678
  O       -2.1111218    -2.3396340    -0.1091157
  C        0.1181620     0.0300090     0.0163190
  C        0.9532920    -1.2442050    -0.0757250
  C        0.8985890     1.2026440     0.5648510
  C        2.2596600    -1.0143070    -0.8180370
  C        2.1770750     1.3964720    -0.2280410
  C        3.0258420     0.1487050    -0.2103220
  C       -3.1242130     1.4315980    -0.4888860
  C       -3.5363170     2.0851650    -1.7841190
  H       -0.2830920     0.2988010    -0.9702380
  H        0.3702690    -2.0293640    -0.5720320
  H        1.1571200     0.9978770     1.6121560
  H        2.0609340    -0.7886600    -1.8727560
  H        1.9169870     1.6362870    -1.2735830
  H        3.2958550    -0.0945320     0.8276460
  H        0.5217750    -1.8880320     1.7115100
  H        0.6655400     3.1093110     0.6831840
  H        2.9735430    -2.5473740     0.0946540
  H        3.7214290     2.5491860    -0.0588690
  H        4.6397270    -0.4238340    -1.0970870
  H       -3.8083950    -1.5223380     1.7347280
  H       -3.9305460     1.4455410     0.2493860
  H       -2.2297620     1.8928800    -0.0590960
  H       -3.8005210     3.1308820    -1.6026710
  H       -2.7171960     2.0533230    -2.5048750
  H       -4.4009440     1.5743230    -2.2127240
units angstrom
no_reorient  #important for SAPT in psi4, default
symmetry c1  #important for SAPT in psi4, default
}

set PROPERTIES_ORIGIN ["COM"]
properties('MP2/aug-cc-pvtz', properties = ['dipole'])
--------------------------------------------------------------------------

    Molecular point group: c1
  Charge       = 0
  Multiplicity = 1
  Basis Set: AUG-CC-PVTZ
    Blend: AUG-CC-PVTZ
  Basis Set: (AUG-CC-PVTZ AUX)
    Blend: AUG-CC-PVTZ-JKFIT

    Orbital Energies [Eh]
    ---------------------

    Doubly Occupied:

       1A    -80.116815     2A    -20.617014     3A    -20.606326
       4A    -20.598181     5A    -20.582936     6A    -20.576612
       7A    -20.574429     8A    -20.573932     9A    -20.573212
      10A    -20.524307    11A    -11.320288    12A    -11.303183
      13A    -11.299115    14A    -11.298904    15A    -11.298341
      16A    -11.296467    17A    -11.291244    18A    -11.229548
      19A     -7.632312    20A     -5.530831    21A     -5.530433
      22A     -5.529235    23A     -1.459851    24A     -1.410424
      25A     -1.394232    26A     -1.392566    27A     -1.385733
      28A     -1.372401    29A     -1.363752    30A     -1.353645
      31A     -1.304478    32A     -1.118770    33A     -1.040047
      34A     -1.011692    35A     -1.003189    36A     -0.879635
      37A     -0.864546    38A     -0.858772    39A     -0.820873
      40A     -0.810346    41A     -0.751357    42A     -0.744441
      43A     -0.730454    44A     -0.728354    45A     -0.707122
      46A     -0.686924    47A     -0.678036    48A     -0.673747
      49A     -0.662329    50A     -0.660763    51A     -0.642869
      52A     -0.634709    53A     -0.626861    54A     -0.615080
      55A     -0.603404    56A     -0.598288    57A     -0.581830
      58A     -0.575278    59A     -0.570873    60A     -0.559346
      61A     -0.556468    62A     -0.548277    63A     -0.540960
      64A     -0.536419    65A     -0.529581    66A     -0.521461
      67A     -0.512759    68A     -0.504050    69A     -0.497106
      70A     -0.484557    71A     -0.479998    72A     -0.477023
      73A     -0.462263    74A     -0.455685    75A     -0.449870
      76A     -0.436080

  @DF-RHF Final Energy: -1327.86024273628095

   => Energetics <=

    Nuclear Repulsion Energy =           1772.6660698513785519
    One-Electron Energy =               -5357.5061547052446258
    Two-Electron Energy =                2256.9798421175846670
    Total Energy =                      -1327.8602427362811795
  Basis Set: (AUG-CC-PVTZ AUX)
    Blend: AUG-CC-PVTZ-RI
    Molecular point group: c1

    Geometry (in Angstrom), charge = 0, multiplicity = 1:

       Center              X                  Y                   Z               Mass
    ------------   -----------------  -----------------  -----------------  -----------------
         P           -2.290660073814    -0.941038116139     0.345241630999    30.973761998420
         O           -0.982717073814    -0.202557116139     0.938852630999    15.994914619570
         O            1.341685926186    -1.676478116139     1.231414630999    15.994914619570
         O            0.078140926186     2.358608883861     0.462731630999    15.994914619570
         O            3.067950926186    -2.188067116139    -0.808026369001    15.994914619570
         O            2.846770926186     2.502117883861     0.372098630999    15.994914619570
         O            4.195123926186     0.434401883861    -0.972310369001    15.994914619570
         O           -2.827427073814     0.032355883861    -0.806967369001    15.994914619570
         O           -3.257396973814    -0.710365216139     1.621531430999    15.994914619570
         O           -2.111685873814    -2.340629116139    -0.108552069001    15.994914619570
         C            0.117597926186     0.029013883861     0.016882630999    12.000000000000
         C            0.952727926186    -1.245200116139    -0.075161369001    12.000000000000
         C            0.898024926186     1.201648883861     0.565414630999    12.000000000000
         C            2.259095926186    -1.015302116139    -0.817473369001    12.000000000000
         C            2.176510926186     1.395476883861    -0.227477369001    12.000000000000
         C            3.025277926186     0.147709883861    -0.209758369001    12.000000000000
         C           -3.124777073814     1.430602883861    -0.488322369001    12.000000000000
         C           -3.536881073814     2.084169883861    -1.783555369001    12.000000000000
         H           -0.283656073814     0.297805883861    -0.969674369001     1.007825032230
         H            0.369704926186    -2.030359116139    -0.571468369001     1.007825032230
         H            1.156555926186     0.996881883861     1.612719630999     1.007825032230
         H            2.060369926186    -0.789655116139    -1.872192369001     1.007825032230
         H            1.916422926186     1.635291883861    -1.273019369001     1.007825032230
         H            3.295290926186    -0.095527116139     0.828209630999     1.007825032230
         H            0.521210926186    -1.889027116139     1.712073630999     1.007825032230
         H            0.664975926186     3.108315883861     0.683747630999     1.007825032230
         H            2.972978926186    -2.548369116139     0.095217630999     1.007825032230
         H            3.720864926186     2.548190883861    -0.058305369001     1.007825032230
         H            4.639162926186    -0.424829116139    -1.096523369001     1.007825032230
         H           -3.808959073814    -1.523333116139     1.735291630999     1.007825032230
         H           -3.931110073814     1.444545883861     0.249949630999     1.007825032230
         H           -2.230326073814     1.891884883861    -0.058532369001     1.007825032230
         H           -3.801085073814     3.129886883861    -1.602107369001     1.007825032230
         H           -2.717760073814     2.052327883861    -2.504311369001     1.007825032230
         H           -4.401508073814     1.573327883861    -2.212160369001     1.007825032230

  Basis Set: AUG-CC-PVTZ
    Blend: AUG-CC-PVTZ
  Basis Set: (AUG-CC-PVTZ AUX)
    Blend: AUG-CC-PVTZ-JKFIT
	 Reference Energy          =   -1327.8602427362809522 [Eh]
	 Singles Energy            =      -0.0000000000000000 [Eh]
	 Same-Spin Energy          =      -1.0148448280307316 [Eh]
	 Opposite-Spin Energy      =      -3.0766175572914971 [Eh]
	 Correlation Energy        =      -4.0914623853222292 [Eh]
	 Total Energy              =   -1331.9517051216032542 [Eh]

	 ================> DF-SCS-MP2 Energies <==================
	-----------------------------------------------------------
	 SCS Same-Spin Scale       =       0.3333333333333333 [-]
	 SCS Opposite-Spin Scale   =       1.2000000000000000 [-]
	 SCS Same-Spin Energy      =      -0.3382816093435772 [Eh]
	 SCS Opposite-Spin Energy  =      -3.6919410687497964 [Eh]
	 SCS Correlation Energy    =      -4.0302226780933736 [Eh]
	 SCS Total Energy          =   -1331.8904654143743755 [Eh]
	-----------------------------------------------------------

  Dipole Moment: [D]
     X:    -1.1579      Y:     1.8079      Z:     0.7609     Total:     2.2777

*** Psi4 exiting successfully. Buy a developer a beer!
