                               Psi4 1.3.2 release

  ==> Input File <==

--------------------------------------------------------------------------
#psi4
#
memory 32 gb

molecule  {
0 1
  P       -2.2900960    -0.9400430     0.3446780
  O       -0.9821530    -0.2015620     0.9382890
  O        1.3422500    -1.6754830     1.2308510
  O        0.0787050     2.3596040     0.4621680
  O        3.0685150    -2.1870720    -0.8085900
  O        2.8473350     2.5031130     0.3715350
  O        4.1956880     0.4353970    -0.9728740
  O       -2.8268630     0.0333510    -0.8075310
  O       -3.2591210    -0.7232820     1.6216710
  O       -2.1189930    -2.3436440    -0.0996680
  C        0.1181620     0.0300090     0.0163190
  C        0.9532920    -1.2442050    -0.0757250
  C        0.8985890     1.2026440     0.5648510
  C        2.2596600    -1.0143070    -0.8180370
  C        2.1770750     1.3964720    -0.2280410
  C        3.0265276     0.1228484    -0.1640179
  C       -3.1242130     1.4315980    -0.4888860
  C       -3.5363170     2.0851650    -1.7841190
  H       -0.2830920     0.2988010    -0.9702380
  H        0.3702690    -2.0293640    -0.5720320
  H        1.1571200     0.9978770     1.6121560
  H        2.0430255    -0.8223485    -1.8758943
  H        1.9169870     1.6362870    -1.2735830
  H        3.2958550    -0.0945320     0.8276460
  H        0.5217750    -1.8880320     1.7115100
  H        0.6655400     3.1093110     0.6831840
  H        2.9735430    -2.5473740     0.0946540
  H        3.7214290     2.5491860    -0.0588690
  H        4.6397270    -0.4238340    -1.0970870
  H       -3.8083950    -1.5223380     1.7347280
  H       -3.9305460     1.4455410     0.2493860
  H       -2.2297620     1.8928800    -0.0590960
  H       -3.8005210     3.1308820    -1.6026710
  H       -2.7171960     2.0533230    -2.5048750
  H       -4.4009440     1.5743230    -2.2127240
units angstrom
no_reorient  #important for SAPT in psi4, default
symmetry c1  #important for SAPT in psi4, default
}

set PROPERTIES_ORIGIN ["COM"]
properties('MP2/aug-cc-pvtz', properties = ['dipole'])
--------------------------------------------------------------------------

    Molecular point group: c1
  Charge       = 0
  Multiplicity = 1
  Basis Set: AUG-CC-PVTZ
    Blend: AUG-CC-PVTZ
  Basis Set: (AUG-CC-PVTZ AUX)
    Blend: AUG-CC-PVTZ-JKFIT

    Orbital Energies [Eh]
    ---------------------

    Doubly Occupied:

       1A    -80.117056     2A    -20.614839     3A    -20.607171
       4A    -20.599031     5A    -20.583689     6A    -20.576466
       7A    -20.573529     8A    -20.573079     9A    -20.571421
      10A    -20.523549    11A    -11.320865    12A    -11.303059
      13A    -11.299938    14A    -11.299433    15A    -11.298250
      16A    -11.297583    17A    -11.290852    18A    -11.229915
      19A     -7.632506    20A     -5.531012    21A     -5.530639
      22A     -5.529437    23A     -1.460404    24A     -1.410210
      25A     -1.393054    26A     -1.392021    27A     -1.386760
      28A     -1.369607    29A     -1.363584    30A     -1.349144
      31A     -1.303946    32A     -1.118454    33A     -1.040501
      34A     -1.011073    35A     -1.003304    36A     -0.881534
      37A     -0.865411    38A     -0.856458    39A     -0.824163
      40A     -0.812522    41A     -0.751433    42A     -0.744006
      43A     -0.730705    44A     -0.728831    45A     -0.708375
      46A     -0.687030    47A     -0.677797    48A     -0.672612
      49A     -0.661191    50A     -0.658898    51A     -0.642894
      52A     -0.632279    53A     -0.627090    54A     -0.615000
      55A     -0.603510    56A     -0.600435    57A     -0.581588
      58A     -0.575648    59A     -0.571251    60A     -0.559517
      61A     -0.555261    62A     -0.548565    63A     -0.541285
      64A     -0.534548    65A     -0.529775    66A     -0.521208
      67A     -0.512552    68A     -0.505704    69A     -0.496967
      70A     -0.485445    71A     -0.479921    72A     -0.476955
      73A     -0.463336    74A     -0.455899    75A     -0.449969
      76A     -0.437896

  @DF-RHF Final Energy: -1327.85731069751228

   => Energetics <=

    Nuclear Repulsion Energy =           1772.1558460667888539
    One-Electron Energy =               -5356.4846201708678564
    Two-Electron Energy =                2256.4714634065667269
    Total Energy =                      -1327.8573106975122755
  Basis Set: (AUG-CC-PVTZ AUX)
    Blend: AUG-CC-PVTZ-RI
    Molecular point group: c1

    Geometry (in Angstrom), charge = 0, multiplicity = 1:

       Center              X                  Y                   Z               Mass
    ------------   -----------------  -----------------  -----------------  -----------------
         P           -2.290061872186    -0.938847987895     0.342760041773    30.973761998420
         O           -0.982118872186    -0.200366987895     0.936371041773    15.994914619570
         O            1.342284127814    -1.674287987895     1.228933041773    15.994914619570
         O            0.078739127814     2.360799012105     0.460250041773    15.994914619570
         O            3.068549127814    -2.185876987895    -0.810507958227    15.994914619570
         O            2.847369127814     2.504308012105     0.369617041773    15.994914619570
         O            4.195722127814     0.436592012105    -0.974791958227    15.994914619570
         O           -2.826828872186     0.034546012105    -0.809448958227    15.994914619570
         O           -3.259086872186    -0.722086987895     1.619753041773    15.994914619570
         O           -2.118958872186    -2.342448987895    -0.101585958227    15.994914619570
         C            0.118196127814     0.031204012105     0.014401041773    12.000000000000
         C            0.953326127814    -1.243009987895    -0.077642958227    12.000000000000
         C            0.898623127814     1.203839012105     0.562933041773    12.000000000000
         C            2.259694127814    -1.013111987895    -0.819954958227    12.000000000000
         C            2.177109127814     1.397667012105    -0.229958958227    12.000000000000
         C            3.026561727814     0.124043412105    -0.165935858227    12.000000000000
         C           -3.124178872186     1.432793012105    -0.490803958227    12.000000000000
         C           -3.536282872186     2.086360012105    -1.786036958227    12.000000000000
         H           -0.283057872186     0.299996012105    -0.972155958227     1.007825032230
         H            0.370303127814    -2.028168987895    -0.573949958227     1.007825032230
         H            1.157154127814     0.999072012105     1.610238041773     1.007825032230
         H            2.043059627814    -0.821153487895    -1.877812258227     1.007825032230
         H            1.917021127814     1.637482012105    -1.275500958227     1.007825032230
         H            3.295889127814    -0.093336987895     0.825728041773     1.007825032230
         H            0.521809127814    -1.886836987895     1.709592041773     1.007825032230
         H            0.665574127814     3.110506012105     0.681266041773     1.007825032230
         H            2.973577127814    -2.546178987895     0.092736041773     1.007825032230
         H            3.721463127814     2.550381012105    -0.060786958227     1.007825032230
         H            4.639761127814    -0.422638987895    -1.099004958227     1.007825032230
         H           -3.808360872186    -1.521142987895     1.732810041773     1.007825032230
         H           -3.930511872186     1.446736012105     0.247468041773     1.007825032230
         H           -2.229727872186     1.894075012105    -0.061013958227     1.007825032230
         H           -3.800486872186     3.132077012105    -1.604588958227     1.007825032230
         H           -2.717161872186     2.054518012105    -2.506792958227     1.007825032230
         H           -4.400909872186     1.575518012105    -2.214641958227     1.007825032230

  Basis Set: AUG-CC-PVTZ
    Blend: AUG-CC-PVTZ
  Basis Set: (AUG-CC-PVTZ AUX)
    Blend: AUG-CC-PVTZ-JKFIT
	 Reference Energy          =   -1327.8573106975122755 [Eh]
	 Singles Energy            =      -0.0000000000000000 [Eh]
	 Same-Spin Energy          =      -1.0145864579334671 [Eh]
	 Opposite-Spin Energy      =      -3.0767267305331094 [Eh]
	 Correlation Energy        =      -4.0913131884665770 [Eh]
	 Total Energy              =   -1331.9486238859788045 [Eh]

	 ================> DF-SCS-MP2 Energies <==================
	-----------------------------------------------------------
	 SCS Same-Spin Scale       =       0.3333333333333333 [-]
	 SCS Opposite-Spin Scale   =       1.2000000000000000 [-]
	 SCS Same-Spin Energy      =      -0.3381954859778223 [Eh]
	 SCS Opposite-Spin Energy  =      -3.6920720766397310 [Eh]
	 SCS Correlation Energy    =      -4.0302675626175537 [Eh]
	 SCS Total Energy          =   -1331.8875782601298852 [Eh]
	-----------------------------------------------------------

  Dipole Moment: [D]
     X:    -1.1684      Y:     1.8375      Z:     0.7822     Total:     2.3137

*** Psi4 exiting successfully. Buy a developer a beer!
