                               Psi4 1.3.2 release

  ==> Input File <==

--------------------------------------------------------------------------
#psi4
#
memory 32 gb

molecule  {
0 1
  P       -2.2900960    -0.9400430     0.3446780
  O       -0.9821530    -0.2015620     0.9382890
  O        1.3422500    -1.6754830     1.2308510
  O        0.0787050     2.3596040     0.4621680
  O        3.0685150    -2.1870720    -0.8085900
  O        2.8473350     2.5031130     0.3715350
  O        4.1956880     0.4353970    -0.9728740
  O       -2.8268630     0.0333510    -0.8075310
  O       -3.2591210    -0.7232820     1.6216710
  O       -2.1189930    -2.3436440    -0.0996680
  C        0.1181620     0.0300090     0.0163190
  C        0.8438587    -1.0772353    -0.0636638
  C        0.8985890     1.2026440     0.5648510
  C        2.2596600    -1.0143070    -0.8180370
  C        2.1770750     1.3964720    -0.2280410
  C        3.0258420     0.1487050    -0.2103220
  C       -3.1242130     1.4315980    -0.4888860
  C       -3.5363170     2.0851650    -1.7841190
  H       -0.2830920     0.2988010    -0.9702380
  H        0.3702690    -2.0293640    -0.5720320
  H        1.1571200     0.9978770     1.6121560
  H        2.0609340    -0.7886600    -1.8727560
  H        1.9169870     1.6362870    -1.2735830
  H        3.2958550    -0.0945320     0.8276460
  H        0.5217750    -1.8880320     1.7115100
  H        0.6655400     3.1093110     0.6831840
  H        2.9735430    -2.5473740     0.0946540
  H        3.7214290     2.5491860    -0.0588690
  H        4.6397270    -0.4238340    -1.0970870
  H       -3.8083950    -1.5223380     1.7347280
  H       -3.9305460     1.4455410     0.2493860
  H       -2.2297620     1.8928800    -0.0590960
  H       -3.8005210     3.1308820    -1.6026710
  H       -2.7171960     2.0533230    -2.5048750
  H       -4.4009440     1.5743230    -2.2127240
units angstrom
no_reorient  #important for SAPT in psi4, default
symmetry c1  #important for SAPT in psi4, default
}

set PROPERTIES_ORIGIN ["COM"]
properties('MP2/aug-cc-pvtz', properties = ['dipole'])
--------------------------------------------------------------------------

    Molecular point group: c1
  Charge       = 0
  Multiplicity = 1
  Basis Set: AUG-CC-PVTZ
    Blend: AUG-CC-PVTZ
  Basis Set: (AUG-CC-PVTZ AUX)
    Blend: AUG-CC-PVTZ-JKFIT

    Orbital Energies [Eh]
    ---------------------

    Doubly Occupied:

       1A    -80.117772     2A    -20.615219     3A    -20.608828
       4A    -20.600347     5A    -20.579958     6A    -20.577963
       7A    -20.577116     8A    -20.575784     9A    -20.572283
      10A    -20.522836    11A    -11.316019    12A    -11.307331
      13A    -11.306107    14A    -11.301968    15A    -11.300655
      16A    -11.298112    17A    -11.289828    18A    -11.230929
      19A     -7.633227    20A     -5.531737    21A     -5.531371
      22A     -5.530128    23A     -1.463314    24A     -1.409752
      25A     -1.396482    26A     -1.388612    27A     -1.388004
      28A     -1.369346    29A     -1.358074    30A     -1.348010
      31A     -1.303539    32A     -1.143635    33A     -1.042304
      34A     -1.035055    35A     -0.995434    36A     -0.877419
      37A     -0.870565    38A     -0.862888    39A     -0.824376
      40A     -0.808205    41A     -0.757234    42A     -0.746045
      43A     -0.732510    44A     -0.725455    45A     -0.711573
      46A     -0.687264    47A     -0.674907    48A     -0.669328
      49A     -0.662090    50A     -0.657499    51A     -0.649001
      52A     -0.633902    53A     -0.625492    54A     -0.612169
      55A     -0.605810    56A     -0.596904    57A     -0.584298
      58A     -0.576946    59A     -0.569085    60A     -0.560161
      61A     -0.557349    62A     -0.549886    63A     -0.541008
      64A     -0.534566    65A     -0.527195    66A     -0.519835
      67A     -0.512283    68A     -0.505061    69A     -0.494994
      70A     -0.487129    71A     -0.479869    72A     -0.476789
      73A     -0.464779    74A     -0.456446    75A     -0.455006
      76A     -0.423439

  @DF-RHF Final Energy: -1327.80702644799567

   => Energetics <=

    Nuclear Repulsion Energy =           1775.2585127016980096
    One-Electron Energy =               -5362.4633950088082202
    Two-Electron Energy =                2259.3978558591143155
    Total Energy =                      -1327.8070264479956677
  Basis Set: (AUG-CC-PVTZ AUX)
    Blend: AUG-CC-PVTZ-RI
    Molecular point group: c1

    Geometry (in Angstrom), charge = 0, multiplicity = 1:

       Center              X                  Y                   Z               Mass
    ------------   -----------------  -----------------  -----------------  -----------------
         P           -2.285537212205    -0.946998579463     0.344175547223    30.973761998420
         O           -0.977594212205    -0.208517579463     0.937786547223    15.994914619570
         O            1.346808787795    -1.682438579463     1.230348547223    15.994914619570
         O            0.083263787795     2.352648420537     0.461665547223    15.994914619570
         O            3.073073787795    -2.194027579463    -0.809092452777    15.994914619570
         O            2.851893787795     2.496157420537     0.371032547223    15.994914619570
         O            4.200246787795     0.428441420537    -0.973376452777    15.994914619570
         O           -2.822304212205     0.026395420537    -0.808033452777    15.994914619570
         O           -3.254562212205    -0.730237579463     1.621168547223    15.994914619570
         O           -2.114434212205    -2.350599579463    -0.100170452777    15.994914619570
         C            0.122720787795     0.023053420537     0.015816547223    12.000000000000
         C            0.848417487795    -1.084190879463    -0.064166252777    12.000000000000
         C            0.903147787795     1.195688420537     0.564348547223    12.000000000000
         C            2.264218787795    -1.021262579463    -0.818539452777    12.000000000000
         C            2.181633787795     1.389516420537    -0.228543452777    12.000000000000
         C            3.030400787795     0.141749420537    -0.210824452777    12.000000000000
         C           -3.119654212205     1.424642420537    -0.489388452777    12.000000000000
         C           -3.531758212205     2.078209420537    -1.784621452777    12.000000000000
         H           -0.278533212205     0.291845420537    -0.970740452777     1.007825032230
         H            0.374827787795    -2.036319579463    -0.572534452777     1.007825032230
         H            1.161678787795     0.990921420537     1.611653547223     1.007825032230
         H            2.065492787795    -0.795615579463    -1.873258452777     1.007825032230
         H            1.921545787795     1.629331420537    -1.274085452777     1.007825032230
         H            3.300413787795    -0.101487579463     0.827143547223     1.007825032230
         H            0.526333787795    -1.894987579463     1.711007547223     1.007825032230
         H            0.670098787795     3.102355420537     0.682681547223     1.007825032230
         H            2.978101787795    -2.554329579463     0.094151547223     1.007825032230
         H            3.725987787795     2.542230420537    -0.059371452777     1.007825032230
         H            4.644285787795    -0.430789579463    -1.097589452777     1.007825032230
         H           -3.803836212205    -1.529293579463     1.734225547223     1.007825032230
         H           -3.925987212205     1.438585420537     0.248883547223     1.007825032230
         H           -2.225203212205     1.885924420537    -0.059598452777     1.007825032230
         H           -3.795962212205     3.123926420537    -1.603173452777     1.007825032230
         H           -2.712637212205     2.046367420537    -2.505377452777     1.007825032230
         H           -4.396385212205     1.567367420537    -2.213226452777     1.007825032230

  Basis Set: AUG-CC-PVTZ
    Blend: AUG-CC-PVTZ
  Basis Set: (AUG-CC-PVTZ AUX)
    Blend: AUG-CC-PVTZ-JKFIT
	 Reference Energy          =   -1327.8070264479956677 [Eh]
	 Singles Energy            =      -0.0000000000000000 [Eh]
	 Same-Spin Energy          =      -1.0183926121448472 [Eh]
	 Opposite-Spin Energy      =      -3.0827920805711910 [Eh]
	 Correlation Energy        =      -4.1011846927160382 [Eh]
	 Total Energy              =   -1331.9082111407117281 [Eh]

	 ================> DF-SCS-MP2 Energies <==================
	-----------------------------------------------------------
	 SCS Same-Spin Scale       =       0.3333333333333333 [-]
	 SCS Opposite-Spin Scale   =       1.2000000000000000 [-]
	 SCS Same-Spin Energy      =      -0.3394642040482824 [Eh]
	 SCS Opposite-Spin Energy  =      -3.6993504966854291 [Eh]
	 SCS Correlation Energy    =      -4.0388147007337114 [Eh]
	 SCS Total Energy          =   -1331.8458411487292778 [Eh]
	-----------------------------------------------------------

  Dipole Moment: [D]
     X:    -1.1559      Y:     2.0413      Z:     0.6100     Total:     2.4239

*** Psi4 exiting successfully. Buy a developer a beer!
