                               Psi4 1.3.2 release

  ==> Input File <==

--------------------------------------------------------------------------
#psi4
#
memory 32 gb

molecule  {
0 1
  P       -2.2900960    -0.9400430     0.3446780
  O       -0.9821530    -0.2015620     0.9382890
  O        1.3422500    -1.6754830     1.2308510
  O        0.0787050     2.3596040     0.4621680
  O        3.0685150    -2.1870720    -0.8085900
  O        2.8473350     2.5031130     0.3715350
  O        4.1956880     0.4353970    -0.9728740
  O       -2.8268630     0.0333510    -0.8075310
  O       -3.2591210    -0.7232820     1.6216710
  O       -2.1189930    -2.3436440    -0.0996680
  C        0.1181620     0.0300090     0.0163190
  C        0.9532920    -1.2442050    -0.0757250
  C        0.9222363     1.1285510     0.5808915
  C        2.2596600    -1.0143070    -0.8180370
  C        2.1770750     1.3964720    -0.2280410
  C        2.9705180     0.1142074    -0.1656899
  C       -3.1242130     1.4315980    -0.4888860
  C       -3.5363170     2.0851650    -1.7841190
  H       -0.2830920     0.2988010    -0.9702380
  H        0.3702690    -2.0293640    -0.5720320
  H        1.1571200     0.9978770     1.6121560
  H        2.0609340    -0.7886600    -1.8727560
  H        1.9169870     1.6362870    -1.2735830
  H        3.2958550    -0.0945320     0.8276460
  H        0.5217750    -1.8880320     1.7115100
  H        0.6655400     3.1093110     0.6831840
  H        2.9735430    -2.5473740     0.0946540
  H        3.7214290     2.5491860    -0.0588690
  H        4.6397270    -0.4238340    -1.0970870
  H       -3.8083950    -1.5223380     1.7347280
  H       -3.9305460     1.4455410     0.2493860
  H       -2.2297620     1.8928800    -0.0590960
  H       -3.8005210     3.1308820    -1.6026710
  H       -2.7171960     2.0533230    -2.5048750
  H       -4.4009440     1.5743230    -2.2127240
units angstrom
no_reorient  #important for SAPT in psi4, default
symmetry c1  #important for SAPT in psi4, default
}

set PROPERTIES_ORIGIN ["COM"]
properties('MP2/aug-cc-pvtz', properties = ['dipole'])
--------------------------------------------------------------------------

    Molecular point group: c1
  Charge       = 0
  Multiplicity = 1
  Basis Set: AUG-CC-PVTZ
    Blend: AUG-CC-PVTZ
  Basis Set: (AUG-CC-PVTZ AUX)
    Blend: AUG-CC-PVTZ-JKFIT

    Orbital Energies [Eh]
    ---------------------

    Doubly Occupied:

       1A    -80.118281     2A    -20.615703     3A    -20.609348
       4A    -20.599636     5A    -20.586760     6A    -20.579721
       7A    -20.576981     8A    -20.565900     9A    -20.564233
      10A    -20.524686    11A    -11.323545    12A    -11.305316
      13A    -11.302323    14A    -11.302035    15A    -11.298940
      16A    -11.298909    17A    -11.292179    18A    -11.229571
      19A     -7.633726    20A     -5.532234    21A     -5.531863
      22A     -5.530654    23A     -1.461871    24A     -1.411679
      25A     -1.392863    26A     -1.388860    27A     -1.387266
      28A     -1.369011    29A     -1.344292    30A     -1.337206
      31A     -1.305026    32A     -1.132301    33A     -1.040479
      34A     -1.021751    35A     -1.009171    36A     -0.882344
      37A     -0.865560    38A     -0.859650    39A     -0.824779
      40A     -0.817836    41A     -0.751889    42A     -0.743682
      43A     -0.730676    44A     -0.728163    45A     -0.711119
      46A     -0.681457    47A     -0.680129    48A     -0.672478
      49A     -0.662552    50A     -0.654936    51A     -0.641943
      52A     -0.628904    53A     -0.627957    54A     -0.617495
      55A     -0.602776    56A     -0.597068    57A     -0.580932
      58A     -0.575939    59A     -0.570964    60A     -0.556404
      61A     -0.554413    62A     -0.547317    63A     -0.541746
      64A     -0.535490    65A     -0.528706    66A     -0.521751
      67A     -0.511967    68A     -0.503039    69A     -0.499401
      70A     -0.486966    71A     -0.480736    72A     -0.477818
      73A     -0.468633    74A     -0.458341    75A     -0.452228
      76A     -0.445566

  @DF-RHF Final Energy: -1327.84517158427684

   => Energetics <=

    Nuclear Repulsion Energy =           1773.5416152083544148
    One-Electron Energy =               -5359.1614354257917512
    Two-Electron Energy =                2257.7746486331602682
    Total Energy =                      -1327.8451715842770682
  Basis Set: (AUG-CC-PVTZ AUX)
    Blend: AUG-CC-PVTZ-RI
    Molecular point group: c1

    Geometry (in Angstrom), charge = 0, multiplicity = 1:

       Center              X                  Y                   Z               Mass
    ------------   -----------------  -----------------  -----------------  -----------------
         P           -2.288776384248    -0.935519332427     0.342150501274    30.973761998420
         O           -0.980833384248    -0.197038332427     0.935761501274    15.994914619570
         O            1.343569615752    -1.670959332427     1.228323501274    15.994914619570
         O            0.080024615752     2.364127667573     0.459640501274    15.994914619570
         O            3.069834615752    -2.182548332427    -0.811117498726    15.994914619570
         O            2.848654615752     2.507636667573     0.369007501274    15.994914619570
         O            4.197007615752     0.439920667573    -0.975401498726    15.994914619570
         O           -2.825543384248     0.037874667573    -0.810058498726    15.994914619570
         O           -3.257801384248    -0.718758332427     1.619143501274    15.994914619570
         O           -2.117673384248    -2.339120332427    -0.102195498726    15.994914619570
         C            0.119481615752     0.034532667573     0.013791501274    12.000000000000
         C            0.954611615752    -1.239681332427    -0.078252498726    12.000000000000
         C            0.923555915752     1.133074667573     0.578364001274    12.000000000000
         C            2.260979615752    -1.009783332427    -0.820564498726    12.000000000000
         C            2.178394615752     1.400995667573    -0.230568498726    12.000000000000
         C            2.971837615752     0.118731067573    -0.168217398726    12.000000000000
         C           -3.122893384248     1.436121667573    -0.491413498726    12.000000000000
         C           -3.534997384248     2.089688667573    -1.786646498726    12.000000000000
         H           -0.281772384248     0.303324667573    -0.972765498726     1.007825032230
         H            0.371588615752    -2.024840332427    -0.574559498726     1.007825032230
         H            1.158439615752     1.002400667573     1.609628501274     1.007825032230
         H            2.062253615752    -0.784136332427    -1.875283498726     1.007825032230
         H            1.918306615752     1.640810667573    -1.276110498726     1.007825032230
         H            3.297174615752    -0.090008332427     0.825118501274     1.007825032230
         H            0.523094615752    -1.883508332427     1.708982501274     1.007825032230
         H            0.666859615752     3.113834667573     0.680656501274     1.007825032230
         H            2.974862615752    -2.542850332427     0.092126501274     1.007825032230
         H            3.722748615752     2.553709667573    -0.061396498726     1.007825032230
         H            4.641046615752    -0.419310332427    -1.099614498726     1.007825032230
         H           -3.807075384248    -1.517814332427     1.732200501274     1.007825032230
         H           -3.929226384248     1.450064667573     0.246858501274     1.007825032230
         H           -2.228442384248     1.897403667573    -0.061623498726     1.007825032230
         H           -3.799201384248     3.135405667573    -1.605198498726     1.007825032230
         H           -2.715876384248     2.057846667573    -2.507402498726     1.007825032230
         H           -4.399624384248     1.578846667573    -2.215251498726     1.007825032230

  Basis Set: AUG-CC-PVTZ
    Blend: AUG-CC-PVTZ
  Basis Set: (AUG-CC-PVTZ AUX)
    Blend: AUG-CC-PVTZ-JKFIT
	 Reference Energy          =   -1327.8451715842768408 [Eh]
	 Singles Energy            =      -0.0000000000000000 [Eh]
	 Same-Spin Energy          =      -1.0158935559707358 [Eh]
	 Opposite-Spin Energy      =      -3.0797957635925712 [Eh]
	 Correlation Energy        =      -4.0956893195633075 [Eh]
	 Total Energy              =   -1331.9408609038400755 [Eh]

	 ================> DF-SCS-MP2 Energies <==================
	-----------------------------------------------------------
	 SCS Same-Spin Scale       =       0.3333333333333333 [-]
	 SCS Opposite-Spin Scale   =       1.2000000000000000 [-]
	 SCS Same-Spin Energy      =      -0.3386311853235786 [Eh]
	 SCS Opposite-Spin Energy  =      -3.6957549163110852 [Eh]
	 SCS Correlation Energy    =      -4.0343861016346638 [Eh]
	 SCS Total Energy          =   -1331.8795576859115499 [Eh]
	-----------------------------------------------------------

  Dipole Moment: [D]
     X:    -1.2119      Y:     1.6003      Z:     0.8500     Total:     2.1799

*** Psi4 exiting successfully. Buy a developer a beer!
