                               Psi4 1.3.2 release

  ==> Input File <==

--------------------------------------------------------------------------
#psi4
#
memory 32 gb

molecule  {
0 1
  P       -2.2900960    -0.9400430     0.3446780
  O       -0.9821530    -0.2015620     0.9382890
  O        1.3422500    -1.6754830     1.2308510
  O        0.0787050     2.3596040     0.4621680
  O        3.0685150    -2.1870720    -0.8085900
  O        2.8473350     2.5031130     0.3715350
  O        4.1956880     0.4353970    -0.9728740
  O       -2.8268630     0.0333510    -0.8075310
  O       -3.2591210    -0.7232820     1.6216710
  O       -2.1189930    -2.3436440    -0.0996680
  C        0.1181620     0.0300090     0.0163190
  C        0.9532920    -1.2442050    -0.0757250
  C        0.8985890     1.2026440     0.5648510
  C        2.2596600    -1.0143070    -0.8180370
  C        2.1699116     1.3984946    -0.2389866
  C        3.0258420     0.1487050    -0.2103220
  C       -3.1242130     1.4315980    -0.4888860
  C       -3.5363170     2.0851650    -1.7841190
  H       -0.2830920     0.2988010    -0.9702380
  H        0.3702690    -2.0293640    -0.5720320
  H        1.1478010     0.9972025     1.6142807
  H        2.0609340    -0.7886600    -1.8727560
  H        1.9169870     1.6362870    -1.2735830
  H        3.2958550    -0.0945320     0.8276460
  H        0.5217750    -1.8880320     1.7115100
  H        0.6655400     3.1093110     0.6831840
  H        2.9735430    -2.5473740     0.0946540
  H        3.7214290     2.5491860    -0.0588690
  H        4.6397270    -0.4238340    -1.0970870
  H       -3.8083950    -1.5223380     1.7347280
  H       -3.9305460     1.4455410     0.2493860
  H       -2.2297620     1.8928800    -0.0590960
  H       -3.8005210     3.1308820    -1.6026710
  H       -2.7171960     2.0533230    -2.5048750
  H       -4.4009440     1.5743230    -2.2127240
units angstrom
no_reorient  #important for SAPT in psi4, default
symmetry c1  #important for SAPT in psi4, default
}

set PROPERTIES_ORIGIN ["COM"]
properties('MP2/aug-cc-pvtz', properties = ['dipole'])
--------------------------------------------------------------------------

    Molecular point group: c1
  Charge       = 0
  Multiplicity = 1
  Basis Set: AUG-CC-PVTZ
    Blend: AUG-CC-PVTZ
  Basis Set: (AUG-CC-PVTZ AUX)
    Blend: AUG-CC-PVTZ-JKFIT

    Orbital Energies [Eh]
    ---------------------

    Doubly Occupied:

       1A    -80.116994     2A    -20.614775     3A    -20.607090
       4A    -20.598987     5A    -20.583183     6A    -20.576053
       7A    -20.574516     8A    -20.574008     9A    -20.573147
      10A    -20.523481    11A    -11.320689    12A    -11.303574
      13A    -11.299422    14A    -11.299216    15A    -11.298702
      16A    -11.296468    17A    -11.291696    18A    -11.229917
      19A     -7.632443    20A     -5.530950    21A     -5.530576
      22A     -5.529375    23A     -1.460341    24A     -1.410612
      25A     -1.394058    26A     -1.392515    27A     -1.386900
      28A     -1.372667    29A     -1.363334    30A     -1.353051
      31A     -1.303877    32A     -1.118967    33A     -1.040502
      34A     -1.011618    35A     -1.003468    36A     -0.880267
      37A     -0.864965    38A     -0.858895    39A     -0.822417
      40A     -0.811339    41A     -0.751653    42A     -0.745068
      43A     -0.731687    44A     -0.728682    45A     -0.707279
      46A     -0.687269    47A     -0.678153    48A     -0.673747
      49A     -0.661691    50A     -0.660525    51A     -0.642621
      52A     -0.634919    53A     -0.627385    54A     -0.615374
      55A     -0.603794    56A     -0.598638    57A     -0.581776
      58A     -0.575588    59A     -0.571115    60A     -0.559188
      61A     -0.556443    62A     -0.548564    63A     -0.541244
      64A     -0.536284    65A     -0.530048    66A     -0.521366
      67A     -0.513207    68A     -0.504253    69A     -0.496954
      70A     -0.484590    71A     -0.479871    72A     -0.476646
      73A     -0.463573    74A     -0.455938    75A     -0.450708
      76A     -0.435860

  @DF-RHF Final Energy: -1327.86123025850861

   => Energetics <=

    Nuclear Repulsion Energy =           1772.3788911344820463
    One-Electron Energy =               -5356.9067266072142957
    Two-Electron Energy =                2256.6666052142240915
    Total Energy =                      -1327.8612302585083853
  Basis Set: (AUG-CC-PVTZ AUX)
    Blend: AUG-CC-PVTZ-RI
    Molecular point group: c1

    Geometry (in Angstrom), charge = 0, multiplicity = 1:

       Center              X                  Y                   Z               Mass
    ------------   -----------------  -----------------  -----------------  -----------------
         P           -2.289764951460    -0.940124879634     0.345126527245    30.973761998420
         O           -0.981821951460    -0.201643879634     0.938737527245    15.994914619570
         O            1.342581048540    -1.675564879634     1.231299527245    15.994914619570
         O            0.079036048540     2.359522120366     0.462616527245    15.994914619570
         O            3.068846048540    -2.187153879634    -0.808141472755    15.994914619570
         O            2.847666048540     2.503031120366     0.371983527245    15.994914619570
         O            4.196019048540     0.435315120366    -0.972425472755    15.994914619570
         O           -2.826531951460     0.033269120366    -0.807082472755    15.994914619570
         O           -3.258789951460    -0.723363879634     1.622119527245    15.994914619570
         O           -2.118661951460    -2.343725879634    -0.099219472755    15.994914619570
         C            0.118493048540     0.029927120366     0.016767527245    12.000000000000
         C            0.953623048540    -1.244286879634    -0.075276472755    12.000000000000
         C            0.898920048540     1.202562120366     0.565299527245    12.000000000000
         C            2.259991048540    -1.014388879634    -0.817588472755    12.000000000000
         C            2.170242648540     1.398412720366    -0.238538072755    12.000000000000
         C            3.026173048540     0.148623120366    -0.209873472755    12.000000000000
         C           -3.123881951460     1.431516120366    -0.488437472755    12.000000000000
         C           -3.535985951460     2.085083120366    -1.783670472755    12.000000000000
         H           -0.282760951460     0.298719120366    -0.969789472755     1.007825032230
         H            0.370600048540    -2.029445879634    -0.571583472755     1.007825032230
         H            1.148132048540     0.997120620366     1.614729227245     1.007825032230
         H            2.061265048540    -0.788741879634    -1.872307472755     1.007825032230
         H            1.917318048540     1.636205120366    -1.273134472755     1.007825032230
         H            3.296186048540    -0.094613879634     0.828094527245     1.007825032230
         H            0.522106048540    -1.888113879634     1.711958527245     1.007825032230
         H            0.665871048540     3.109229120366     0.683632527245     1.007825032230
         H            2.973874048540    -2.547455879634     0.095102527245     1.007825032230
         H            3.721760048540     2.549104120366    -0.058420472755     1.007825032230
         H            4.640058048540    -0.423915879634    -1.096638472755     1.007825032230
         H           -3.808063951460    -1.522419879634     1.735176527245     1.007825032230
         H           -3.930214951460     1.445459120366     0.249834527245     1.007825032230
         H           -2.229430951460     1.892798120366    -0.058647472755     1.007825032230
         H           -3.800189951460     3.130800120366    -1.602222472755     1.007825032230
         H           -2.716864951460     2.053241120366    -2.504426472755     1.007825032230
         H           -4.400612951460     1.574241120366    -2.212275472755     1.007825032230

  Basis Set: AUG-CC-PVTZ
    Blend: AUG-CC-PVTZ
  Basis Set: (AUG-CC-PVTZ AUX)
    Blend: AUG-CC-PVTZ-JKFIT
	 Reference Energy          =   -1327.8612302585086127 [Eh]
	 Singles Energy            =      -0.0000000000000000 [Eh]
	 Same-Spin Energy          =      -1.0145593566709039 [Eh]
	 Opposite-Spin Energy      =      -3.0761459642140969 [Eh]
	 Correlation Energy        =      -4.0907053208850011 [Eh]
	 Total Energy              =   -1331.9519355793936484 [Eh]

	 ================> DF-SCS-MP2 Energies <==================
	-----------------------------------------------------------
	 SCS Same-Spin Scale       =       0.3333333333333333 [-]
	 SCS Opposite-Spin Scale   =       1.2000000000000000 [-]
	 SCS Same-Spin Energy      =      -0.3381864522236346 [Eh]
	 SCS Opposite-Spin Energy  =      -3.6913751570569162 [Eh]
	 SCS Correlation Energy    =      -4.0295616092805506 [Eh]
	 SCS Total Energy          =   -1331.8907918677891757 [Eh]
	-----------------------------------------------------------

  Dipole Moment: [D]
     X:    -1.1297      Y:     1.8534      Z:     0.7047     Total:     2.2821

*** Psi4 exiting successfully. Buy a developer a beer!
