                               Psi4 1.3.2 release

  ==> Input File <==

--------------------------------------------------------------------------
#psi4
#
memory 32 gb

molecule  {
0 1
  P       -2.2900960    -0.9400430     0.3446780
  O       -0.9821530    -0.2015620     0.9382890
  O        1.3422500    -1.6754830     1.2308510
  O        0.0787050     2.3596040     0.4621680
  O        3.0685150    -2.1870720    -0.8085900
  O        2.8473350     2.5031130     0.3715350
  O        4.1956880     0.4353970    -0.9728740
  O       -2.8268630     0.0333510    -0.8075310
  O       -3.2591210    -0.7232820     1.6216710
  O       -2.1189930    -2.3436440    -0.0996680
  C        0.1181620     0.0300090     0.0163190
  C        0.9532920    -1.2442050    -0.0757250
  C        0.8985890     1.2026440     0.5648510
  C        2.2596600    -1.0143070    -0.8180370
  C        2.1770750     1.3964720    -0.2280410
  C        3.0258420     0.1487050    -0.2103220
  C       -3.1648180     1.6225374    -0.4453730
  C       -3.5363170     2.0851650    -1.7841190
  H       -0.2830920     0.2988010    -0.9702380
  H        0.3702690    -2.0293640    -0.5720320
  H        1.1571200     0.9978770     1.6121560
  H        2.0609340    -0.7886600    -1.8727560
  H        1.9169870     1.6362870    -1.2735830
  H        3.2958550    -0.0945320     0.8276460
  H        0.5217750    -1.8880320     1.7115100
  H        0.6655400     3.1093110     0.6831840
  H        2.9735430    -2.5473740     0.0946540
  H        3.7214290     2.5491860    -0.0588690
  H        4.6397270    -0.4238340    -1.0970870
  H       -3.8083950    -1.5223380     1.7347280
  H       -3.9305460     1.4455410     0.2493860
  H       -2.2297620     1.8928800    -0.0590960
  H       -3.8005210     3.1308820    -1.6026710
  H       -2.7171960     2.0533230    -2.5048750
  H       -4.4009440     1.5743230    -2.2127240
units angstrom
no_reorient  #important for SAPT in psi4, default
symmetry c1  #important for SAPT in psi4, default
}

set PROPERTIES_ORIGIN ["COM"]
properties('MP2/aug-cc-pvtz', properties = ['dipole'])
--------------------------------------------------------------------------

    Molecular point group: c1
  Charge       = 0
  Multiplicity = 1
  Basis Set: AUG-CC-PVTZ
    Blend: AUG-CC-PVTZ
  Basis Set: (AUG-CC-PVTZ AUX)
    Blend: AUG-CC-PVTZ-JKFIT

    Orbital Energies [Eh]
    ---------------------

    Doubly Occupied:

       1A    -80.101572     2A    -20.606414     3A    -20.599098
       4A    -20.579704     5A    -20.576016     6A    -20.574420
       7A    -20.572744     8A    -20.572392     9A    -20.570540
      10A    -20.511461    11A    -11.316320    12A    -11.315479
      13A    -11.299853    14A    -11.297072    15A    -11.296905
      16A    -11.295478    17A    -11.289837    18A    -11.240878
      19A     -7.617078    20A     -5.515727    21A     -5.515086
      22A     -5.513987    23A     -1.445688    24A     -1.406567
      25A     -1.392357    26A     -1.389079    27A     -1.371161
      28A     -1.362713    29A     -1.352764    30A     -1.338839
      31A     -1.289216    32A     -1.116441    33A     -1.065272
      34A     -1.009086    35A     -1.001277    36A     -0.877777
      37A     -0.871131    38A     -0.856789    39A     -0.814365
      40A     -0.806207    41A     -0.749779    42A     -0.740460
      43A     -0.725459    44A     -0.710021    45A     -0.698757
      46A     -0.688464    47A     -0.680896    48A     -0.670576
      49A     -0.661075    50A     -0.657991    51A     -0.640101
      52A     -0.631733    53A     -0.620700    54A     -0.606739
      55A     -0.601927    56A     -0.597219    57A     -0.583309
      58A     -0.573011    59A     -0.567525    60A     -0.560237
      61A     -0.556279    62A     -0.545244    63A     -0.535368
      64A     -0.533113    65A     -0.526780    66A     -0.518831
      67A     -0.513729    68A     -0.502331    69A     -0.499495
      70A     -0.485886    71A     -0.475821    72A     -0.462028
      73A     -0.457664    74A     -0.454861    75A     -0.445886
      76A     -0.433501

  @DF-RHF Final Energy: -1327.83568020631969

   => Energetics <=

    Nuclear Repulsion Energy =           1768.3713893044650831
    One-Electron Energy =               -5349.4989691460841641
    Two-Electron Energy =                2253.2918996352991599
    Total Energy =                      -1327.8356802063199211
  Basis Set: (AUG-CC-PVTZ AUX)
    Blend: AUG-CC-PVTZ-RI
    Molecular point group: c1

    Geometry (in Angstrom), charge = 0, multiplicity = 1:

       Center              X                  Y                   Z               Mass
    ------------   -----------------  -----------------  -----------------  -----------------
         P           -2.288404450551    -0.947997105404     0.342865333154    30.973761998420
         O           -0.980461450551    -0.209516105404     0.936476333154    15.994914619570
         O            1.343941549449    -1.683437105404     1.229038333154    15.994914619570
         O            0.080396549449     2.351649894596     0.460355333154    15.994914619570
         O            3.070206549449    -2.195026105404    -0.810402666846    15.994914619570
         O            2.849026549449     2.495158894596     0.369722333154    15.994914619570
         O            4.197379549449     0.427442894596    -0.974686666846    15.994914619570
         O           -2.825171450551     0.025396894596    -0.809343666846    15.994914619570
         O           -3.257429450551    -0.731236105404     1.619858333154    15.994914619570
         O           -2.117301450551    -2.351598105404    -0.101480666846    15.994914619570
         C            0.119853549449     0.022054894596     0.014506333154    12.000000000000
         C            0.954983549449    -1.252159105404    -0.077537666846    12.000000000000
         C            0.900280549449     1.194689894596     0.563038333154    12.000000000000
         C            2.261351549449    -1.022261105404    -0.819849666846    12.000000000000
         C            2.178766549449     1.388517894596    -0.229853666846    12.000000000000
         C            3.027533549449     0.140750894596    -0.212134666846    12.000000000000
         C           -3.163126450551     1.614583294596    -0.447185666846    12.000000000000
         C           -3.534625450551     2.077210894596    -1.785931666846    12.000000000000
         H           -0.281400450551     0.290846894596    -0.972050666846     1.007825032230
         H            0.371960549449    -2.037318105404    -0.573844666846     1.007825032230
         H            1.158811549449     0.989922894596     1.610343333154     1.007825032230
         H            2.062625549449    -0.796614105404    -1.874568666846     1.007825032230
         H            1.918678549449     1.628332894596    -1.275395666846     1.007825032230
         H            3.297546549449    -0.102486105404     0.825833333154     1.007825032230
         H            0.523466549449    -1.895986105404     1.709697333154     1.007825032230
         H            0.667231549449     3.101356894596     0.681371333154     1.007825032230
         H            2.975234549449    -2.555328105404     0.092841333154     1.007825032230
         H            3.723120549449     2.541231894596    -0.060681666846     1.007825032230
         H            4.641418549449    -0.431788105404    -1.098899666846     1.007825032230
         H           -3.806703450551    -1.530292105404     1.732915333154     1.007825032230
         H           -3.928854450551     1.437586894596     0.247573333154     1.007825032230
         H           -2.228070450551     1.884925894596    -0.060908666846     1.007825032230
         H           -3.798829450551     3.122927894596    -1.604483666846     1.007825032230
         H           -2.715504450551     2.045368894596    -2.506687666846     1.007825032230
         H           -4.399252450551     1.566368894596    -2.214536666846     1.007825032230

  Basis Set: AUG-CC-PVTZ
    Blend: AUG-CC-PVTZ
  Basis Set: (AUG-CC-PVTZ AUX)
    Blend: AUG-CC-PVTZ-JKFIT
	 Reference Energy          =   -1327.8356802063196938 [Eh]
	 Singles Energy            =      -0.0000000000000000 [Eh]
	 Same-Spin Energy          =      -1.0153654575505873 [Eh]
	 Opposite-Spin Energy      =      -3.0784524948091914 [Eh]
	 Correlation Energy        =      -4.0938179523597782 [Eh]
	 Total Energy              =   -1331.9294981586795075 [Eh]

	 ================> DF-SCS-MP2 Energies <==================
	-----------------------------------------------------------
	 SCS Same-Spin Scale       =       0.3333333333333333 [-]
	 SCS Opposite-Spin Scale   =       1.2000000000000000 [-]
	 SCS Same-Spin Energy      =      -0.3384551525168624 [Eh]
	 SCS Opposite-Spin Energy  =      -3.6941429937710293 [Eh]
	 SCS Correlation Energy    =      -4.0325981462878921 [Eh]
	 SCS Total Energy          =   -1331.8682783526076037 [Eh]
	-----------------------------------------------------------

  Dipole Moment: [D]
     X:    -1.5031      Y:     2.7211      Z:     0.5314     Total:     3.1537

*** Psi4 exiting successfully. Buy a developer a beer!
