                               Psi4 1.3.2 release

  ==> Input File <==

--------------------------------------------------------------------------
#psi4
#
memory 32 gb

molecule  {
0 1
  P       -2.2900960    -0.9400430     0.3446780
  O       -0.9821530    -0.2015620     0.9382890
  O        1.3422500    -1.6754830     1.2308510
  O        0.0787050     2.3596040     0.4621680
  O        3.0685150    -2.1870720    -0.8085900
  O        2.8473350     2.5031130     0.3715350
  O        4.1956880     0.4353970    -0.9728740
  O       -2.8268630     0.0333510    -0.8075310
  O       -3.2591210    -0.7232820     1.6216710
  O       -2.1189930    -2.3436440    -0.0996680
  C        0.1181620     0.0300090     0.0163190
  C        0.9532920    -1.2442050    -0.0757250
  C        0.8985890     1.2026440     0.5648510
  C        2.2596600    -1.0143070    -0.8180370
  C        2.1770750     1.3964720    -0.2280410
  C        3.0272109     0.1502870    -0.1840653
  C       -3.1242130     1.4315980    -0.4888860
  C       -3.5363170     2.0851650    -1.7841190
  H       -0.2830920     0.2988010    -0.9702380
  H        0.3702690    -2.0293640    -0.5720320
  H        1.1571200     0.9978770     1.6121560
  H        2.0609340    -0.7886600    -1.8727560
  H        1.9071287     1.6516511    -1.2674291
  H        3.2958550    -0.0945320     0.8276460
  H        0.5217750    -1.8880320     1.7115100
  H        0.6655400     3.1093110     0.6831840
  H        2.9735430    -2.5473740     0.0946540
  H        3.7214290     2.5491860    -0.0588690
  H        4.6397270    -0.4238340    -1.0970870
  H       -3.8083950    -1.5223380     1.7347280
  H       -3.9305460     1.4455410     0.2493860
  H       -2.2297620     1.8928800    -0.0590960
  H       -3.8005210     3.1308820    -1.6026710
  H       -2.7171960     2.0533230    -2.5048750
  H       -4.4009440     1.5743230    -2.2127240
units angstrom
no_reorient  #important for SAPT in psi4, default
symmetry c1  #important for SAPT in psi4, default
}

set PROPERTIES_ORIGIN ["COM"]
properties('MP2/aug-cc-pvtz', properties = ['dipole'])
--------------------------------------------------------------------------

    Molecular point group: c1
  Charge       = 0
  Multiplicity = 1
  Basis Set: AUG-CC-PVTZ
    Blend: AUG-CC-PVTZ
  Basis Set: (AUG-CC-PVTZ AUX)
    Blend: AUG-CC-PVTZ-JKFIT

    Orbital Energies [Eh]
    ---------------------

    Doubly Occupied:

       1A    -80.116979     2A    -20.614774     3A    -20.607084
       4A    -20.598984     5A    -20.583402     6A    -20.576083
       7A    -20.574497     8A    -20.573562     9A    -20.572616
      10A    -20.523449    11A    -11.320804    12A    -11.303158
      13A    -11.299962    14A    -11.299436    15A    -11.298469
      16A    -11.296822    17A    -11.291094    18A    -11.229915
      19A     -7.632429    20A     -5.530935    21A     -5.530562
      22A     -5.529360    23A     -1.460334    24A     -1.410416
      25A     -1.393680    26A     -1.392754    27A     -1.386809
      28A     -1.371180    29A     -1.363878    30A     -1.351904
      31A     -1.303848    32A     -1.118680    33A     -1.040501
      34A     -1.011626    35A     -1.003095    36A     -0.880584
      37A     -0.865110    38A     -0.857999    39A     -0.823142
      40A     -0.811682    41A     -0.751569    42A     -0.744659
      43A     -0.731057    44A     -0.728767    45A     -0.708028
      46A     -0.686958    47A     -0.677891    48A     -0.673166
      49A     -0.661513    50A     -0.660464    51A     -0.642973
      52A     -0.634521    53A     -0.627291    54A     -0.615432
      55A     -0.603489    56A     -0.599473    57A     -0.581442
      58A     -0.575617    59A     -0.571085    60A     -0.559419
      61A     -0.555688    62A     -0.548488    63A     -0.541176
      64A     -0.535733    65A     -0.529918    66A     -0.521613
      67A     -0.512727    68A     -0.505235    69A     -0.496995
      70A     -0.485181    71A     -0.479864    72A     -0.476728
      73A     -0.462553    74A     -0.458517    75A     -0.449880
      76A     -0.434969

  @DF-RHF Final Energy: -1327.86050310324686

   => Energetics <=

    Nuclear Repulsion Energy =           1772.2857633707471905
    One-Electron Energy =               -5356.7291801704095633
    Two-Electron Energy =                2256.5829136964152895
    Total Energy =                      -1327.8605031032470833
  Basis Set: (AUG-CC-PVTZ AUX)
    Blend: AUG-CC-PVTZ-RI
    Molecular point group: c1

    Geometry (in Angstrom), charge = 0, multiplicity = 1:

       Center              X                  Y                   Z               Mass
    ------------   -----------------  -----------------  -----------------  -----------------
         P           -2.290118501831    -0.940162638657     0.343562662998    30.973761998420
         O           -0.982175501831    -0.201681638657     0.937173662998    15.994914619570
         O            1.342227498169    -1.675602638657     1.229735662998    15.994914619570
         O            0.078682498169     2.359484361343     0.461052662998    15.994914619570
         O            3.068492498169    -2.187191638657    -0.809705337002    15.994914619570
         O            2.847312498169     2.502993361343     0.370419662998    15.994914619570
         O            4.195665498169     0.435277361343    -0.973989337002    15.994914619570
         O           -2.826885501831     0.033231361343    -0.808646337002    15.994914619570
         O           -3.259143501831    -0.723401638657     1.620555662998    15.994914619570
         O           -2.119015501831    -2.343763638657    -0.100783337002    15.994914619570
         C            0.118139498169     0.029889361343     0.015203662998    12.000000000000
         C            0.953269498169    -1.244324638657    -0.076840337002    12.000000000000
         C            0.898566498169     1.202524361343     0.563735662998    12.000000000000
         C            2.259637498169    -1.014426638657    -0.819152337002    12.000000000000
         C            2.177052498169     1.396352361343    -0.229156337002    12.000000000000
         C            3.027188398169     0.150167361343    -0.185180637002    12.000000000000
         C           -3.124235501831     1.431478361343    -0.490001337002    12.000000000000
         C           -3.536339501831     2.085045361343    -1.785234337002    12.000000000000
         H           -0.283114501831     0.298681361343    -0.971353337002     1.007825032230
         H            0.370246498169    -2.029483638657    -0.573147337002     1.007825032230
         H            1.157097498169     0.997757361343     1.611040662998     1.007825032230
         H            2.060911498169    -0.788779638657    -1.873871337002     1.007825032230
         H            1.907106198169     1.651531461343    -1.268544437002     1.007825032230
         H            3.295832498169    -0.094651638657     0.826530662998     1.007825032230
         H            0.521752498169    -1.888151638657     1.710394662998     1.007825032230
         H            0.665517498169     3.109191361343     0.682068662998     1.007825032230
         H            2.973520498169    -2.547493638657     0.093538662998     1.007825032230
         H            3.721406498169     2.549066361343    -0.059984337002     1.007825032230
         H            4.639704498169    -0.423953638657    -1.098202337002     1.007825032230
         H           -3.808417501831    -1.522457638657     1.733612662998     1.007825032230
         H           -3.930568501831     1.445421361343     0.248270662998     1.007825032230
         H           -2.229784501831     1.892760361343    -0.060211337002     1.007825032230
         H           -3.800543501831     3.130762361343    -1.603786337002     1.007825032230
         H           -2.717218501831     2.053203361343    -2.505990337002     1.007825032230
         H           -4.400966501831     1.574203361343    -2.213839337002     1.007825032230

  Basis Set: AUG-CC-PVTZ
    Blend: AUG-CC-PVTZ
  Basis Set: (AUG-CC-PVTZ AUX)
    Blend: AUG-CC-PVTZ-JKFIT
	 Reference Energy          =   -1327.8605031032468560 [Eh]
	 Singles Energy            =      -0.0000000000000000 [Eh]
	 Same-Spin Energy          =      -1.0145352354039798 [Eh]
	 Opposite-Spin Energy      =      -3.0762390097316112 [Eh]
	 Correlation Energy        =      -4.0907742451355915 [Eh]
	 Total Energy              =   -1331.9512773483825185 [Eh]

	 ================> DF-SCS-MP2 Energies <==================
	-----------------------------------------------------------
	 SCS Same-Spin Scale       =       0.3333333333333333 [-]
	 SCS Opposite-Spin Scale   =       1.2000000000000000 [-]
	 SCS Same-Spin Energy      =      -0.3381784118013266 [Eh]
	 SCS Opposite-Spin Energy  =      -3.6914868116779331 [Eh]
	 SCS Correlation Energy    =      -4.0296652234792596 [Eh]
	 SCS Total Energy          =   -1331.8901683267260978 [Eh]
	-----------------------------------------------------------

  Dipole Moment: [D]
     X:    -1.1405      Y:     1.8544      Z:     0.7548     Total:     2.3042

*** Psi4 exiting successfully. Buy a developer a beer!
