                               Psi4 1.3.2 release

  ==> Input File <==

--------------------------------------------------------------------------
#psi4
#
memory 32 gb

molecule  {
0 1
  P       -2.2900960    -0.9400430     0.3446780
  O       -0.9821530    -0.2015620     0.9382890
  O        1.3422500    -1.6754830     1.2308510
  O        0.0702219     2.3541685     0.4694083
  O        3.0685150    -2.1870720    -0.8085900
  O        2.8473350     2.5031130     0.3715350
  O        4.1956880     0.4353970    -0.9728740
  O       -2.8268630     0.0333510    -0.8075310
  O       -3.2591210    -0.7232820     1.6216710
  O       -2.1189930    -2.3436440    -0.0996680
  C        0.1181620     0.0300090     0.0163190
  C        0.9532920    -1.2442050    -0.0757250
  C        0.8985890     1.2026440     0.5648510
  C        2.2596600    -1.0143070    -0.8180370
  C        2.1810651     1.3843711    -0.2244549
  C        3.0258420     0.1487050    -0.2103220
  C       -3.1242130     1.4315980    -0.4888860
  C       -3.5363170     2.0851650    -1.7841190
  H       -0.2830920     0.2988010    -0.9702380
  H        0.3702690    -2.0293640    -0.5720320
  H        1.1571200     0.9978770     1.6121560
  H        2.0609340    -0.7886600    -1.8727560
  H        1.9169870     1.6362870    -1.2735830
  H        3.2958550    -0.0945320     0.8276460
  H        0.5217750    -1.8880320     1.7115100
  H        0.6655400     3.1093110     0.6831840
  H        2.9735430    -2.5473740     0.0946540
  H        3.7214290     2.5491860    -0.0588690
  H        4.6397270    -0.4238340    -1.0970870
  H       -3.8083950    -1.5223380     1.7347280
  H       -3.9305460     1.4455410     0.2493860
  H       -2.2297620     1.8928800    -0.0590960
  H       -3.8005210     3.1308820    -1.6026710
  H       -2.7171960     2.0533230    -2.5048750
  H       -4.4009440     1.5743230    -2.2127240
units angstrom
no_reorient  #important for SAPT in psi4, default
symmetry c1  #important for SAPT in psi4, default
}

set PROPERTIES_ORIGIN ["COM"]
properties('MP2/aug-cc-pvtz', properties = ['dipole'])
--------------------------------------------------------------------------

    Molecular point group: c1
  Charge       = 0
  Multiplicity = 1
  Basis Set: AUG-CC-PVTZ
    Blend: AUG-CC-PVTZ
  Basis Set: (AUG-CC-PVTZ AUX)
    Blend: AUG-CC-PVTZ-JKFIT

    Orbital Energies [Eh]
    ---------------------

    Doubly Occupied:

       1A    -80.116853     2A    -20.614655     3A    -20.606875
       4A    -20.598858     5A    -20.583214     6A    -20.576559
       7A    -20.574889     8A    -20.574810     9A    -20.574627
      10A    -20.523378    11A    -11.320567    12A    -11.303613
      13A    -11.299779    14A    -11.299271    15A    -11.298829
      16A    -11.297374    17A    -11.291688    18A    -11.229822
      19A     -7.632304    20A     -5.530810    21A     -5.530437
      22A     -5.529236    23A     -1.460192    24A     -1.410777
      25A     -1.394462    26A     -1.392356    27A     -1.386781
      28A     -1.372548    29A     -1.363468    30A     -1.353401
      31A     -1.303770    32A     -1.120184    33A     -1.040419
      34A     -1.013536    35A     -1.003498    36A     -0.880294
      37A     -0.864845    38A     -0.859566    39A     -0.822055
      40A     -0.810576    41A     -0.751163    42A     -0.745438
      43A     -0.731338    44A     -0.728311    45A     -0.707591
      46A     -0.686274    47A     -0.678323    48A     -0.673696
      49A     -0.663081    50A     -0.660941    51A     -0.642371
      52A     -0.635138    53A     -0.627286    54A     -0.615369
      55A     -0.602613    56A     -0.598626    57A     -0.581632
      58A     -0.575505    59A     -0.571094    60A     -0.558951
      61A     -0.556709    62A     -0.548369    63A     -0.541131
      64A     -0.536914    65A     -0.529865    66A     -0.521848
      67A     -0.512967    68A     -0.504425    69A     -0.497161
      70A     -0.484972    71A     -0.479750    72A     -0.476558
      73A     -0.462331    74A     -0.458004    75A     -0.449773
      76A     -0.436715

  @DF-RHF Final Energy: -1327.86022408728968

   => Energetics <=

    Nuclear Repulsion Energy =           1772.6327777399690149
    One-Electron Energy =               -5357.3991829825336026
    Two-Electron Energy =                2256.9061811552746803
    Total Energy =                      -1327.8602240872896800
  Basis Set: (AUG-CC-PVTZ AUX)
    Blend: AUG-CC-PVTZ-RI
    Molecular point group: c1

    Geometry (in Angstrom), charge = 0, multiplicity = 1:

       Center              X                  Y                   Z               Mass
    ------------   -----------------  -----------------  -----------------  -----------------
         P           -2.289791152372    -0.939237072664     0.344126575723    30.973761998420
         O           -0.981848152372    -0.200756072664     0.937737575723    15.994914619570
         O            1.342554847628    -1.674677072664     1.230299575723    15.994914619570
         O            0.070526747628     2.354974427336     0.468856875723    15.994914619570
         O            3.068819847628    -2.186266072664    -0.809141424277    15.994914619570
         O            2.847639847628     2.503918927336     0.370983575723    15.994914619570
         O            4.195992847628     0.436202927336    -0.973425424277    15.994914619570
         O           -2.826558152372     0.034156927336    -0.808082424277    15.994914619570
         O           -3.258816152372    -0.722476072664     1.621119575723    15.994914619570
         O           -2.118688152372    -2.342838072664    -0.100219424277    15.994914619570
         C            0.118466847628     0.030814927336     0.015767575723    12.000000000000
         C            0.953596847628    -1.243399072664    -0.076276424277    12.000000000000
         C            0.898893847628     1.203449927336     0.564299575723    12.000000000000
         C            2.259964847628    -1.013501072664    -0.818588424277    12.000000000000
         C            2.181369947628     1.385177027336    -0.225006324277    12.000000000000
         C            3.026146847628     0.149510927336    -0.210873424277    12.000000000000
         C           -3.123908152372     1.432403927336    -0.489437424277    12.000000000000
         C           -3.536012152372     2.085970927336    -1.784670424277    12.000000000000
         H           -0.282787152372     0.299606927336    -0.970789424277     1.007825032230
         H            0.370573847628    -2.028558072664    -0.572583424277     1.007825032230
         H            1.157424847628     0.998682927336     1.611604575723     1.007825032230
         H            2.061238847628    -0.787854072664    -1.873307424277     1.007825032230
         H            1.917291847628     1.637092927336    -1.274134424277     1.007825032230
         H            3.296159847628    -0.093726072664     0.827094575723     1.007825032230
         H            0.522079847628    -1.887226072664     1.710958575723     1.007825032230
         H            0.665844847628     3.110116927336     0.682632575723     1.007825032230
         H            2.973847847628    -2.546568072664     0.094102575723     1.007825032230
         H            3.721733847628     2.549991927336    -0.059420424277     1.007825032230
         H            4.640031847628    -0.423028072664    -1.097638424277     1.007825032230
         H           -3.808090152372    -1.521532072664     1.734176575723     1.007825032230
         H           -3.930241152372     1.446346927336     0.248834575723     1.007825032230
         H           -2.229457152372     1.893685927336    -0.059647424277     1.007825032230
         H           -3.800216152372     3.131687927336    -1.603222424277     1.007825032230
         H           -2.716891152372     2.054128927336    -2.505426424277     1.007825032230
         H           -4.400639152372     1.575128927336    -2.213275424277     1.007825032230

  Basis Set: AUG-CC-PVTZ
    Blend: AUG-CC-PVTZ
  Basis Set: (AUG-CC-PVTZ AUX)
    Blend: AUG-CC-PVTZ-JKFIT
	 Reference Energy          =   -1327.8602240872896800 [Eh]
	 Singles Energy            =      -0.0000000000000000 [Eh]
	 Same-Spin Energy          =      -1.0148725665713110 [Eh]
	 Opposite-Spin Energy      =      -3.0766211002865815 [Eh]
	 Correlation Energy        =      -4.0914936668578923 [Eh]
	 Total Energy              =   -1331.9517177541474666 [Eh]

	 ================> DF-SCS-MP2 Energies <==================
	-----------------------------------------------------------
	 SCS Same-Spin Scale       =       0.3333333333333333 [-]
	 SCS Opposite-Spin Scale   =       1.2000000000000000 [-]
	 SCS Same-Spin Energy      =      -0.3382908555237703 [Eh]
	 SCS Opposite-Spin Energy  =      -3.6919453203438977 [Eh]
	 SCS Correlation Energy    =      -4.0302361758676684 [Eh]
	 SCS Total Energy          =   -1331.8904602631573653 [Eh]
	-----------------------------------------------------------

  Dipole Moment: [D]
     X:    -1.0980      Y:     1.8500      Z:     0.7083     Total:     2.2649

*** Psi4 exiting successfully. Buy a developer a beer!
