                               Psi4 1.3.2 release

  ==> Input File <==

--------------------------------------------------------------------------
#psi4
#
memory 32 gb

molecule  {
0 1
  P       -2.2900960    -0.9400430     0.3446780
  O       -0.9821530    -0.2015620     0.9382890
  O        1.3422500    -1.6754830     1.2308510
  O        0.0787050     2.3596040     0.4621680
  O        3.0685150    -2.1870720    -0.8085900
  O        2.8473350     2.5031130     0.3715350
  O        4.1914167     0.4468849    -0.9750061
  O       -2.8268630     0.0333510    -0.8075310
  O       -3.2591210    -0.7232820     1.6216710
  O       -2.1189930    -2.3436440    -0.0996680
  C        0.1181620     0.0300090     0.0163190
  C        0.9532920    -1.2442050    -0.0757250
  C        0.8985890     1.2026440     0.5648510
  C        2.2596600    -1.0143070    -0.8180370
  C        2.1861608     1.4024778    -0.2354457
  C        3.0258420     0.1487050    -0.2103220
  C       -3.1242130     1.4315980    -0.4888860
  C       -3.5363170     2.0851650    -1.7841190
  H       -0.2830920     0.2988010    -0.9702380
  H        0.3702690    -2.0293640    -0.5720320
  H        1.1571200     0.9978770     1.6121560
  H        2.0609340    -0.7886600    -1.8727560
  H        1.9169870     1.6362870    -1.2735830
  H        3.2958550    -0.0945320     0.8276460
  H        0.5217750    -1.8880320     1.7115100
  H        0.6655400     3.1093110     0.6831840
  H        2.9735430    -2.5473740     0.0946540
  H        3.7214290     2.5491860    -0.0588690
  H        4.6397270    -0.4238340    -1.0970870
  H       -3.8083950    -1.5223380     1.7347280
  H       -3.9305460     1.4455410     0.2493860
  H       -2.2297620     1.8928800    -0.0590960
  H       -3.8005210     3.1308820    -1.6026710
  H       -2.7171960     2.0533230    -2.5048750
  H       -4.4009440     1.5743230    -2.2127240
units angstrom
no_reorient  #important for SAPT in psi4, default
symmetry c1  #important for SAPT in psi4, default
}

set PROPERTIES_ORIGIN ["COM"]
properties('MP2/aug-cc-pvtz', properties = ['dipole'])
--------------------------------------------------------------------------

    Molecular point group: c1
  Charge       = 0
  Multiplicity = 1
  Basis Set: AUG-CC-PVTZ
    Blend: AUG-CC-PVTZ
  Basis Set: (AUG-CC-PVTZ AUX)
    Blend: AUG-CC-PVTZ-JKFIT

    Orbital Energies [Eh]
    ---------------------

    Doubly Occupied:

       1A    -80.116799     2A    -20.614613     3A    -20.606807
       4A    -20.598804     5A    -20.583058     6A    -20.577450
       7A    -20.575236     8A    -20.574884     9A    -20.572964
      10A    -20.523319    11A    -11.320372    12A    -11.303464
      13A    -11.299487    14A    -11.299257    15A    -11.298350
      16A    -11.295971    17A    -11.291002    18A    -11.229774
      19A     -7.632249    20A     -5.530755    21A     -5.530382
      22A     -5.529181    23A     -1.460116    24A     -1.410770
      25A     -1.395204    26A     -1.392898    27A     -1.386698
      28A     -1.371934    29A     -1.364418    30A     -1.353666
      31A     -1.303714    32A     -1.117573    33A     -1.040341
      34A     -1.011374    35A     -1.002062    36A     -0.879416
      37A     -0.864620    38A     -0.858979    39A     -0.822137
      40A     -0.810666    41A     -0.751742    42A     -0.745047
      43A     -0.730980    44A     -0.728500    45A     -0.707891
      46A     -0.686942    47A     -0.678032    48A     -0.673258
      49A     -0.661325    50A     -0.660551    51A     -0.643259
      52A     -0.633806    53A     -0.627332    54A     -0.615529
      55A     -0.603630    56A     -0.598529    57A     -0.581724
      58A     -0.575449    59A     -0.571054    60A     -0.560132
      61A     -0.556812    62A     -0.548236    63A     -0.541132
      64A     -0.537202    65A     -0.529753    66A     -0.521139
      67A     -0.513150    68A     -0.504344    69A     -0.496641
      70A     -0.484429    71A     -0.479673    72A     -0.476507
      73A     -0.461446    74A     -0.455615    75A     -0.449429
      76A     -0.436425

  @DF-RHF Final Energy: -1327.86031756415059

   => Energetics <=

    Nuclear Repulsion Energy =           1772.2541276488930180
    One-Electron Energy =               -5356.6740757511033735
    Two-Electron Energy =                2256.5596305380599915
    Total Energy =                      -1327.8603175641505914
  Basis Set: (AUG-CC-PVTZ AUX)
    Blend: AUG-CC-PVTZ-RI
    Molecular point group: c1

    Geometry (in Angstrom), charge = 0, multiplicity = 1:

       Center              X                  Y                   Z               Mass
    ------------   -----------------  -----------------  -----------------  -----------------
         P           -2.290237293199    -0.940931049654     0.345104841851    30.973761998420
         O           -0.982294293199    -0.202450049654     0.938715841851    15.994914619570
         O            1.342108706801    -1.676371049654     1.231277841851    15.994914619570
         O            0.078563706801     2.358715950346     0.462594841851    15.994914619570
         O            3.068373706801    -2.187960049654    -0.808163158149    15.994914619570
         O            2.847193706801     2.502224950346     0.371961841851    15.994914619570
         O            4.191275406801     0.445996850346    -0.974579258149    15.994914619570
         O           -2.827004293199     0.032462950346    -0.807104158149    15.994914619570
         O           -3.259262293199    -0.724170049654     1.622097841851    15.994914619570
         O           -2.119134293199    -2.344532049654    -0.099241158149    15.994914619570
         C            0.118020706801     0.029120950346     0.016745841851    12.000000000000
         C            0.953150706801    -1.245093049654    -0.075298158149    12.000000000000
         C            0.898447706801     1.201755950346     0.565277841851    12.000000000000
         C            2.259518706801    -1.015195049654    -0.817610158149    12.000000000000
         C            2.186019506801     1.401589750346    -0.235018858149    12.000000000000
         C            3.025700706801     0.147816950346    -0.209895158149    12.000000000000
         C           -3.124354293199     1.430709950346    -0.488459158149    12.000000000000
         C           -3.536458293199     2.084276950346    -1.783692158149    12.000000000000
         H           -0.283233293199     0.297912950346    -0.969811158149     1.007825032230
         H            0.370127706801    -2.030252049654    -0.571605158149     1.007825032230
         H            1.156978706801     0.996988950346     1.612582841851     1.007825032230
         H            2.060792706801    -0.789548049654    -1.872329158149     1.007825032230
         H            1.916845706801     1.635398950346    -1.273156158149     1.007825032230
         H            3.295713706801    -0.095420049654     0.828072841851     1.007825032230
         H            0.521633706801    -1.888920049654     1.711936841851     1.007825032230
         H            0.665398706801     3.108422950346     0.683610841851     1.007825032230
         H            2.973401706801    -2.548262049654     0.095080841851     1.007825032230
         H            3.721287706801     2.548297950346    -0.058442158149     1.007825032230
         H            4.639585706801    -0.424722049654    -1.096660158149     1.007825032230
         H           -3.808536293199    -1.523226049654     1.735154841851     1.007825032230
         H           -3.930687293199     1.444652950346     0.249812841851     1.007825032230
         H           -2.229903293199     1.891991950346    -0.058669158149     1.007825032230
         H           -3.800662293199     3.129993950346    -1.602244158149     1.007825032230
         H           -2.717337293199     2.052434950346    -2.504448158149     1.007825032230
         H           -4.401085293199     1.573434950346    -2.212297158149     1.007825032230

  Basis Set: AUG-CC-PVTZ
    Blend: AUG-CC-PVTZ
  Basis Set: (AUG-CC-PVTZ AUX)
    Blend: AUG-CC-PVTZ-JKFIT
	 Reference Energy          =   -1327.8603175641505914 [Eh]
	 Singles Energy            =      -0.0000000000000000 [Eh]
	 Same-Spin Energy          =      -1.0147559917505489 [Eh]
	 Opposite-Spin Energy      =      -3.0764938202602679 [Eh]
	 Correlation Energy        =      -4.0912498120108172 [Eh]
	 Total Energy              =   -1331.9515673761613925 [Eh]

	 ================> DF-SCS-MP2 Energies <==================
	-----------------------------------------------------------
	 SCS Same-Spin Scale       =       0.3333333333333333 [-]
	 SCS Opposite-Spin Scale   =       1.2000000000000000 [-]
	 SCS Same-Spin Energy      =      -0.3382519972501830 [Eh]
	 SCS Opposite-Spin Energy  =      -3.6917925843123212 [Eh]
	 SCS Correlation Energy    =      -4.0300445815625041 [Eh]
	 SCS Total Energy          =   -1331.8903621457131976 [Eh]
	-----------------------------------------------------------

  Dipole Moment: [D]
     X:    -1.0811      Y:     1.8641      Z:     0.7198     Total:     2.2719

*** Psi4 exiting successfully. Buy a developer a beer!
