                               Psi4 1.3.2 release

  ==> Input File <==

--------------------------------------------------------------------------
#psi4
#
memory 32 gb

molecule  {
0 1
  P       -2.2900960    -0.9400430     0.3446780
  O       -0.9821530    -0.2015620     0.9382890
  O        1.3422500    -1.6754830     1.2308510
  O        0.0787050     2.3596040     0.4621680
  O        3.0685150    -2.1870720    -0.8085900
  O        2.8473350     2.5031130     0.3715350
  O        4.1956880     0.4353970    -0.9728740
  O       -2.8268630     0.0333510    -0.8075310
  O       -3.2591210    -0.7232820     1.6216710
  O       -2.1189930    -2.3436440    -0.0996680
  C        0.1181620     0.0300090     0.0163190
  C        0.9532920    -1.2442050    -0.0757250
  C        0.8985890     1.2026440     0.5648510
  C        2.2596600    -1.0143070    -0.8180370
  C        2.1478426     1.4044724    -0.2714529
  C        3.0258420     0.1487050    -0.2103220
  C       -3.1242130     1.4315980    -0.4888860
  C       -3.5363170     2.0851650    -1.7841190
  H       -0.2830920     0.2988010    -0.9702380
  H        0.3702690    -2.0293640    -0.5720320
  H        1.1197331     0.9952730     1.6201747
  H        2.0609340    -0.7886600    -1.8727560
  H        1.9169870     1.6362870    -1.2735830
  H        3.2958550    -0.0945320     0.8276460
  H        0.5217750    -1.8880320     1.7115100
  H        0.6655400     3.1093110     0.6831840
  H        2.9735430    -2.5473740     0.0946540
  H        3.7214290     2.5491860    -0.0588690
  H        4.6397270    -0.4238340    -1.0970870
  H       -3.8083950    -1.5223380     1.7347280
  H       -3.9305460     1.4455410     0.2493860
  H       -2.2297620     1.8928800    -0.0590960
  H       -3.8005210     3.1308820    -1.6026710
  H       -2.7171960     2.0533230    -2.5048750
  H       -4.4009440     1.5743230    -2.2127240
units angstrom
no_reorient  #important for SAPT in psi4, default
symmetry c1  #important for SAPT in psi4, default
}

set PROPERTIES_ORIGIN ["COM"]
properties('MP2/aug-cc-pvtz', properties = ['dipole'])
--------------------------------------------------------------------------

    Molecular point group: c1
  Charge       = 0
  Multiplicity = 1
  Basis Set: AUG-CC-PVTZ
    Blend: AUG-CC-PVTZ
  Basis Set: (AUG-CC-PVTZ AUX)
    Blend: AUG-CC-PVTZ-JKFIT

    Orbital Energies [Eh]
    ---------------------

    Doubly Occupied:

       1A    -80.117117     2A    -20.614877     3A    -20.607229
       4A    -20.599106     5A    -20.583296     6A    -20.574182
       7A    -20.573830     8A    -20.573709     9A    -20.572134
      10A    -20.523592    11A    -11.320441    12A    -11.303639
      13A    -11.299507    14A    -11.299057    15A    -11.298766
      16A    -11.296030    17A    -11.292573    18A    -11.230051
      19A     -7.632565    20A     -5.531072    21A     -5.530697
      22A     -5.529496    23A     -1.460474    24A     -1.410121
      25A     -1.393538    26A     -1.389912    27A     -1.386999
      28A     -1.372436    29A     -1.361668    30A     -1.349816
      31A     -1.303988    32A     -1.118698    33A     -1.040602
      34A     -1.010461    35A     -1.003556    36A     -0.880455
      37A     -0.865289    38A     -0.858380    39A     -0.823025
      40A     -0.813058    41A     -0.751541    42A     -0.744407
      43A     -0.732298    44A     -0.728847    45A     -0.705364
      46A     -0.687682    47A     -0.678172    48A     -0.673904
      49A     -0.660939    50A     -0.658260    51A     -0.641156
      52A     -0.634443    53A     -0.627667    54A     -0.615413
      55A     -0.604842    56A     -0.599034    57A     -0.581920
      58A     -0.575669    59A     -0.571069    60A     -0.558728
      61A     -0.555677    62A     -0.548779    63A     -0.541406
      64A     -0.535161    65A     -0.530403    66A     -0.520378
      67A     -0.513338    68A     -0.504018    69A     -0.496562
      70A     -0.483868    71A     -0.479901    72A     -0.476714
      73A     -0.467468    74A     -0.455147    75A     -0.451655
      76A     -0.434321

  @DF-RHF Final Energy: -1327.85781485568623

   => Energetics <=

    Nuclear Repulsion Energy =           1772.1739036508399749
    One-Electron Energy =               -5356.5202548046818265
    Two-Electron Energy =                2256.4885362981558501
    Total Energy =                      -1327.8578148556862288
  Basis Set: (AUG-CC-PVTZ AUX)
    Blend: AUG-CC-PVTZ-RI
    Molecular point group: c1

    Geometry (in Angstrom), charge = 0, multiplicity = 1:

       Center              X                  Y                   Z               Mass
    ------------   -----------------  -----------------  -----------------  -----------------
         P           -2.288747404785    -0.940367151226     0.346458382143    30.973761998420
         O           -0.980804404785    -0.201886151226     0.940069382143    15.994914619570
         O            1.343598595215    -1.675807151226     1.232631382143    15.994914619570
         O            0.080053595215     2.359279848774     0.463948382143    15.994914619570
         O            3.069863595215    -2.187396151226    -0.806809617857    15.994914619570
         O            2.848683595215     2.502788848774     0.373315382143    15.994914619570
         O            4.197036595215     0.435072848774    -0.971093617857    15.994914619570
         O           -2.825514404785     0.033026848774    -0.805750617857    15.994914619570
         O           -3.257772404785    -0.723606151226     1.623451382143    15.994914619570
         O           -2.117644404785    -2.343968151226    -0.097887617857    15.994914619570
         C            0.119510595215     0.029684848774     0.018099382143    12.000000000000
         C            0.954640595215    -1.244529151226    -0.073944617857    12.000000000000
         C            0.899937595215     1.202319848774     0.566631382143    12.000000000000
         C            2.261008595215    -1.014631151226    -0.816256617857    12.000000000000
         C            2.149191195215     1.404148248774    -0.269672517857    12.000000000000
         C            3.027190595215     0.148380848774    -0.208541617857    12.000000000000
         C           -3.122864404785     1.431273848774    -0.487105617857    12.000000000000
         C           -3.534968404785     2.084840848774    -1.782338617857    12.000000000000
         H           -0.281743404785     0.298476848774    -0.968457617857     1.007825032230
         H            0.371617595215    -2.029688151226    -0.570251617857     1.007825032230
         H            1.121081695215     0.994948848774     1.621955082143     1.007825032230
         H            2.062282595215    -0.788984151226    -1.870975617857     1.007825032230
         H            1.918335595215     1.635962848774    -1.271802617857     1.007825032230
         H            3.297203595215    -0.094856151226     0.829426382143     1.007825032230
         H            0.523123595215    -1.888356151226     1.713290382143     1.007825032230
         H            0.666888595215     3.108986848774     0.684964382143     1.007825032230
         H            2.974891595215    -2.547698151226     0.096434382143     1.007825032230
         H            3.722777595215     2.548861848774    -0.057088617857     1.007825032230
         H            4.641075595215    -0.424158151226    -1.095306617857     1.007825032230
         H           -3.807046404785    -1.522662151226     1.736508382143     1.007825032230
         H           -3.929197404785     1.445216848774     0.251166382143     1.007825032230
         H           -2.228413404785     1.892555848774    -0.057315617857     1.007825032230
         H           -3.799172404785     3.130557848774    -1.600890617857     1.007825032230
         H           -2.715847404785     2.052998848774    -2.503094617857     1.007825032230
         H           -4.399595404785     1.573998848774    -2.210943617857     1.007825032230

  Basis Set: AUG-CC-PVTZ
    Blend: AUG-CC-PVTZ
  Basis Set: (AUG-CC-PVTZ AUX)
    Blend: AUG-CC-PVTZ-JKFIT
	 Reference Energy          =   -1327.8578148556862288 [Eh]
	 Singles Energy            =      -0.0000000000000000 [Eh]
	 Same-Spin Energy          =      -1.0144945813811057 [Eh]
	 Opposite-Spin Energy      =      -3.0764867542773842 [Eh]
	 Correlation Energy        =      -4.0909813356584896 [Eh]
	 Total Energy              =   -1331.9487961913446270 [Eh]

	 ================> DF-SCS-MP2 Energies <==================
	-----------------------------------------------------------
	 SCS Same-Spin Scale       =       0.3333333333333333 [-]
	 SCS Opposite-Spin Scale   =       1.2000000000000000 [-]
	 SCS Same-Spin Energy      =      -0.3381648604603685 [Eh]
	 SCS Opposite-Spin Energy  =      -3.6917841051328608 [Eh]
	 SCS Correlation Energy    =      -4.0299489655932295 [Eh]
	 SCS Total Energy          =   -1331.8877638212793499 [Eh]
	-----------------------------------------------------------

  Dipole Moment: [D]
     X:    -1.1775      Y:     1.8246      Z:     0.6592     Total:     2.2694

*** Psi4 exiting successfully. Buy a developer a beer!
