                               Psi4 1.3.2 release

  ==> Input File <==

--------------------------------------------------------------------------
#psi4
#
memory 32 gb

molecule  {
0 1
  P       -2.2900960    -0.9400430     0.3446780
  O       -0.9821530    -0.2015620     0.9382890
  O        1.3422500    -1.6754830     1.2308510
  O        0.0787050     2.3596040     0.4621680
  O        3.0685150    -2.1870720    -0.8085900
  O        2.8473350     2.5031130     0.3715350
  O        4.1956880     0.4353970    -0.9728740
  O       -2.8268630     0.0333510    -0.8075310
  O       -3.2591210    -0.7232820     1.6216710
  O       -2.1189930    -2.3436440    -0.0996680
  C        0.1181620     0.0300090     0.0163190
  C        0.9532920    -1.2442050    -0.0757250
  C        0.8985890     1.2026440     0.5648510
  C        2.2596600    -1.0143070    -0.8180370
  C        2.1770750     1.3964720    -0.2280410
  C        3.0458750     0.0768103    -0.2102712
  C       -3.1242130     1.4315980    -0.4888860
  C       -3.5363170     2.0851650    -1.7841190
  H       -0.2830920     0.2988010    -0.9702380
  H        0.3702690    -2.0293640    -0.5720320
  H        1.1571200     0.9978770     1.6121560
  H        2.0609340    -0.7886600    -1.8727560
  H        1.9169870     1.6362870    -1.2735830
  H        3.2958550    -0.0945320     0.8276460
  H        0.5217750    -1.8880320     1.7115100
  H        0.6655400     3.1093110     0.6831840
  H        2.9735430    -2.5473740     0.0946540
  H        3.7214290     2.5491860    -0.0588690
  H        4.6020672    -0.4456385    -1.0703925
  H       -3.8083950    -1.5223380     1.7347280
  H       -3.9305460     1.4455410     0.2493860
  H       -2.2297620     1.8928800    -0.0590960
  H       -3.8005210     3.1308820    -1.6026710
  H       -2.7171960     2.0533230    -2.5048750
  H       -4.4009440     1.5743230    -2.2127240
units angstrom
no_reorient  #important for SAPT in psi4, default
symmetry c1  #important for SAPT in psi4, default
}

set PROPERTIES_ORIGIN ["COM"]
properties('MP2/aug-cc-pvtz', properties = ['dipole'])
--------------------------------------------------------------------------

    Molecular point group: c1
  Charge       = 0
  Multiplicity = 1
  Basis Set: AUG-CC-PVTZ
    Blend: AUG-CC-PVTZ
  Basis Set: (AUG-CC-PVTZ AUX)
    Blend: AUG-CC-PVTZ-JKFIT

    Orbital Energies [Eh]
    ---------------------

    Doubly Occupied:

       1A    -80.117049     2A    -20.614815     3A    -20.607072
       4A    -20.598952     5A    -20.584143     6A    -20.576999
       7A    -20.576930     8A    -20.573974     9A    -20.572079
      10A    -20.523681    11A    -11.320713    12A    -11.305219
      13A    -11.299280    14A    -11.298586    15A    -11.297711
      16A    -11.296537    17A    -11.291163    18A    -11.229781
      19A     -7.632501    20A     -5.531007    21A     -5.530633
      22A     -5.529434    23A     -1.460353    24A     -1.412003
      25A     -1.395761    26A     -1.392742    27A     -1.386986
      28A     -1.374284    29A     -1.363927    30A     -1.354936
      31A     -1.304068    32A     -1.117292    33A     -1.040373
      34A     -1.013063    35A     -0.999972    36A     -0.882497
      37A     -0.865494    38A     -0.855177    39A     -0.822770
      40A     -0.811606    41A     -0.751576    42A     -0.744825
      43A     -0.730957    44A     -0.728569    45A     -0.707732
      46A     -0.689318    47A     -0.678547    48A     -0.673552
      49A     -0.661699    50A     -0.659640    51A     -0.642924
      52A     -0.631675    53A     -0.627513    54A     -0.615538
      55A     -0.603710    56A     -0.600993    57A     -0.583684
      58A     -0.575590    59A     -0.572543    60A     -0.559248
      61A     -0.559085    62A     -0.548994    63A     -0.541307
      64A     -0.536789    65A     -0.530254    66A     -0.521857
      67A     -0.512835    68A     -0.505665    69A     -0.496752
      70A     -0.484931    71A     -0.479924    72A     -0.476985
      73A     -0.462450    74A     -0.450973    75A     -0.447407
      76A     -0.439451

  @DF-RHF Final Energy: -1327.85380969248081

   => Energetics <=

    Nuclear Repulsion Energy =           1772.2815080767018117
    One-Electron Energy =               -5356.6765184221794698
    Two-Electron Energy =                2256.5412006529968494
    Total Energy =                      -1327.8538096924808087
  Basis Set: (AUG-CC-PVTZ AUX)
    Blend: AUG-CC-PVTZ-RI
    Molecular point group: c1

    Geometry (in Angstrom), charge = 0, multiplicity = 1:

       Center              X                  Y                   Z               Mass
    ------------   -----------------  -----------------  -----------------  -----------------
         P           -2.290798740181    -0.936971718037     0.344582479807    30.973761998420
         O           -0.982855740181    -0.198490718037     0.938193479807    15.994914619570
         O            1.341547259819    -1.672411718037     1.230755479807    15.994914619570
         O            0.078002259819     2.362675281963     0.462072479807    15.994914619570
         O            3.067812259819    -2.184000718037    -0.808685520193    15.994914619570
         O            2.846632259819     2.506184281963     0.371439479807    15.994914619570
         O            4.194985259819     0.438468281963    -0.972969520193    15.994914619570
         O           -2.827565740181     0.036422281963    -0.807626520193    15.994914619570
         O           -3.259823740181    -0.720210718037     1.621575479807    15.994914619570
         O           -2.119695740181    -2.340572718037    -0.099763520193    15.994914619570
         C            0.117459259819     0.033080281963     0.016223479807    12.000000000000
         C            0.952589259819    -1.241133718037    -0.075820520193    12.000000000000
         C            0.897886259819     1.205715281963     0.564755479807    12.000000000000
         C            2.258957259819    -1.011235718037    -0.818132520193    12.000000000000
         C            2.176372259819     1.399543281963    -0.228136520193    12.000000000000
         C            3.045172259819     0.079881581963    -0.210366720193    12.000000000000
         C           -3.124915740181     1.434669281963    -0.488981520193    12.000000000000
         C           -3.537019740181     2.088236281963    -1.784214520193    12.000000000000
         H           -0.283794740181     0.301872281963    -0.970333520193     1.007825032230
         H            0.369566259819    -2.026292718037    -0.572127520193     1.007825032230
         H            1.156417259819     1.000948281963     1.612060479807     1.007825032230
         H            2.060231259819    -0.785588718037    -1.872851520193     1.007825032230
         H            1.916284259819     1.639358281963    -1.273678520193     1.007825032230
         H            3.295152259819    -0.091460718037     0.827550479807     1.007825032230
         H            0.521072259819    -1.884960718037     1.711414479807     1.007825032230
         H            0.664837259819     3.112382281963     0.683088479807     1.007825032230
         H            2.972840259819    -2.544302718037     0.094558479807     1.007825032230
         H            3.720726259819     2.552257281963    -0.058964520193     1.007825032230
         H            4.601364459819    -0.442567218037    -1.070488020193     1.007825032230
         H           -3.809097740181    -1.519266718037     1.734632479807     1.007825032230
         H           -3.931248740181     1.448612281963     0.249290479807     1.007825032230
         H           -2.230464740181     1.895951281963    -0.059191520193     1.007825032230
         H           -3.801223740181     3.133953281963    -1.602766520193     1.007825032230
         H           -2.717898740181     2.056394281963    -2.504970520193     1.007825032230
         H           -4.401646740181     1.577394281963    -2.212819520193     1.007825032230

  Basis Set: AUG-CC-PVTZ
    Blend: AUG-CC-PVTZ
  Basis Set: (AUG-CC-PVTZ AUX)
    Blend: AUG-CC-PVTZ-JKFIT
	 Reference Energy          =   -1327.8538096924808087 [Eh]
	 Singles Energy            =      -0.0000000000000000 [Eh]
	 Same-Spin Energy          =      -1.0150552942424180 [Eh]
	 Opposite-Spin Energy      =      -3.0771715740319574 [Eh]
	 Correlation Energy        =      -4.0922268682743752 [Eh]
	 Total Energy              =   -1331.9460365607551466 [Eh]

	 ================> DF-SCS-MP2 Energies <==================
	-----------------------------------------------------------
	 SCS Same-Spin Scale       =       0.3333333333333333 [-]
	 SCS Opposite-Spin Scale   =       1.2000000000000000 [-]
	 SCS Same-Spin Energy      =      -0.3383517647474726 [Eh]
	 SCS Opposite-Spin Energy  =      -3.6926058888383486 [Eh]
	 SCS Correlation Energy    =      -4.0309576535858209 [Eh]
	 SCS Total Energy          =   -1331.8847673460666101 [Eh]
	-----------------------------------------------------------

  Dipole Moment: [D]
     X:    -1.1385      Y:     1.8227      Z:     0.7518     Total:     2.2768

*** Psi4 exiting successfully. Buy a developer a beer!
