                               Psi4 1.3.2 release

  ==> Input File <==

--------------------------------------------------------------------------
#psi4
#
memory 32 gb

molecule  {
0 1
  P       -2.2900960    -0.9400430     0.3446780
  O       -0.9821530    -0.2015620     0.9382890
  O        1.3422500    -1.6754830     1.2308510
  O        0.0787050     2.3596040     0.4621680
  O        3.0685150    -2.1870720    -0.8085900
  O        2.8473350     2.5031130     0.3715350
  O        4.1956880     0.4353970    -0.9728740
  O       -2.8268630     0.0333510    -0.8075310
  O       -3.2591210    -0.7232820     1.6216710
  O       -2.1189930    -2.3436440    -0.0996680
  C        0.1181620     0.0300090     0.0163190
  C        0.9532920    -1.2442050    -0.0757250
  C        0.8985890     1.2026440     0.5648510
  C        2.2596600    -1.0143070    -0.8180370
  C        2.1770750     1.3964720    -0.2280410
  C        3.0258420     0.1487050    -0.2103220
  C       -3.1242130     1.4315980    -0.4888860
  C       -3.5363170     2.0851650    -1.7841190
  H       -0.3561515     0.3477421    -1.1498684
  H        0.3702690    -2.0293640    -0.5720320
  H        1.1571200     0.9978770     1.6121560
  H        2.0609340    -0.7886600    -1.8727560
  H        1.9169870     1.6362870    -1.2735830
  H        3.2958550    -0.0945320     0.8276460
  H        0.5217750    -1.8880320     1.7115100
  H        0.6655400     3.1093110     0.6831840
  H        2.9735430    -2.5473740     0.0946540
  H        3.7214290     2.5491860    -0.0588690
  H        4.6397270    -0.4238340    -1.0970870
  H       -3.8083950    -1.5223380     1.7347280
  H       -3.9305460     1.4455410     0.2493860
  H       -2.2297620     1.8928800    -0.0590960
  H       -3.8005210     3.1308820    -1.6026710
  H       -2.7171960     2.0533230    -2.5048750
  H       -4.4009440     1.5743230    -2.2127240
units angstrom
no_reorient  #important for SAPT in psi4, default
symmetry c1  #important for SAPT in psi4, default
}

set PROPERTIES_ORIGIN ["COM"]
properties('MP2/aug-cc-pvtz', properties = ['dipole'])
--------------------------------------------------------------------------

    Molecular point group: c1
  Charge       = 0
  Multiplicity = 1
  Basis Set: AUG-CC-PVTZ
    Blend: AUG-CC-PVTZ
  Basis Set: (AUG-CC-PVTZ AUX)
    Blend: AUG-CC-PVTZ-JKFIT

    Orbital Energies [Eh]
    ---------------------

    Doubly Occupied:

       1A    -80.117567     2A    -20.615228     3A    -20.610080
       4A    -20.598427     5A    -20.584581     6A    -20.576645
       7A    -20.574590     8A    -20.574007     9A    -20.573349
      10A    -20.523585    11A    -11.340735    12A    -11.304969
      13A    -11.300300    14A    -11.299103    15A    -11.299029
      16A    -11.296437    17A    -11.291335    18A    -11.229688
      19A     -7.632985    20A     -5.531491    21A     -5.531125
      22A     -5.529908    23A     -1.460962    24A     -1.411309
      25A     -1.395120    26A     -1.393323    27A     -1.386797
      28A     -1.373339    29A     -1.364095    30A     -1.353885
      31A     -1.303976    32A     -1.116972    33A     -1.040187
      34A     -1.007411    35A     -1.003749    36A     -0.880122
      37A     -0.864103    38A     -0.858578    39A     -0.821077
      40A     -0.800788    41A     -0.752008    42A     -0.741570
      43A     -0.731761    44A     -0.726230    45A     -0.704794
      46A     -0.686220    47A     -0.678529    48A     -0.670440
      49A     -0.662289    50A     -0.659447    51A     -0.643360
      52A     -0.635375    53A     -0.627417    54A     -0.614693
      55A     -0.602710    56A     -0.598591    57A     -0.579751
      58A     -0.575684    59A     -0.570896    60A     -0.558351
      61A     -0.555750    62A     -0.547023    63A     -0.540794
      64A     -0.536091    65A     -0.524433    66A     -0.520906
      67A     -0.512865    68A     -0.502672    69A     -0.495614
      70A     -0.480243    71A     -0.478634    72A     -0.474648
      73A     -0.462788    74A     -0.455196    75A     -0.450703
      76A     -0.436379

  @DF-RHF Final Energy: -1327.84021593985563

   => Energetics <=

    Nuclear Repulsion Energy =           1771.3225234798057954
    One-Electron Energy =               -5354.7938586544842110
    Two-Electron Energy =                2255.6311192348230179
    Total Energy =                      -1327.8402159398556250
  Basis Set: (AUG-CC-PVTZ AUX)
    Blend: AUG-CC-PVTZ-RI
    Molecular point group: c1

    Geometry (in Angstrom), charge = 0, multiplicity = 1:

       Center              X                  Y                   Z               Mass
    ------------   -----------------  -----------------  -----------------  -----------------
         P           -2.289840357458    -0.940214210164     0.345306454886    30.973761998420
         O           -0.981897357458    -0.201733210164     0.938917454886    15.994914619570
         O            1.342505642542    -1.675654210164     1.231479454886    15.994914619570
         O            0.078960642542     2.359432789836     0.462796454886    15.994914619570
         O            3.068770642542    -2.187243210164    -0.807961545114    15.994914619570
         O            2.847590642542     2.502941789836     0.372163454886    15.994914619570
         O            4.195943642542     0.435225789836    -0.972245545114    15.994914619570
         O           -2.826607357458     0.033179789836    -0.806902545114    15.994914619570
         O           -3.258865357458    -0.723453210164     1.622299454886    15.994914619570
         O           -2.118737357458    -2.343815210164    -0.099039545114    15.994914619570
         C            0.118417642542     0.029837789836     0.016947454886    12.000000000000
         C            0.953547642542    -1.244376210164    -0.075096545114    12.000000000000
         C            0.898844642542     1.202472789836     0.565479454886    12.000000000000
         C            2.259915642542    -1.014478210164    -0.817408545114    12.000000000000
         C            2.177330642542     1.396300789836    -0.227412545114    12.000000000000
         C            3.026097642542     0.148533789836    -0.209693545114    12.000000000000
         C           -3.123957357458     1.431426789836    -0.488257545114    12.000000000000
         C           -3.536061357458     2.084993789836    -1.783490545114    12.000000000000
         H           -0.355895857458     0.347570889836    -1.149239945114     1.007825032230
         H            0.370524642542    -2.029535210164    -0.571403545114     1.007825032230
         H            1.157375642542     0.997705789836     1.612784454886     1.007825032230
         H            2.061189642542    -0.788831210164    -1.872127545114     1.007825032230
         H            1.917242642542     1.636115789836    -1.272954545114     1.007825032230
         H            3.296110642542    -0.094703210164     0.828274454886     1.007825032230
         H            0.522030642542    -1.888203210164     1.712138454886     1.007825032230
         H            0.665795642542     3.109139789836     0.683812454886     1.007825032230
         H            2.973798642542    -2.547545210164     0.095282454886     1.007825032230
         H            3.721684642542     2.549014789836    -0.058240545114     1.007825032230
         H            4.639982642542    -0.424005210164    -1.096458545114     1.007825032230
         H           -3.808139357458    -1.522509210164     1.735356454886     1.007825032230
         H           -3.930290357458     1.445369789836     0.250014454886     1.007825032230
         H           -2.229506357458     1.892708789836    -0.058467545114     1.007825032230
         H           -3.800265357458     3.130710789836    -1.602042545114     1.007825032230
         H           -2.716940357458     2.053151789836    -2.504246545114     1.007825032230
         H           -4.400688357458     1.574151789836    -2.212095545114     1.007825032230

  Basis Set: AUG-CC-PVTZ
    Blend: AUG-CC-PVTZ
  Basis Set: (AUG-CC-PVTZ AUX)
    Blend: AUG-CC-PVTZ-JKFIT
	 Reference Energy          =   -1327.8402159398556250 [Eh]
	 Singles Energy            =      -0.0000000000000000 [Eh]
	 Same-Spin Energy          =      -1.0155170438967336 [Eh]
	 Opposite-Spin Energy      =      -3.0787225512592462 [Eh]
	 Correlation Energy        =      -4.0942395951559796 [Eh]
	 Total Energy              =   -1331.9344555350116934 [Eh]

	 ================> DF-SCS-MP2 Energies <==================
	-----------------------------------------------------------
	 SCS Same-Spin Scale       =       0.3333333333333333 [-]
	 SCS Opposite-Spin Scale   =       1.2000000000000000 [-]
	 SCS Same-Spin Energy      =      -0.3385056812989112 [Eh]
	 SCS Opposite-Spin Energy  =      -3.6944670615110953 [Eh]
	 SCS Correlation Energy    =      -4.0329727428100064 [Eh]
	 SCS Total Energy          =   -1331.8731886826656137 [Eh]
	-----------------------------------------------------------

  Dipole Moment: [D]
     X:    -1.1420      Y:     1.8379      Z:     0.7922     Total:     2.3043

*** Psi4 exiting successfully. Buy a developer a beer!
