                               Psi4 1.3.2 release

  ==> Input File <==

--------------------------------------------------------------------------
#psi4
#
memory 32 gb

molecule  {
0 1
  P       -2.2900960    -0.9400430     0.3446780
  O       -0.9821530    -0.2015620     0.9382890
  O        1.3422500    -1.6754830     1.2308510
  O        0.0787050     2.3596040     0.4621680
  O        3.0685150    -2.1870720    -0.8085900
  O        2.8473350     2.5031130     0.3715350
  O        4.1956880     0.4353970    -0.9728740
  O       -2.8268630     0.0333510    -0.8075310
  O       -3.2591210    -0.7232820     1.6216710
  O       -2.1305371    -2.2489447    -0.0696885
  C        0.1181620     0.0300090     0.0163190
  C        0.9532920    -1.2442050    -0.0757250
  C        0.8985890     1.2026440     0.5648510
  C        2.2596600    -1.0143070    -0.8180370
  C        2.1770750     1.3964720    -0.2280410
  C        3.0258420     0.1487050    -0.2103220
  C       -3.1242130     1.4315980    -0.4888860
  C       -3.5363170     2.0851650    -1.7841190
  H       -0.2830920     0.2988010    -0.9702380
  H        0.3702690    -2.0293640    -0.5720320
  H        1.1571200     0.9978770     1.6121560
  H        2.0609340    -0.7886600    -1.8727560
  H        1.9169870     1.6362870    -1.2735830
  H        3.2958550    -0.0945320     0.8276460
  H        0.5217750    -1.8880320     1.7115100
  H        0.6655400     3.1093110     0.6831840
  H        2.9735430    -2.5473740     0.0946540
  H        3.7214290     2.5491860    -0.0588690
  H        4.6397270    -0.4238340    -1.0970870
  H       -3.8083950    -1.5223380     1.7347280
  H       -3.9305460     1.4455410     0.2493860
  H       -2.2297620     1.8928800    -0.0590960
  H       -3.8005210     3.1308820    -1.6026710
  H       -2.7171960     2.0533230    -2.5048750
  H       -4.4009440     1.5743230    -2.2127240
units angstrom
no_reorient  #important for SAPT in psi4, default
symmetry c1  #important for SAPT in psi4, default
}

set PROPERTIES_ORIGIN ["COM"]
properties('MP2/aug-cc-pvtz', properties = ['dipole'])
--------------------------------------------------------------------------

    Molecular point group: c1
  Charge       = 0
  Multiplicity = 1
  Basis Set: AUG-CC-PVTZ
    Blend: AUG-CC-PVTZ
  Basis Set: (AUG-CC-PVTZ AUX)
    Blend: AUG-CC-PVTZ-JKFIT

    Orbital Energies [Eh]
    ---------------------

    Doubly Occupied:

       1A    -80.095519     2A    -20.607326     3A    -20.600297
       4A    -20.592502     5A    -20.583238     6A    -20.575963
       7A    -20.574728     8A    -20.573806     9A    -20.571850
      10A    -20.519950    11A    -11.318570    12A    -11.303781
      13A    -11.299272    14A    -11.297052    15A    -11.295677
      16A    -11.295465    17A    -11.291059    18A    -11.227335
      19A     -7.616817    20A     -5.515140    21A     -5.514416
      22A     -5.514007    23A     -1.462042    24A     -1.409892
      25A     -1.393255    26A     -1.390945    27A     -1.381354
      28A     -1.370827    29A     -1.363376    30A     -1.353390
      31A     -1.345403    32A     -1.117976    33A     -1.036982
      34A     -1.010497    35A     -1.002839    36A     -0.876908
      37A     -0.861987    38A     -0.858227    39A     -0.817944
      40A     -0.809293    41A     -0.750445    42A     -0.743626
      43A     -0.729693    44A     -0.727159    45A     -0.705511
      46A     -0.685451    47A     -0.677962    48A     -0.672420
      49A     -0.662214    50A     -0.659850    51A     -0.641723
      52A     -0.634510    53A     -0.626775    54A     -0.613973
      55A     -0.601629    56A     -0.598490    57A     -0.589169
      58A     -0.576195    59A     -0.569758    60A     -0.562081
      61A     -0.556692    62A     -0.547541    63A     -0.539906
      64A     -0.537020    65A     -0.526954    66A     -0.523299
      67A     -0.511195    68A     -0.504652    69A     -0.503663
      70A     -0.497204    71A     -0.485424    72A     -0.477794
      73A     -0.463620    74A     -0.455167    75A     -0.449957
      76A     -0.436905

  @DF-RHF Final Energy: -1327.85813581492175

   => Energetics <=

    Nuclear Repulsion Energy =           1777.7563875880614432
    One-Electron Energy =               -5367.8439759809889438
    Two-Electron Energy =                2262.2294525780057484
    Total Energy =                      -1327.8581358149217522
  Basis Set: (AUG-CC-PVTZ AUX)
    Blend: AUG-CC-PVTZ-RI
    Molecular point group: c1

    Geometry (in Angstrom), charge = 0, multiplicity = 1:

       Center              X                  Y                   Z               Mass
    ------------   -----------------  -----------------  -----------------  -----------------
         P           -2.289454967927    -0.945301268305     0.343013345049    30.973761998420
         O           -0.981511967927    -0.206820268305     0.936624345049    15.994914619570
         O            1.342891032073    -1.680741268305     1.229186345049    15.994914619570
         O            0.079346032073     2.354345731695     0.460503345049    15.994914619570
         O            3.069156032073    -2.192330268305    -0.810254654951    15.994914619570
         O            2.847976032073     2.497854731695     0.369870345049    15.994914619570
         O            4.196329032073     0.430138731695    -0.974538654951    15.994914619570
         O           -2.826221967927     0.028092731695    -0.809195654951    15.994914619570
         O           -3.258479967927    -0.728540268305     1.620006345049    15.994914619570
         O           -2.129896067927    -2.254202968305    -0.071353154951    15.994914619570
         C            0.118803032073     0.024750731695     0.014654345049    12.000000000000
         C            0.953933032073    -1.249463268305    -0.077389654951    12.000000000000
         C            0.899230032073     1.197385731695     0.563186345049    12.000000000000
         C            2.260301032073    -1.019565268305    -0.819701654951    12.000000000000
         C            2.177716032073     1.391213731695    -0.229705654951    12.000000000000
         C            3.026483032073     0.143446731695    -0.211986654951    12.000000000000
         C           -3.123571967927     1.426339731695    -0.490550654951    12.000000000000
         C           -3.535675967927     2.079906731695    -1.785783654951    12.000000000000
         H           -0.282450967927     0.293542731695    -0.971902654951     1.007825032230
         H            0.370910032073    -2.034622268305    -0.573696654951     1.007825032230
         H            1.157761032073     0.992618731695     1.610491345049     1.007825032230
         H            2.061575032073    -0.793918268305    -1.874420654951     1.007825032230
         H            1.917628032073     1.631028731695    -1.275247654951     1.007825032230
         H            3.296496032073    -0.099790268305     0.825981345049     1.007825032230
         H            0.522416032073    -1.893290268305     1.709845345049     1.007825032230
         H            0.666181032073     3.104052731695     0.681519345049     1.007825032230
         H            2.974184032073    -2.552632268305     0.092989345049     1.007825032230
         H            3.722070032073     2.543927731695    -0.060533654951     1.007825032230
         H            4.640368032073    -0.429092268305    -1.098751654951     1.007825032230
         H           -3.807753967927    -1.527596268305     1.733063345049     1.007825032230
         H           -3.929904967927     1.440282731695     0.247721345049     1.007825032230
         H           -2.229120967927     1.887621731695    -0.060760654951     1.007825032230
         H           -3.799879967927     3.125623731695    -1.604335654951     1.007825032230
         H           -2.716554967927     2.048064731695    -2.506539654951     1.007825032230
         H           -4.400302967927     1.569064731695    -2.214388654951     1.007825032230

  Basis Set: AUG-CC-PVTZ
    Blend: AUG-CC-PVTZ
  Basis Set: (AUG-CC-PVTZ AUX)
    Blend: AUG-CC-PVTZ-JKFIT
	 Reference Energy          =   -1327.8581358149217522 [Eh]
	 Singles Energy            =      -0.0000000000000000 [Eh]
	 Same-Spin Energy          =      -1.0121883650960368 [Eh]
	 Opposite-Spin Energy      =      -3.0705030245001352 [Eh]
	 Correlation Energy        =      -4.0826913895961718 [Eh]
	 Total Energy              =   -1331.9408272045179729 [Eh]

	 ================> DF-SCS-MP2 Energies <==================
	-----------------------------------------------------------
	 SCS Same-Spin Scale       =       0.3333333333333333 [-]
	 SCS Opposite-Spin Scale   =       1.2000000000000000 [-]
	 SCS Same-Spin Energy      =      -0.3373961216986789 [Eh]
	 SCS Opposite-Spin Energy  =      -3.6846036294001623 [Eh]
	 SCS Correlation Energy    =      -4.0219997510988410 [Eh]
	 SCS Total Energy          =   -1331.8801355660204990 [Eh]
	-----------------------------------------------------------

  Dipole Moment: [D]
     X:    -1.0817      Y:     1.3787      Z:     0.6111     Total:     1.8559

*** Psi4 exiting successfully. Buy a developer a beer!
