                               Psi4 1.3.2 release

  ==> Input File <==

--------------------------------------------------------------------------
#psi4
#
memory 32 gb

molecule  {
0 1
  P       -2.2900960    -0.9400430     0.3446780
  O       -0.9821530    -0.2015620     0.9382890
  O        1.3422500    -1.6754830     1.2308510
  O        0.0787050     2.3596040     0.4621680
  O        3.0685150    -2.1870720    -0.8085900
  O        2.8473350     2.5031130     0.3715350
  O        4.2026891     0.4333796    -0.9627905
  O       -2.8268630     0.0333510    -0.8075310
  O       -3.2591210    -0.7232820     1.6216710
  O       -2.1189930    -2.3436440    -0.0996680
  C        0.1181620     0.0300090     0.0163190
  C        0.9532920    -1.2442050    -0.0757250
  C        0.8985890     1.2026440     0.5648510
  C        2.2596600    -1.0143070    -0.8180370
  C        2.1770750     1.3964720    -0.2280410
  C        3.0258420     0.1487050    -0.2103220
  C       -3.1242130     1.4315980    -0.4888860
  C       -3.5363170     2.0851650    -1.7841190
  H       -0.2830920     0.2988010    -0.9702380
  H        0.3702690    -2.0293640    -0.5720320
  H        1.1571200     0.9978770     1.6121560
  H        2.0609340    -0.7886600    -1.8727560
  H        1.9169870     1.6362870    -1.2735830
  H        3.3051191    -0.0932517     0.8254917
  H        0.5217750    -1.8880320     1.7115100
  H        0.6655400     3.1093110     0.6831840
  H        2.9735430    -2.5473740     0.0946540
  H        3.7214290     2.5491860    -0.0588690
  H        4.6397270    -0.4238340    -1.0970870
  H       -3.8083950    -1.5223380     1.7347280
  H       -3.9305460     1.4455410     0.2493860
  H       -2.2297620     1.8928800    -0.0590960
  H       -3.8005210     3.1308820    -1.6026710
  H       -2.7171960     2.0533230    -2.5048750
  H       -4.4009440     1.5743230    -2.2127240
units angstrom
no_reorient  #important for SAPT in psi4, default
symmetry c1  #important for SAPT in psi4, default
}

set PROPERTIES_ORIGIN ["COM"]
properties('MP2/aug-cc-pvtz', properties = ['dipole'])
--------------------------------------------------------------------------

    Molecular point group: c1
  Charge       = 0
  Multiplicity = 1
  Basis Set: AUG-CC-PVTZ
    Blend: AUG-CC-PVTZ
  Basis Set: (AUG-CC-PVTZ AUX)
    Blend: AUG-CC-PVTZ-JKFIT

    Orbital Energies [Eh]
    ---------------------

    Doubly Occupied:

       1A    -80.117006     2A    -20.614782     3A    -20.607113
       4A    -20.598998     5A    -20.583150     6A    -20.576847
       7A    -20.574665     8A    -20.573580     9A    -20.573315
      10A    -20.523497    11A    -11.320873    12A    -11.303714
      13A    -11.299676    14A    -11.299440    15A    -11.298770
      16A    -11.296931    17A    -11.291440    18A    -11.229915
      19A     -7.632456    20A     -5.530962    21A     -5.530589
      22A     -5.529387    23A     -1.460352    24A     -1.410898
      25A     -1.394806    26A     -1.393090    27A     -1.386919
      28A     -1.372914    29A     -1.364030    30A     -1.354060
      31A     -1.303893    32A     -1.119205    33A     -1.040515
      34A     -1.012176    35A     -1.003593    36A     -0.880442
      37A     -0.865012    38A     -0.859241    39A     -0.822459
      40A     -0.810733    41A     -0.751735    42A     -0.745257
      43A     -0.731811    44A     -0.728676    45A     -0.708156
      46A     -0.687258    47A     -0.678242    48A     -0.673885
      49A     -0.662137    50A     -0.660834    51A     -0.643262
      52A     -0.635558    53A     -0.627375    54A     -0.615481
      55A     -0.603722    56A     -0.598642    57A     -0.581830
      58A     -0.575614    59A     -0.571154    60A     -0.559423
      61A     -0.556460    62A     -0.548535    63A     -0.541244
      64A     -0.536779    65A     -0.530029    66A     -0.521860
      67A     -0.513180    68A     -0.503955    69A     -0.497140
      70A     -0.484837    71A     -0.479902    72A     -0.476662
      73A     -0.462474    74A     -0.455656    75A     -0.450224
      76A     -0.436590

  @DF-RHF Final Energy: -1327.86172249717379

   => Energetics <=

    Nuclear Repulsion Energy =           1772.3527225192476635
    One-Electron Energy =               -5356.8348380918469047
    Two-Electron Energy =                2256.6203930754254543
    Total Energy =                      -1327.8617224971740143
  Basis Set: (AUG-CC-PVTZ AUX)
    Blend: AUG-CC-PVTZ-RI
    Molecular point group: c1

    Geometry (in Angstrom), charge = 0, multiplicity = 1:

       Center              X                  Y                   Z               Mass
    ------------   -----------------  -----------------  -----------------  -----------------
         P           -2.290517123034    -0.939935443227     0.344125630146    30.973761998420
         O           -0.982574123034    -0.201454443227     0.937736630146    15.994914619570
         O            1.341828876966    -1.675375443227     1.230298630146    15.994914619570
         O            0.078283876966     2.359711556773     0.461615630146    15.994914619570
         O            3.068093876966    -2.186964443227    -0.809142369854    15.994914619570
         O            2.846913876966     2.503220556773     0.370982630146    15.994914619570
         O            4.202267976966     0.433487156773    -0.963342869854    15.994914619570
         O           -2.827284123034     0.033458556773    -0.808083369854    15.994914619570
         O           -3.259542123034    -0.723174443227     1.621118630146    15.994914619570
         O           -2.119414123034    -2.343536443227    -0.100220369854    15.994914619570
         C            0.117740876966     0.030116556773     0.015766630146    12.000000000000
         C            0.952870876966    -1.244097443227    -0.076277369854    12.000000000000
         C            0.898167876966     1.202751556773     0.564298630146    12.000000000000
         C            2.259238876966    -1.014199443227    -0.818589369854    12.000000000000
         C            2.176653876966     1.396579556773    -0.228593369854    12.000000000000
         C            3.025420876966     0.148812556773    -0.210874369854    12.000000000000
         C           -3.124634123034     1.431705556773    -0.489438369854    12.000000000000
         C           -3.536738123034     2.085272556773    -1.784671369854    12.000000000000
         H           -0.283513123034     0.298908556773    -0.970790369854     1.007825032230
         H            0.369847876966    -2.029256443227    -0.572584369854     1.007825032230
         H            1.156698876966     0.997984556773     1.611603630146     1.007825032230
         H            2.060512876966    -0.788552443227    -1.873308369854     1.007825032230
         H            1.916565876966     1.636394556773    -1.274135369854     1.007825032230
         H            3.304697976966    -0.093144143227     0.824939330146     1.007825032230
         H            0.521353876966    -1.887924443227     1.710957630146     1.007825032230
         H            0.665118876966     3.109418556773     0.682631630146     1.007825032230
         H            2.973121876966    -2.547266443227     0.094101630146     1.007825032230
         H            3.721007876966     2.549293556773    -0.059421369854     1.007825032230
         H            4.639305876966    -0.423726443227    -1.097639369854     1.007825032230
         H           -3.808816123034    -1.522230443227     1.734175630146     1.007825032230
         H           -3.930967123034     1.445648556773     0.248833630146     1.007825032230
         H           -2.230183123034     1.892987556773    -0.059648369854     1.007825032230
         H           -3.800942123034     3.130989556773    -1.603223369854     1.007825032230
         H           -2.717617123034     2.053430556773    -2.505427369854     1.007825032230
         H           -4.401365123034     1.574430556773    -2.213276369854     1.007825032230

  Basis Set: AUG-CC-PVTZ
    Blend: AUG-CC-PVTZ
  Basis Set: (AUG-CC-PVTZ AUX)
    Blend: AUG-CC-PVTZ-JKFIT
	 Reference Energy          =   -1327.8617224971737869 [Eh]
	 Singles Energy            =      -0.0000000000000000 [Eh]
	 Same-Spin Energy          =      -1.0145170334699563 [Eh]
	 Opposite-Spin Energy      =      -3.0759135421841233 [Eh]
	 Correlation Energy        =      -4.0904305756540795 [Eh]
	 Total Energy              =   -1331.9521530728279686 [Eh]

	 ================> DF-SCS-MP2 Energies <==================
	-----------------------------------------------------------
	 SCS Same-Spin Scale       =       0.3333333333333333 [-]
	 SCS Opposite-Spin Scale   =       1.2000000000000000 [-]
	 SCS Same-Spin Energy      =      -0.3381723444899854 [Eh]
	 SCS Opposite-Spin Energy  =      -3.6910962506209479 [Eh]
	 SCS Correlation Energy    =      -4.0292685951109330 [Eh]
	 SCS Total Energy          =   -1331.8909910922848212 [Eh]
	-----------------------------------------------------------

  Dipole Moment: [D]
     X:    -1.1341      Y:     1.8640      Z:     0.7046     Total:     2.2929

*** Psi4 exiting successfully. Buy a developer a beer!
