                               Psi4 1.3.2 release

  ==> Input File <==

--------------------------------------------------------------------------
#psi4
#
memory 32 gb

molecule  {
0 1
  P       -2.2900960    -0.9400430     0.3446780
  O       -0.9821530    -0.2015620     0.9382890
  O        1.3422500    -1.6754830     1.2308510
  O        0.0787050     2.3596040     0.4621680
  O        3.0685150    -2.1870720    -0.8085900
  O        2.8473350     2.5031130     0.3715350
  O        4.1956880     0.4353970    -0.9728740
  O       -2.8268630     0.0333510    -0.8075310
  O       -3.2591210    -0.7232820     1.6216710
  O       -2.1189930    -2.3436440    -0.0996680
  C        0.1181620     0.0300090     0.0163190
  C        0.9532920    -1.2442050    -0.0757250
  C        0.8985890     1.2026440     0.5648510
  C        2.2596600    -1.0143070    -0.8180370
  C        2.1770750     1.3964720    -0.2280410
  C        3.0142650     0.1970836    -0.2115173
  C       -3.1242130     1.4315980    -0.4888860
  C       -3.5363170     2.0851650    -1.7841190
  H       -0.2830920     0.2988010    -0.9702380
  H        0.3702690    -2.0293640    -0.5720320
  H        1.1571200     0.9978770     1.6121560
  H        2.0609340    -0.7886600    -1.8727560
  H        1.9169870     1.6362870    -1.2735830
  H        3.2958550    -0.0945320     0.8276460
  H        0.5217750    -1.8880320     1.7115100
  H        0.6655400     3.1093110     0.6831840
  H        2.9735430    -2.5473740     0.0946540
  H        3.7214290     2.5491860    -0.0588690
  H        4.6641636    -0.4079854    -1.1146987
  H       -3.8083950    -1.5223380     1.7347280
  H       -3.9305460     1.4455410     0.2493860
  H       -2.2297620     1.8928800    -0.0590960
  H       -3.8005210     3.1308820    -1.6026710
  H       -2.7171960     2.0533230    -2.5048750
  H       -4.4009440     1.5743230    -2.2127240
units angstrom
no_reorient  #important for SAPT in psi4, default
symmetry c1  #important for SAPT in psi4, default
}

set PROPERTIES_ORIGIN ["COM"]
properties('MP2/aug-cc-pvtz', properties = ['dipole'])
--------------------------------------------------------------------------

    Molecular point group: c1
  Charge       = 0
  Multiplicity = 1
  Basis Set: AUG-CC-PVTZ
    Blend: AUG-CC-PVTZ
  Basis Set: (AUG-CC-PVTZ AUX)
    Blend: AUG-CC-PVTZ-JKFIT

    Orbital Energies [Eh]
    ---------------------

    Doubly Occupied:

       1A    -80.116900     2A    -20.614699     3A    -20.607039
       4A    -20.598950     5A    -20.582489     6A    -20.576691
       7A    -20.575118     8A    -20.574455     9A    -20.572164
      10A    -20.523299    11A    -11.320822    12A    -11.302539
      13A    -11.300057    14A    -11.300023    15A    -11.299473
      16A    -11.295731    17A    -11.292461    18A    -11.229934
      19A     -7.632348    20A     -5.530854    21A     -5.530482
      22A     -5.529278    23A     -1.460271    24A     -1.410444
      25A     -1.395134    26A     -1.392464    27A     -1.386791
      28A     -1.371866    29A     -1.364125    30A     -1.353020
      31A     -1.303701    32A     -1.120846    33A     -1.040568
      34A     -1.015900    35A     -1.002102    36A     -0.879451
      37A     -0.864915    38A     -0.860863    39A     -0.822122
      40A     -0.809997    41A     -0.752046    42A     -0.745259
      43A     -0.731892    44A     -0.728672    45A     -0.708322
      46A     -0.685838    47A     -0.678299    48A     -0.674244
      49A     -0.665619    50A     -0.660747    51A     -0.643375
      52A     -0.636313    53A     -0.626912    54A     -0.615311
      55A     -0.603592    56A     -0.597061    57A     -0.580704
      58A     -0.575505    59A     -0.570239    60A     -0.559477
      61A     -0.555547    62A     -0.548157    63A     -0.541045
      64A     -0.535690    65A     -0.529484    66A     -0.521799
      67A     -0.513007    68A     -0.503425    69A     -0.497280
      70A     -0.484962    71A     -0.479818    72A     -0.476418
      73A     -0.463585    74A     -0.460687    75A     -0.450055
      76A     -0.429287

  @DF-RHF Final Energy: -1327.85870144803653

   => Energetics <=

    Nuclear Repulsion Energy =           1772.5504463846514227
    One-Electron Energy =               -5357.2381794940929467
    Two-Electron Energy =                2256.8290316614052244
    Total Energy =                      -1327.8587014480362996
  Basis Set: (AUG-CC-PVTZ AUX)
    Blend: AUG-CC-PVTZ-RI
    Molecular point group: c1

    Geometry (in Angstrom), charge = 0, multiplicity = 1:

       Center              X                  Y                   Z               Mass
    ------------   -----------------  -----------------  -----------------  -----------------
         P           -2.289699189486    -0.942113779054     0.344789401582    30.973761998420
         O           -0.981756189486    -0.203632779054     0.938400401582    15.994914619570
         O            1.342646810514    -1.677553779054     1.230962401582    15.994914619570
         O            0.079101810514     2.357533220946     0.462279401582    15.994914619570
         O            3.068911810514    -2.189142779054    -0.808478598418    15.994914619570
         O            2.847731810514     2.501042220946     0.371646401582    15.994914619570
         O            4.196084810514     0.433326220946    -0.972762598418    15.994914619570
         O           -2.826466189486     0.031280220946    -0.807419598418    15.994914619570
         O           -3.258724189486    -0.725352779054     1.621782401582    15.994914619570
         O           -2.118596189486    -2.345714779054    -0.099556598418    15.994914619570
         C            0.118558810514     0.027938220946     0.016430401582    12.000000000000
         C            0.953688810514    -1.246275779054    -0.075613598418    12.000000000000
         C            0.898985810514     1.200573220946     0.564962401582    12.000000000000
         C            2.260056810514    -1.016377779054    -0.817925598418    12.000000000000
         C            2.177471810514     1.394401220946    -0.227929598418    12.000000000000
         C            3.014661810514     0.195012820946    -0.211405898418    12.000000000000
         C           -3.123816189486     1.429527220946    -0.488774598418    12.000000000000
         C           -3.535920189486     2.083094220946    -1.784007598418    12.000000000000
         H           -0.282695189486     0.296730220946    -0.970126598418     1.007825032230
         H            0.370665810514    -2.031434779054    -0.571920598418     1.007825032230
         H            1.157516810514     0.995806220946     1.612267401582     1.007825032230
         H            2.061330810514    -0.790730779054    -1.872644598418     1.007825032230
         H            1.917383810514     1.634216220946    -1.273471598418     1.007825032230
         H            3.296251810514    -0.096602779054     0.827757401582     1.007825032230
         H            0.522171810514    -1.890102779054     1.711621401582     1.007825032230
         H            0.665936810514     3.107240220946     0.683295401582     1.007825032230
         H            2.973939810514    -2.549444779054     0.094765401582     1.007825032230
         H            3.721825810514     2.547115220946    -0.058757598418     1.007825032230
         H            4.664560410514    -0.410056179054    -1.114587298418     1.007825032230
         H           -3.807998189486    -1.524408779054     1.734839401582     1.007825032230
         H           -3.930149189486     1.443470220946     0.249497401582     1.007825032230
         H           -2.229365189486     1.890809220946    -0.058984598418     1.007825032230
         H           -3.800124189486     3.128811220946    -1.602559598418     1.007825032230
         H           -2.716799189486     2.051252220946    -2.504763598418     1.007825032230
         H           -4.400547189486     1.572252220946    -2.212612598418     1.007825032230

  Basis Set: AUG-CC-PVTZ
    Blend: AUG-CC-PVTZ
  Basis Set: (AUG-CC-PVTZ AUX)
    Blend: AUG-CC-PVTZ-JKFIT
	 Reference Energy          =   -1327.8587014480365269 [Eh]
	 Singles Energy            =      -0.0000000000000000 [Eh]
	 Same-Spin Energy          =      -1.0147121938938868 [Eh]
	 Opposite-Spin Energy      =      -3.0760662699539294 [Eh]
	 Correlation Energy        =      -4.0907784638478164 [Eh]
	 Total Energy              =   -1331.9494799118842820 [Eh]

	 ================> DF-SCS-MP2 Energies <==================
	-----------------------------------------------------------
	 SCS Same-Spin Scale       =       0.3333333333333333 [-]
	 SCS Opposite-Spin Scale   =       1.2000000000000000 [-]
	 SCS Same-Spin Energy      =      -0.3382373979646289 [Eh]
	 SCS Opposite-Spin Energy  =      -3.6912795239447149 [Eh]
	 SCS Correlation Energy    =      -4.0295169219093436 [Eh]
	 SCS Total Energy          =   -1331.8882183699458892 [Eh]
	-----------------------------------------------------------

  Dipole Moment: [D]
     X:    -1.0989      Y:     1.8900      Z:     0.6976     Total:     2.2949

*** Psi4 exiting successfully. Buy a developer a beer!
