                               Psi4 1.3.2 release

  ==> Input File <==

--------------------------------------------------------------------------
#psi4
#
memory 32 gb

molecule  {
0 1
  P       -2.2900960    -0.9400430     0.3446780
  O       -0.9821530    -0.2015620     0.9382890
  O        1.3422500    -1.6754830     1.2308510
  O        0.0787050     2.3596040     0.4621680
  O        3.0685150    -2.1870720    -0.8085900
  O        2.8473350     2.5031130     0.3715350
  O        4.1956880     0.4353970    -0.9728740
  O       -2.8268630     0.0333510    -0.8075310
  O       -3.2591210    -0.7232820     1.6216710
  O       -2.1189930    -2.3436440    -0.0996680
  C        0.1181620     0.0300090     0.0163190
  C        0.9600933    -1.2463664    -0.0645436
  C        0.8985890     1.2026440     0.5648510
  C        2.2596600    -1.0143070    -0.8180370
  C        2.1770750     1.3964720    -0.2280410
  C        3.0258420     0.1487050    -0.2103220
  C       -3.1242130     1.4315980    -0.4888860
  C       -3.5363170     2.0851650    -1.7841190
  H       -0.2830920     0.2988010    -0.9702380
  H        0.3702690    -2.0293640    -0.5720320
  H        1.1571200     0.9978770     1.6121560
  H        2.0703427    -0.7878502    -1.8743121
  H        1.9169870     1.6362870    -1.2735830
  H        3.2958550    -0.0945320     0.8276460
  H        0.5217750    -1.8880320     1.7115100
  H        0.6655400     3.1093110     0.6831840
  H        2.9735430    -2.5473740     0.0946540
  H        3.7214290     2.5491860    -0.0588690
  H        4.6397270    -0.4238340    -1.0970870
  H       -3.8083950    -1.5223380     1.7347280
  H       -3.9305460     1.4455410     0.2493860
  H       -2.2297620     1.8928800    -0.0590960
  H       -3.8005210     3.1308820    -1.6026710
  H       -2.7171960     2.0533230    -2.5048750
  H       -4.4009440     1.5743230    -2.2127240
units angstrom
no_reorient  #important for SAPT in psi4, default
symmetry c1  #important for SAPT in psi4, default
}

set PROPERTIES_ORIGIN ["COM"]
properties('MP2/aug-cc-pvtz', properties = ['dipole'])
--------------------------------------------------------------------------

    Molecular point group: c1
  Charge       = 0
  Multiplicity = 1
  Basis Set: AUG-CC-PVTZ
    Blend: AUG-CC-PVTZ
  Basis Set: (AUG-CC-PVTZ AUX)
    Blend: AUG-CC-PVTZ-JKFIT

    Orbital Energies [Eh]
    ---------------------

    Doubly Occupied:

       1A    -80.116820     2A    -20.614662     3A    -20.606860
       4A    -20.598838     5A    -20.584603     6A    -20.576739
       7A    -20.574382     8A    -20.574025     9A    -20.573307
      10A    -20.523285    11A    -11.320405    12A    -11.303711
      13A    -11.299306    14A    -11.299015    15A    -11.298362
      16A    -11.296592    17A    -11.291193    18A    -11.229795
      19A     -7.632269    20A     -5.530775    21A     -5.530402
      22A     -5.529200    23A     -1.460212    24A     -1.412415
      25A     -1.395230    26A     -1.393594    27A     -1.386773
      28A     -1.373847    29A     -1.364601    30A     -1.354053
      31A     -1.303681    32A     -1.118503    33A     -1.040380
      34A     -1.011437    35A     -1.002815    36A     -0.880127
      37A     -0.864831    38A     -0.858518    39A     -0.822116
      40A     -0.811538    41A     -0.752398    42A     -0.745408
      43A     -0.731182    44A     -0.728646    45A     -0.707849
      46A     -0.687051    47A     -0.679617    48A     -0.673778
      49A     -0.662383    50A     -0.660974    51A     -0.642985
      52A     -0.634930    53A     -0.627589    54A     -0.615858
      55A     -0.603471    56A     -0.598531    57A     -0.581518
      58A     -0.575487    59A     -0.571580    60A     -0.559460
      61A     -0.556623    62A     -0.548918    63A     -0.541252
      64A     -0.536798    65A     -0.530525    66A     -0.521903
      67A     -0.513043    68A     -0.504335    69A     -0.496898
      70A     -0.484657    71A     -0.479640    72A     -0.476461
      73A     -0.461939    74A     -0.455800    75A     -0.449046
      76A     -0.435092

  @DF-RHF Final Energy: -1327.86151545041889

   => Energetics <=

    Nuclear Repulsion Energy =           1772.4952226371876804
    One-Electron Energy =               -5357.1277845289687320
    Two-Electron Energy =                2256.7710464413617046
    Total Energy =                      -1327.8615154504191196
  Basis Set: (AUG-CC-PVTZ AUX)
    Blend: AUG-CC-PVTZ-RI
    Molecular point group: c1

    Geometry (in Angstrom), charge = 0, multiplicity = 1:

       Center              X                  Y                   Z               Mass
    ------------   -----------------  -----------------  -----------------  -----------------
         P           -2.290412212396    -0.939955776277     0.344217642043    30.973761998420
         O           -0.982469212396    -0.201474776277     0.937828642043    15.994914619570
         O            1.341933787604    -1.675395776277     1.230390642043    15.994914619570
         O            0.078388787604     2.359691223723     0.461707642043    15.994914619570
         O            3.068198787604    -2.186984776277    -0.809050357957    15.994914619570
         O            2.847018787604     2.503200223723     0.371074642043    15.994914619570
         O            4.195371787604     0.435484223723    -0.973334357957    15.994914619570
         O           -2.827179212396     0.033438223723    -0.807991357957    15.994914619570
         O           -3.259437212396    -0.723194776277     1.621210642043    15.994914619570
         O           -2.119309212396    -2.343556776277    -0.100128357957    15.994914619570
         C            0.117845787604     0.030096223723     0.015858642043    12.000000000000
         C            0.959777087604    -1.246279176277    -0.065003957957    12.000000000000
         C            0.898272787604     1.202731223723     0.564390642043    12.000000000000
         C            2.259343787604    -1.014219776277    -0.818497357957    12.000000000000
         C            2.176758787604     1.396559223723    -0.228501357957    12.000000000000
         C            3.025525787604     0.148792223723    -0.210782357957    12.000000000000
         C           -3.124529212396     1.431685223723    -0.489346357957    12.000000000000
         C           -3.536633212396     2.085252223723    -1.784579357957    12.000000000000
         H           -0.283408212396     0.298888223723    -0.970698357957     1.007825032230
         H            0.369952787604    -2.029276776277    -0.572492357957     1.007825032230
         H            1.156803787604     0.997964223723     1.611695642043     1.007825032230
         H            2.070026487604    -0.787762976277    -1.874772457957     1.007825032230
         H            1.916670787604     1.636374223723    -1.274043357957     1.007825032230
         H            3.295538787604    -0.094444776277     0.827185642043     1.007825032230
         H            0.521458787604    -1.887944776277     1.711049642043     1.007825032230
         H            0.665223787604     3.109398223723     0.682723642043     1.007825032230
         H            2.973226787604    -2.547286776277     0.094193642043     1.007825032230
         H            3.721112787604     2.549273223723    -0.059329357957     1.007825032230
         H            4.639410787604    -0.423746776277    -1.097547357957     1.007825032230
         H           -3.808711212396    -1.522250776277     1.734267642043     1.007825032230
         H           -3.930862212396     1.445628223723     0.248925642043     1.007825032230
         H           -2.230078212396     1.892967223723    -0.059556357957     1.007825032230
         H           -3.800837212396     3.130969223723    -1.603131357957     1.007825032230
         H           -2.717512212396     2.053410223723    -2.505335357957     1.007825032230
         H           -4.401260212396     1.574410223723    -2.213184357957     1.007825032230

  Basis Set: AUG-CC-PVTZ
    Blend: AUG-CC-PVTZ
  Basis Set: (AUG-CC-PVTZ AUX)
    Blend: AUG-CC-PVTZ-JKFIT
	 Reference Energy          =   -1327.8615154504188922 [Eh]
	 Singles Energy            =      -0.0000000000000000 [Eh]
	 Same-Spin Energy          =      -1.0145946689870680 [Eh]
	 Opposite-Spin Energy      =      -3.0759063766581418 [Eh]
	 Correlation Energy        =      -4.0905010456452100 [Eh]
	 Total Energy              =   -1331.9520164960640614 [Eh]

	 ================> DF-SCS-MP2 Energies <==================
	-----------------------------------------------------------
	 SCS Same-Spin Scale       =       0.3333333333333333 [-]
	 SCS Opposite-Spin Scale   =       1.2000000000000000 [-]
	 SCS Same-Spin Energy      =      -0.3381982229956893 [Eh]
	 SCS Opposite-Spin Energy  =      -3.6910876519897702 [Eh]
	 SCS Correlation Energy    =      -4.0292858749854599 [Eh]
	 SCS Total Energy          =   -1331.8908013254042544 [Eh]
	-----------------------------------------------------------

  Dipole Moment: [D]
     X:    -1.1013      Y:     1.8488      Z:     0.7516     Total:     2.2794

*** Psi4 exiting successfully. Buy a developer a beer!
