                               Psi4 1.3.2 release

  ==> Input File <==

--------------------------------------------------------------------------
#psi4
#
memory 32 gb

molecule  {
0 1
  P       -2.2900960    -0.9400430     0.3446780
  O       -0.9821530    -0.2015620     0.9382890
  O        1.3422500    -1.6754830     1.2308510
  O        0.0787050     2.3596040     0.4621680
  O        3.0685150    -2.1870720    -0.8085900
  O        2.8473350     2.5031130     0.3715350
  O        4.1956880     0.4353970    -0.9728740
  O       -2.8268630     0.0333510    -0.8075310
  O       -3.2591210    -0.7232820     1.6216710
  O       -2.1189930    -2.3436440    -0.0996680
  C        0.1181620     0.0300090     0.0163190
  C        0.9373282    -1.2465090    -0.1539870
  C        0.8985890     1.2026440     0.5648510
  C        2.2596600    -1.0143070    -0.8180370
  C        2.1770750     1.3964720    -0.2280410
  C        3.0258420     0.1487050    -0.2103220
  C       -3.1242130     1.4315980    -0.4888860
  C       -3.5363170     2.0851650    -1.7841190
  H       -0.2568094     0.2524549    -0.9918789
  H        0.3702690    -2.0293640    -0.5720320
  H        1.1571200     0.9978770     1.6121560
  H        2.0609340    -0.7886600    -1.8727560
  H        1.9169870     1.6362870    -1.2735830
  H        3.2958550    -0.0945320     0.8276460
  H        0.5217750    -1.8880320     1.7115100
  H        0.6655400     3.1093110     0.6831840
  H        2.9735430    -2.5473740     0.0946540
  H        3.7214290     2.5491860    -0.0588690
  H        4.6397270    -0.4238340    -1.0970870
  H       -3.8083950    -1.5223380     1.7347280
  H       -3.9305460     1.4455410     0.2493860
  H       -2.2297620     1.8928800    -0.0590960
  H       -3.8005210     3.1308820    -1.6026710
  H       -2.7171960     2.0533230    -2.5048750
  H       -4.4009440     1.5743230    -2.2127240
units angstrom
no_reorient  #important for SAPT in psi4, default
symmetry c1  #important for SAPT in psi4, default
}

set PROPERTIES_ORIGIN ["COM"]
properties('MP2/aug-cc-pvtz', properties = ['dipole'])
--------------------------------------------------------------------------

    Molecular point group: c1
  Charge       = 0
  Multiplicity = 1
  Basis Set: AUG-CC-PVTZ
    Blend: AUG-CC-PVTZ
  Basis Set: (AUG-CC-PVTZ AUX)
    Blend: AUG-CC-PVTZ-JKFIT

    Orbital Energies [Eh]
    ---------------------

    Doubly Occupied:

       1A    -80.117864     2A    -20.615289     3A    -20.609228
       4A    -20.599366     5A    -20.577322     6A    -20.575386
       7A    -20.575304     8A    -20.574090     9A    -20.573300
      10A    -20.524563    11A    -11.323964    12A    -11.304330
      13A    -11.301017    14A    -11.300416    15A    -11.299604
      16A    -11.297456    17A    -11.293210    18A    -11.230056
      19A     -7.633315    20A     -5.531822    21A     -5.531447
      22A     -5.530249    23A     -1.460809    24A     -1.407292
      25A     -1.395095    26A     -1.388954    27A     -1.387217
      28A     -1.369650    29A     -1.358129    30A     -1.345783
      31A     -1.304895    32A     -1.121993    33A     -1.040691
      34A     -1.014531    35A     -1.008895    36A     -0.882290
      37A     -0.865645    38A     -0.862549    39A     -0.823728
      40A     -0.807340    41A     -0.750721    42A     -0.742215
      43A     -0.733862    44A     -0.728976    45A     -0.707647
      46A     -0.688062    47A     -0.674429    48A     -0.670955
      49A     -0.662606    50A     -0.660285    51A     -0.643869
      52A     -0.635621    53A     -0.626507    54A     -0.613172
      55A     -0.604325    56A     -0.598252    57A     -0.583780
      58A     -0.576075    59A     -0.568782    60A     -0.559695
      61A     -0.556498    62A     -0.545652    63A     -0.540729
      64A     -0.537340    65A     -0.523711    66A     -0.520090
      67A     -0.513699    68A     -0.504288    69A     -0.497903
      70A     -0.484552    71A     -0.480415    72A     -0.477210
      73A     -0.464700    74A     -0.456577    75A     -0.452973
      76A     -0.442568

  @DF-RHF Final Energy: -1327.85335783284700

   => Energetics <=

    Nuclear Repulsion Energy =           1771.7061350133001270
    One-Electron Energy =               -5355.5333311483163925
    Two-Electron Energy =                2255.9738383021694972
    Total Energy =                      -1327.8533578328469957
  Basis Set: (AUG-CC-PVTZ AUX)
    Blend: AUG-CC-PVTZ-RI
    Molecular point group: c1

    Geometry (in Angstrom), charge = 0, multiplicity = 1:

       Center              X                  Y                   Z               Mass
    ------------   -----------------  -----------------  -----------------  -----------------
         P           -2.289522903381    -0.939784853823     0.348013930647    30.973761998420
         O           -0.981579903381    -0.201303853823     0.941624930647    15.994914619570
         O            1.342823096619    -1.675224853823     1.234186930647    15.994914619570
         O            0.079278096619     2.359862146177     0.465503930647    15.994914619570
         O            3.069088096619    -2.186813853823    -0.805254069353    15.994914619570
         O            2.847908096619     2.503371146177     0.374870930647    15.994914619570
         O            4.196261096619     0.435655146177    -0.969538069353    15.994914619570
         O           -2.826289903381     0.033609146177    -0.804195069353    15.994914619570
         O           -3.258547903381    -0.723023853823     1.625006930647    15.994914619570
         O           -2.118419903381    -2.343385853823    -0.096332069353    15.994914619570
         C            0.118735096619     0.030267146177     0.019654930647    12.000000000000
         C            0.937901296619    -1.246250853823    -0.150651069353    12.000000000000
         C            0.899162096619     1.202902146177     0.568186930647    12.000000000000
         C            2.260233096619    -1.014048853823    -0.814701069353    12.000000000000
         C            2.177648096619     1.396730146177    -0.224705069353    12.000000000000
         C            3.026415096619     0.148963146177    -0.206986069353    12.000000000000
         C           -3.123639903381     1.431856146177    -0.485550069353    12.000000000000
         C           -3.535743903381     2.085423146177    -1.780783069353    12.000000000000
         H           -0.256236303381     0.252713046177    -0.988542969353     1.007825032230
         H            0.370842096619    -2.029105853823    -0.568696069353     1.007825032230
         H            1.157693096619     0.998135146177     1.615491930647     1.007825032230
         H            2.061507096619    -0.788401853823    -1.869420069353     1.007825032230
         H            1.917560096619     1.636545146177    -1.270247069353     1.007825032230
         H            3.296428096619    -0.094273853823     0.830981930647     1.007825032230
         H            0.522348096619    -1.887773853823     1.714845930647     1.007825032230
         H            0.666113096619     3.109569146177     0.686519930647     1.007825032230
         H            2.974116096619    -2.547115853823     0.097989930647     1.007825032230
         H            3.722002096619     2.549444146177    -0.055533069353     1.007825032230
         H            4.640300096619    -0.423575853823    -1.093751069353     1.007825032230
         H           -3.807821903381    -1.522079853823     1.738063930647     1.007825032230
         H           -3.929972903381     1.445799146177     0.252721930647     1.007825032230
         H           -2.229188903381     1.893138146177    -0.055760069353     1.007825032230
         H           -3.799947903381     3.131140146177    -1.599335069353     1.007825032230
         H           -2.716622903381     2.053581146177    -2.501539069353     1.007825032230
         H           -4.400370903381     1.574581146177    -2.209388069353     1.007825032230

  Basis Set: AUG-CC-PVTZ
    Blend: AUG-CC-PVTZ
  Basis Set: (AUG-CC-PVTZ AUX)
    Blend: AUG-CC-PVTZ-JKFIT
	 Reference Energy          =   -1327.8533578328469957 [Eh]
	 Singles Energy            =      -0.0000000000000000 [Eh]
	 Same-Spin Energy          =      -1.0148286195329326 [Eh]
	 Opposite-Spin Energy      =      -3.0775327977639684 [Eh]
	 Correlation Energy        =      -4.0923614172969014 [Eh]
	 Total Energy              =   -1331.9457192501438385 [Eh]

	 ================> DF-SCS-MP2 Energies <==================
	-----------------------------------------------------------
	 SCS Same-Spin Scale       =       0.3333333333333333 [-]
	 SCS Opposite-Spin Scale   =       1.2000000000000000 [-]
	 SCS Same-Spin Energy      =      -0.3382762065109775 [Eh]
	 SCS Opposite-Spin Energy  =      -3.6930393573167617 [Eh]
	 SCS Correlation Energy    =      -4.0313155638277394 [Eh]
	 SCS Total Energy          =   -1331.8846733966747706 [Eh]
	-----------------------------------------------------------

  Dipole Moment: [D]
     X:    -1.1551      Y:     1.9288      Z:     0.5320     Total:     2.3104

*** Psi4 exiting successfully. Buy a developer a beer!
