                               Psi4 1.3.2 release

  ==> Input File <==

--------------------------------------------------------------------------
#psi4
#
memory 32 gb

molecule  {
0 1
  P       -2.2900960    -0.9400430     0.3446780
  O       -0.9821530    -0.2015620     0.9382890
  O        1.3422500    -1.6754830     1.2308510
  O        0.0787050     2.3596040     0.4621680
  O        3.0685150    -2.1870720    -0.8085900
  O        2.8473350     2.5031130     0.3715350
  O        4.1956880     0.4353970    -0.9728740
  O       -2.8268630     0.0333510    -0.8075310
  O       -3.2591210    -0.7232820     1.6216710
  O       -2.1189930    -2.3436440    -0.0996680
  C       -0.0331798    -0.0018422     0.1431305
  C        0.9532920    -1.2442050    -0.0757250
  C        0.8985890     1.2026440     0.5648510
  C        2.2596600    -1.0143070    -0.8180370
  C        2.1770750     1.3964720    -0.2280410
  C        3.0258420     0.1487050    -0.2103220
  C       -3.1242130     1.4315980    -0.4888860
  C       -3.5363170     2.0851650    -1.7841190
  H       -0.2830920     0.2988010    -0.9702380
  H        0.3702690    -2.0293640    -0.5720320
  H        1.1571200     0.9978770     1.6121560
  H        2.0609340    -0.7886600    -1.8727560
  H        1.9169870     1.6362870    -1.2735830
  H        3.2958550    -0.0945320     0.8276460
  H        0.5217750    -1.8880320     1.7115100
  H        0.6655400     3.1093110     0.6831840
  H        2.9735430    -2.5473740     0.0946540
  H        3.7214290     2.5491860    -0.0588690
  H        4.6397270    -0.4238340    -1.0970870
  H       -3.8083950    -1.5223380     1.7347280
  H       -3.9305460     1.4455410     0.2493860
  H       -2.2297620     1.8928800    -0.0590960
  H       -3.8005210     3.1308820    -1.6026710
  H       -2.7171960     2.0533230    -2.5048750
  H       -4.4009440     1.5743230    -2.2127240
units angstrom
no_reorient  #important for SAPT in psi4, default
symmetry c1  #important for SAPT in psi4, default
}

set PROPERTIES_ORIGIN ["COM"]
properties('MP2/aug-cc-pvtz', properties = ['dipole'])
--------------------------------------------------------------------------

    Molecular point group: c1
  Charge       = 0
  Multiplicity = 1
  Basis Set: AUG-CC-PVTZ
    Blend: AUG-CC-PVTZ
  Basis Set: (AUG-CC-PVTZ AUX)
    Blend: AUG-CC-PVTZ-JKFIT

    Orbital Energies [Eh]
    ---------------------

    Doubly Occupied:

       1A    -80.131852     2A    -20.629430     3A    -20.624670
       4A    -20.607023     5A    -20.576603     6A    -20.573572
       7A    -20.571902     8A    -20.569713     9A    -20.567477
      10A    -20.533874    11A    -11.320491    12A    -11.303889
      13A    -11.295714    14A    -11.294813    15A    -11.293120
      16A    -11.292044    17A    -11.286332    18A    -11.232235
      19A     -7.647374    20A     -5.546009    21A     -5.545398
      22A     -5.544133    23A     -1.519516    24A     -1.434076
      25A     -1.400427    26A     -1.395461    27A     -1.388760
      28A     -1.372538    29A     -1.359535    30A     -1.350415
      31A     -1.314687    32A     -1.097574    33A     -1.044751
      34A     -1.004786    35A     -0.991051    36A     -0.903065
      37A     -0.869964    38A     -0.853314    39A     -0.826618
      40A     -0.803649    41A     -0.761253    42A     -0.755803
      43A     -0.751119    44A     -0.726999    45A     -0.709930
      46A     -0.687292    47A     -0.680340    48A     -0.674719
      49A     -0.668470    50A     -0.662593    51A     -0.656060
      52A     -0.642613    53A     -0.630088    54A     -0.619108
      55A     -0.607304    56A     -0.591490    57A     -0.585104
      58A     -0.582632    59A     -0.575886    60A     -0.558323
      61A     -0.552430    62A     -0.549567    63A     -0.546771
      64A     -0.530101    65A     -0.527812    66A     -0.519689
      67A     -0.511380    68A     -0.502022    69A     -0.498550
      70A     -0.487167    71A     -0.482847    72A     -0.461949
      73A     -0.453835    74A     -0.446734    75A     -0.436123
      76A     -0.416009

  @DF-RHF Final Energy: -1327.82151241559109

   => Energetics <=

    Nuclear Repulsion Energy =           1774.1385713683712311
    One-Electron Energy =               -5359.9842312737227985
    Two-Electron Energy =                2258.0241474897602529
    Total Energy =                      -1327.8215124155913145
  Basis Set: (AUG-CC-PVTZ AUX)
    Blend: AUG-CC-PVTZ-RI
    Molecular point group: c1

    Geometry (in Angstrom), charge = 0, multiplicity = 1:

       Center              X                  Y                   Z               Mass
    ------------   -----------------  -----------------  -----------------  -----------------
         P           -2.283791394595    -0.938716130115     0.339395297524    30.973761998420
         O           -0.975848394595    -0.200235130115     0.933006297524    15.994914619570
         O            1.348554605405    -1.674156130115     1.225568297524    15.994914619570
         O            0.085009605405     2.360930869885     0.456885297524    15.994914619570
         O            3.074819605405    -2.185745130115    -0.813872702476    15.994914619570
         O            2.853639605405     2.504439869885     0.366252297524    15.994914619570
         O            4.201992605405     0.436723869885    -0.978156702476    15.994914619570
         O           -2.820558394595     0.034677869885    -0.812813702476    15.994914619570
         O           -3.252816394595    -0.721955130115     1.616388297524    15.994914619570
         O           -2.112688394595    -2.342317130115    -0.104950702476    15.994914619570
         C           -0.026875194595    -0.000515330115     0.137847797524    12.000000000000
         C            0.959596605405    -1.242878130115    -0.081007702476    12.000000000000
         C            0.904893605405     1.203970869885     0.559568297524    12.000000000000
         C            2.265964605405    -1.012980130115    -0.823319702476    12.000000000000
         C            2.183379605405     1.397798869885    -0.233323702476    12.000000000000
         C            3.032146605405     0.150031869885    -0.215604702476    12.000000000000
         C           -3.117908394595     1.432924869885    -0.494168702476    12.000000000000
         C           -3.530012394595     2.086491869885    -1.789401702476    12.000000000000
         H           -0.276787394595     0.300127869885    -0.975520702476     1.007825032230
         H            0.376573605405    -2.028037130115    -0.577314702476     1.007825032230
         H            1.163424605405     0.999203869885     1.606873297524     1.007825032230
         H            2.067238605405    -0.787333130115    -1.878038702476     1.007825032230
         H            1.923291605405     1.637613869885    -1.278865702476     1.007825032230
         H            3.302159605405    -0.093205130115     0.822363297524     1.007825032230
         H            0.528079605405    -1.886705130115     1.706227297524     1.007825032230
         H            0.671844605405     3.110637869885     0.677901297524     1.007825032230
         H            2.979847605405    -2.546047130115     0.089371297524     1.007825032230
         H            3.727733605405     2.550512869885    -0.064151702476     1.007825032230
         H            4.646031605405    -0.422507130115    -1.102369702476     1.007825032230
         H           -3.802090394595    -1.521011130115     1.729445297524     1.007825032230
         H           -3.924241394595     1.446867869885     0.244103297524     1.007825032230
         H           -2.223457394595     1.894206869885    -0.064378702476     1.007825032230
         H           -3.794216394595     3.132208869885    -1.607953702476     1.007825032230
         H           -2.710891394595     2.054649869885    -2.510157702476     1.007825032230
         H           -4.394639394595     1.575649869885    -2.218006702476     1.007825032230

  Basis Set: AUG-CC-PVTZ
    Blend: AUG-CC-PVTZ
  Basis Set: (AUG-CC-PVTZ AUX)
    Blend: AUG-CC-PVTZ-JKFIT
	 Reference Energy          =   -1327.8215124155910871 [Eh]
	 Singles Energy            =      -0.0000000000000000 [Eh]
	 Same-Spin Energy          =      -1.0154657459483436 [Eh]
	 Opposite-Spin Energy      =      -3.0764211083867306 [Eh]
	 Correlation Energy        =      -4.0918868543350744 [Eh]
	 Total Energy              =   -1331.9133992699262308 [Eh]

	 ================> DF-SCS-MP2 Energies <==================
	-----------------------------------------------------------
	 SCS Same-Spin Scale       =       0.3333333333333333 [-]
	 SCS Opposite-Spin Scale   =       1.2000000000000000 [-]
	 SCS Same-Spin Energy      =      -0.3384885819827812 [Eh]
	 SCS Opposite-Spin Energy  =      -3.6917053300640763 [Eh]
	 SCS Correlation Energy    =      -4.0301939120468573 [Eh]
	 SCS Total Energy          =   -1331.8517063276378849 [Eh]
	-----------------------------------------------------------

  Dipole Moment: [D]
     X:    -2.0856      Y:     1.6554      Z:     0.9955     Total:     2.8427

*** Psi4 exiting successfully. Buy a developer a beer!
