                               Psi4 1.3.2 release

  ==> Input File <==

--------------------------------------------------------------------------
#psi4
#
memory 32 gb

molecule  {
0 1
  P       -2.2900960    -0.9400430     0.3446780
  O       -0.9821530    -0.2015620     0.9382890
  O        1.3422500    -1.6754830     1.2308510
  O        0.0787050     2.3596040     0.4621680
  O        3.0685150    -2.1870720    -0.8085900
  O        2.8473350     2.5031130     0.3715350
  O        4.1956880     0.4353970    -0.9728740
  O       -2.8268630     0.0333510    -0.8075310
  O       -3.2591210    -0.7232820     1.6216710
  O       -2.1189930    -2.3436440    -0.0996680
  C        0.1080980     0.0237850     0.0102051
  C        0.9532920    -1.2442050    -0.0757250
  C        0.8985890     1.2026440     0.5648510
  C        2.2596600    -1.0143070    -0.8180370
  C        2.1770750     1.3964720    -0.2280410
  C        3.0258420     0.1487050    -0.2103220
  C       -3.1242130     1.4315980    -0.4888860
  C       -3.5363170     2.0851650    -1.7841190
  H       -0.2830920     0.2988010    -0.9702380
  H        0.3629319    -2.0232861    -0.5729360
  H        1.1571200     0.9978770     1.6121560
  H        2.0609340    -0.7886600    -1.8727560
  H        1.9169870     1.6362870    -1.2735830
  H        3.2958550    -0.0945320     0.8276460
  H        0.5217750    -1.8880320     1.7115100
  H        0.6655400     3.1093110     0.6831840
  H        2.9735430    -2.5473740     0.0946540
  H        3.7214290     2.5491860    -0.0588690
  H        4.6397270    -0.4238340    -1.0970870
  H       -3.8083950    -1.5223380     1.7347280
  H       -3.9305460     1.4455410     0.2493860
  H       -2.2297620     1.8928800    -0.0590960
  H       -3.8005210     3.1308820    -1.6026710
  H       -2.7171960     2.0533230    -2.5048750
  H       -4.4009440     1.5743230    -2.2127240
units angstrom
no_reorient  #important for SAPT in psi4, default
symmetry c1  #important for SAPT in psi4, default
}

set PROPERTIES_ORIGIN ["COM"]
properties('MP2/aug-cc-pvtz', properties = ['dipole'])
--------------------------------------------------------------------------

    Molecular point group: c1
  Charge       = 0
  Multiplicity = 1
  Basis Set: AUG-CC-PVTZ
    Blend: AUG-CC-PVTZ
  Basis Set: (AUG-CC-PVTZ AUX)
    Blend: AUG-CC-PVTZ-JKFIT

    Orbital Energies [Eh]
    ---------------------

    Doubly Occupied:

       1A    -80.117293     2A    -20.615019     3A    -20.608094
       4A    -20.599291     5A    -20.583362     6A    -20.576531
       7A    -20.574491     8A    -20.573925     9A    -20.573061
      10A    -20.523858    11A    -11.320114    12A    -11.303198
      13A    -11.299621    14A    -11.299346    15A    -11.298622
      16A    -11.296264    17A    -11.291232    18A    -11.230034
      19A     -7.632785    20A     -5.531297    21A     -5.530906
      22A     -5.529708    23A     -1.461290    24A     -1.410908
      25A     -1.395101    26A     -1.392928    27A     -1.387189
      28A     -1.372991    29A     -1.363713    30A     -1.353682
      31A     -1.304279    32A     -1.117744    33A     -1.040677
      34A     -1.011732    35A     -1.002422    36A     -0.880432
      37A     -0.865129    38A     -0.858650    39A     -0.822556
      40A     -0.810997    41A     -0.751554    42A     -0.745699
      43A     -0.731397    44A     -0.729304    45A     -0.707708
      46A     -0.687190    47A     -0.678064    48A     -0.674032
      49A     -0.662284    50A     -0.660960    51A     -0.643131
      52A     -0.634935    53A     -0.627614    54A     -0.615406
      55A     -0.603913    56A     -0.598060    57A     -0.581254
      58A     -0.575927    59A     -0.571568    60A     -0.559531
      61A     -0.556522    62A     -0.548823    63A     -0.541445
      64A     -0.536239    65A     -0.530830    66A     -0.521071
      67A     -0.513230    68A     -0.504445    69A     -0.496909
      70A     -0.485170    71A     -0.480024    72A     -0.476968
      73A     -0.461884    74A     -0.455641    75A     -0.449270
      76A     -0.435856

  @DF-RHF Final Energy: -1327.86135247929610

   => Energetics <=

    Nuclear Repulsion Energy =           1772.4384938186030922
    One-Electron Energy =               -5357.0110303863502850
    Two-Electron Energy =                2256.7111840884508638
    Total Energy =                      -1327.8613524792963290
  Basis Set: (AUG-CC-PVTZ AUX)
    Blend: AUG-CC-PVTZ-RI
    Molecular point group: c1

    Geometry (in Angstrom), charge = 0, multiplicity = 1:

       Center              X                  Y                   Z               Mass
    ------------   -----------------  -----------------  -----------------  -----------------
         P           -2.289651052705    -0.939804968379     0.344935845422    30.973761998420
         O           -0.981708052705    -0.201323968379     0.938546845422    15.994914619570
         O            1.342694947295    -1.675244968379     1.231108845422    15.994914619570
         O            0.079149947295     2.359842031621     0.462425845422    15.994914619570
         O            3.068959947295    -2.186833968379    -0.808332154578    15.994914619570
         O            2.847779947295     2.503351031621     0.371792845422    15.994914619570
         O            4.196132947295     0.435635031621    -0.972616154578    15.994914619570
         O           -2.826418052705     0.033589031621    -0.807273154578    15.994914619570
         O           -3.258676052705    -0.723043968379     1.621928845422    15.994914619570
         O           -2.118548052705    -2.343405968379    -0.099410154578    15.994914619570
         C            0.108542947295     0.024023031621     0.010462945422    12.000000000000
         C            0.953736947295    -1.243966968379    -0.075467154578    12.000000000000
         C            0.899033947295     1.202882031621     0.565108845422    12.000000000000
         C            2.260104947295    -1.014068968379    -0.817779154578    12.000000000000
         C            2.177519947295     1.396710031621    -0.227783154578    12.000000000000
         C            3.026286947295     0.148943031621    -0.210064154578    12.000000000000
         C           -3.123768052705     1.431836031621    -0.488628154578    12.000000000000
         C           -3.535872052705     2.085403031621    -1.783861154578    12.000000000000
         H           -0.282647052705     0.299039031621    -0.969980154578     1.007825032230
         H            0.363376847295    -2.023048068379    -0.572678154578     1.007825032230
         H            1.157564947295     0.998115031621     1.612413845422     1.007825032230
         H            2.061378947295    -0.788421968379    -1.872498154578     1.007825032230
         H            1.917431947295     1.636525031621    -1.273325154578     1.007825032230
         H            3.296299947295    -0.094293968379     0.827903845422     1.007825032230
         H            0.522219947295    -1.887793968379     1.711767845422     1.007825032230
         H            0.665984947295     3.109549031621     0.683441845422     1.007825032230
         H            2.973987947295    -2.547135968379     0.094911845422     1.007825032230
         H            3.721873947295     2.549424031621    -0.058611154578     1.007825032230
         H            4.640171947295    -0.423595968379    -1.096829154578     1.007825032230
         H           -3.807950052705    -1.522099968379     1.734985845422     1.007825032230
         H           -3.930101052705     1.445779031621     0.249643845422     1.007825032230
         H           -2.229317052705     1.893118031621    -0.058838154578     1.007825032230
         H           -3.800076052705     3.131120031621    -1.602413154578     1.007825032230
         H           -2.716751052705     2.053561031621    -2.504617154578     1.007825032230
         H           -4.400499052705     1.574561031621    -2.212466154578     1.007825032230

  Basis Set: AUG-CC-PVTZ
    Blend: AUG-CC-PVTZ
  Basis Set: (AUG-CC-PVTZ AUX)
    Blend: AUG-CC-PVTZ-JKFIT
	 Reference Energy          =   -1327.8613524792961016 [Eh]
	 Singles Energy            =      -0.0000000000000000 [Eh]
	 Same-Spin Energy          =      -1.0145639091295666 [Eh]
	 Opposite-Spin Energy      =      -3.0760651317307417 [Eh]
	 Correlation Energy        =      -4.0906290408603088 [Eh]
	 Total Energy              =   -1331.9519815201563233 [Eh]

	 ================> DF-SCS-MP2 Energies <==================
	-----------------------------------------------------------
	 SCS Same-Spin Scale       =       0.3333333333333333 [-]
	 SCS Opposite-Spin Scale   =       1.2000000000000000 [-]
	 SCS Same-Spin Energy      =      -0.3381879697098555 [Eh]
	 SCS Opposite-Spin Energy  =      -3.6912781580768899 [Eh]
	 SCS Correlation Energy    =      -4.0294661277867458 [Eh]
	 SCS Total Energy          =   -1331.8908186070827924 [Eh]
	-----------------------------------------------------------

  Dipole Moment: [D]
     X:    -1.1549      Y:     1.8528      Z:     0.7236     Total:     2.3000

*** Psi4 exiting successfully. Buy a developer a beer!
