                               Psi4 1.3.2 release

  ==> Input File <==

--------------------------------------------------------------------------
#psi4
#
memory 32 gb

molecule  {
0 1
  P       -2.2900960    -0.9400430     0.3446780
  O       -0.9821530    -0.2015620     0.9382890
  O        1.3422500    -1.6754830     1.2308510
  O        0.0787050     2.3596040     0.4621680
  O        3.0685150    -2.1870720    -0.8085900
  O        2.8473350     2.5031130     0.3715350
  O        4.1956880     0.4353970    -0.9728740
  O       -2.8268630     0.0333510    -0.8075310
  O       -3.2591210    -0.7232820     1.6216710
  O       -2.1189930    -2.3436440    -0.0996680
  C        0.1181620     0.0300090     0.0163190
  C        0.9507892    -1.2448318    -0.0887920
  C        0.8985890     1.2026440     0.5648510
  C        2.2596600    -1.0143070    -0.8180370
  C        2.1770750     1.3964720    -0.2280410
  C        3.0258420     0.1487050    -0.2103220
  C       -3.1242130     1.4315980    -0.4888860
  C       -3.5363170     2.0851650    -1.7841190
  H       -0.2787860     0.2911244    -0.9740343
  H        0.3702690    -2.0293640    -0.5720320
  H        1.1571200     0.9978770     1.6121560
  H        2.0609340    -0.7886600    -1.8727560
  H        1.9169870     1.6362870    -1.2735830
  H        3.2958550    -0.0945320     0.8276460
  H        0.5217750    -1.8880320     1.7115100
  H        0.6655400     3.1093110     0.6831840
  H        2.9735430    -2.5473740     0.0946540
  H        3.7214290     2.5491860    -0.0588690
  H        4.6397270    -0.4238340    -1.0970870
  H       -3.8083950    -1.5223380     1.7347280
  H       -3.9305460     1.4455410     0.2493860
  H       -2.2297620     1.8928800    -0.0590960
  H       -3.8005210     3.1308820    -1.6026710
  H       -2.7171960     2.0533230    -2.5048750
  H       -4.4009440     1.5743230    -2.2127240
units angstrom
no_reorient  #important for SAPT in psi4, default
symmetry c1  #important for SAPT in psi4, default
}

set PROPERTIES_ORIGIN ["COM"]
properties('MP2/aug-cc-pvtz', properties = ['dipole'])
--------------------------------------------------------------------------

    Molecular point group: c1
  Charge       = 0
  Multiplicity = 1
  Basis Set: AUG-CC-PVTZ
    Blend: AUG-CC-PVTZ
  Basis Set: (AUG-CC-PVTZ AUX)
    Blend: AUG-CC-PVTZ-JKFIT

    Orbital Energies [Eh]
    ---------------------

    Doubly Occupied:

       1A    -80.117111     2A    -20.614837     3A    -20.607409
       4A    -20.599018     5A    -20.581579     6A    -20.576895
       7A    -20.574745     8A    -20.574315     9A    -20.573584
      10A    -20.523642    11A    -11.321271    12A    -11.303525
      13A    -11.299603    14A    -11.299427    15A    -11.298930
      16A    -11.296830    17A    -11.291743    18A    -11.229901
      19A     -7.632561    20A     -5.531067    21A     -5.530694
      22A     -5.529493    23A     -1.460367    24A     -1.409712
      25A     -1.394607    26A     -1.392169    27A     -1.386937
      28A     -1.371772    29A     -1.363046    30A     -1.353564
      31A     -1.304028    32A     -1.119539    33A     -1.040504
      34A     -1.012335    35A     -1.004483    36A     -0.880600
      37A     -0.865043    38A     -0.859619    39A     -0.822551
      40A     -0.810029    41A     -0.751087    42A     -0.745040
      43A     -0.731863    44A     -0.728655    45A     -0.707899
      46A     -0.687234    47A     -0.676922    48A     -0.673632
      49A     -0.662364    50A     -0.660976    51A     -0.643205
      52A     -0.635094    53A     -0.627152    54A     -0.614947
      55A     -0.603764    56A     -0.598379    57A     -0.582006
      58A     -0.575647    59A     -0.570685    60A     -0.559325
      61A     -0.556602    62A     -0.547898    63A     -0.541090
      64A     -0.536650    65A     -0.529380    66A     -0.521546
      67A     -0.513228    68A     -0.504521    69A     -0.497341
      70A     -0.484886    71A     -0.479985    72A     -0.476764
      73A     -0.462777    74A     -0.456012    75A     -0.450749
      76A     -0.437524

  @DF-RHF Final Energy: -1327.86103649917800

   => Energetics <=

    Nuclear Repulsion Energy =           1772.3206927186199664
    One-Electron Energy =               -5356.7796290888945805
    Two-Electron Energy =                2256.5978998710961605
    Total Energy =                      -1327.8610364991782262
  Basis Set: (AUG-CC-PVTZ AUX)
    Blend: AUG-CC-PVTZ-RI
    Molecular point group: c1

    Geometry (in Angstrom), charge = 0, multiplicity = 1:

       Center              X                  Y                   Z               Mass
    ------------   -----------------  -----------------  -----------------  -----------------
         P           -2.290006771115    -0.939990013446     0.345235615702    30.973761998420
         O           -0.982063771115    -0.201509013446     0.938846615702    15.994914619570
         O            1.342339228885    -1.675430013446     1.231408615702    15.994914619570
         O            0.078794228885     2.359656986554     0.462725615702    15.994914619570
         O            3.068604228885    -2.187019013446    -0.808032384298    15.994914619570
         O            2.847424228885     2.503165986554     0.372092615702    15.994914619570
         O            4.195777228885     0.435449986554    -0.972316384298    15.994914619570
         O           -2.826773771115     0.033403986554    -0.806973384298    15.994914619570
         O           -3.259031771115    -0.723229013446     1.622228615702    15.994914619570
         O           -2.118903771115    -2.343591013446    -0.099110384298    15.994914619570
         C            0.118251228885     0.030061986554     0.016876615702    12.000000000000
         C            0.950878428885    -1.244778813446    -0.088234384298    12.000000000000
         C            0.898678228885     1.202696986554     0.565408615702    12.000000000000
         C            2.259749228885    -1.014254013446    -0.817479384298    12.000000000000
         C            2.177164228885     1.396524986554    -0.227483384298    12.000000000000
         C            3.025931228885     0.148757986554    -0.209764384298    12.000000000000
         C           -3.124123771115     1.431650986554    -0.488328384298    12.000000000000
         C           -3.536227771115     2.085217986554    -1.783561384298    12.000000000000
         H           -0.278696771115     0.291177386554    -0.973476684298     1.007825032230
         H            0.370358228885    -2.029311013446    -0.571474384298     1.007825032230
         H            1.157209228885     0.997929986554     1.612713615702     1.007825032230
         H            2.061023228885    -0.788607013446    -1.872198384298     1.007825032230
         H            1.917076228885     1.636339986554    -1.273025384298     1.007825032230
         H            3.295944228885    -0.094479013446     0.828203615702     1.007825032230
         H            0.521864228885    -1.887979013446     1.712067615702     1.007825032230
         H            0.665629228885     3.109363986554     0.683741615702     1.007825032230
         H            2.973632228885    -2.547321013446     0.095211615702     1.007825032230
         H            3.721518228885     2.549238986554    -0.058311384298     1.007825032230
         H            4.639816228885    -0.423781013446    -1.096529384298     1.007825032230
         H           -3.808305771115    -1.522285013446     1.735285615702     1.007825032230
         H           -3.930456771115     1.445593986554     0.249943615702     1.007825032230
         H           -2.229672771115     1.892932986554    -0.058538384298     1.007825032230
         H           -3.800431771115     3.130934986554    -1.602113384298     1.007825032230
         H           -2.717106771115     2.053375986554    -2.504317384298     1.007825032230
         H           -4.400854771115     1.574375986554    -2.212166384298     1.007825032230

  Basis Set: AUG-CC-PVTZ
    Blend: AUG-CC-PVTZ
  Basis Set: (AUG-CC-PVTZ AUX)
    Blend: AUG-CC-PVTZ-JKFIT
	 Reference Energy          =   -1327.8610364991779988 [Eh]
	 Singles Energy            =      -0.0000000000000000 [Eh]
	 Same-Spin Energy          =      -1.0146058788280867 [Eh]
	 Opposite-Spin Energy      =      -3.0762658123182249 [Eh]
	 Correlation Energy        =      -4.0908716911463117 [Eh]
	 Total Energy              =   -1331.9519081903242750 [Eh]

	 ================> DF-SCS-MP2 Energies <==================
	-----------------------------------------------------------
	 SCS Same-Spin Scale       =       0.3333333333333333 [-]
	 SCS Opposite-Spin Scale   =       1.2000000000000000 [-]
	 SCS Same-Spin Energy      =      -0.3382019596093622 [Eh]
	 SCS Opposite-Spin Energy  =      -3.6915189747818697 [Eh]
	 SCS Correlation Energy    =      -4.0297209343912321 [Eh]
	 SCS Total Energy          =   -1331.8907574335692061 [Eh]
	-----------------------------------------------------------

  Dipole Moment: [D]
     X:    -1.1214      Y:     1.8731      Z:     0.6890     Total:     2.2892

*** Psi4 exiting successfully. Buy a developer a beer!
