                               Psi4 1.3.2 release

  ==> Input File <==

--------------------------------------------------------------------------
#psi4
#
memory 32 gb

molecule  {
0 1
  P       -2.2900960    -0.9400430     0.3446780
  O       -0.9821530    -0.2015620     0.9382890
  O        1.3422500    -1.6754830     1.2308510
  O        0.0787050     2.3596040     0.4621680
  O        3.0685150    -2.1870720    -0.8085900
  O        2.8473350     2.5031130     0.3715350
  O        4.1780717     0.4812088    -0.9810525
  O       -2.8268630     0.0333510    -0.8075310
  O       -3.2591210    -0.7232820     1.6216710
  O       -2.1189930    -2.3436440    -0.0996680
  C        0.1181620     0.0300090     0.0163190
  C        0.9532920    -1.2442050    -0.0757250
  C        0.8985890     1.2026440     0.5648510
  C        2.2596600    -1.0143070    -0.8180370
  C        2.2137991     1.4199204    -0.2576462
  C        3.0258420     0.1487050    -0.2103220
  C       -3.1242130     1.4315980    -0.4888860
  C       -3.5363170     2.0851650    -1.7841190
  H       -0.2830920     0.2988010    -0.9702380
  H        0.3702690    -2.0293640    -0.5720320
  H        1.1571200     0.9978770     1.6121560
  H        2.0609340    -0.7886600    -1.8727560
  H        1.9169870     1.6362870    -1.2735830
  H        3.2958550    -0.0945320     0.8276460
  H        0.5217750    -1.8880320     1.7115100
  H        0.6655400     3.1093110     0.6831840
  H        2.9735430    -2.5473740     0.0946540
  H        3.7214290     2.5491860    -0.0588690
  H        4.6397270    -0.4238340    -1.0970870
  H       -3.8083950    -1.5223380     1.7347280
  H       -3.9305460     1.4455410     0.2493860
  H       -2.2297620     1.8928800    -0.0590960
  H       -3.8005210     3.1308820    -1.6026710
  H       -2.7171960     2.0533230    -2.5048750
  H       -4.4009440     1.5743230    -2.2127240
units angstrom
no_reorient  #important for SAPT in psi4, default
symmetry c1  #important for SAPT in psi4, default
}

set PROPERTIES_ORIGIN ["COM"]
properties('MP2/aug-cc-pvtz', properties = ['dipole'])
--------------------------------------------------------------------------

    Molecular point group: c1
  Charge       = 0
  Multiplicity = 1
  Basis Set: AUG-CC-PVTZ
    Blend: AUG-CC-PVTZ
  Basis Set: (AUG-CC-PVTZ AUX)
    Blend: AUG-CC-PVTZ-JKFIT

    Orbital Energies [Eh]
    ---------------------

    Doubly Occupied:

       1A    -80.116309     2A    -20.614210     3A    -20.606049
       4A    -20.598359     5A    -20.582790     6A    -20.579349
       7A    -20.578508     8A    -20.575675     9A    -20.571383
      10A    -20.522924    11A    -11.319143    12A    -11.303198
      13A    -11.299872    14A    -11.298835    15A    -11.297239
      16A    -11.294111    17A    -11.289904    18A    -11.229472
      19A     -7.631762    20A     -5.530268    21A     -5.529892
      22A     -5.528695    23A     -1.459548    24A     -1.410908
      25A     -1.397906    26A     -1.392124    27A     -1.386192
      28A     -1.369784    29A     -1.365277    30A     -1.352586
      31A     -1.303317    32A     -1.113360    33A     -1.039951
      34A     -1.009432    35A     -0.998010    36A     -0.877319
      37A     -0.864061    38A     -0.858026    39A     -0.821642
      40A     -0.810549    41A     -0.751876    42A     -0.744539
      43A     -0.729714    44A     -0.728045    45A     -0.707671
      46A     -0.686414    47A     -0.677915    48A     -0.672412
      49A     -0.660515    50A     -0.656921    51A     -0.643433
      52A     -0.630578    53A     -0.627094    54A     -0.615872
      55A     -0.603475    56A     -0.598593    57A     -0.581686
      58A     -0.575074    59A     -0.570902    60A     -0.562835
      61A     -0.556758    62A     -0.547607    63A     -0.540992
      64A     -0.538658    65A     -0.529286    66A     -0.519942
      67A     -0.512726    68A     -0.504408    69A     -0.495341
      70A     -0.483265    71A     -0.479079    72A     -0.476135
      73A     -0.460880    74A     -0.453918    75A     -0.444232
      76A     -0.436739

  @DF-RHF Final Energy: -1327.85268964294028

   => Energetics <=

    Nuclear Repulsion Energy =           1771.7117984807621269
    One-Electron Energy =               -5355.6620426759054681
    Two-Electron Energy =                2256.0975545522032917
    Total Energy =                      -1327.8526896429402768
  Basis Set: (AUG-CC-PVTZ AUX)
    Blend: AUG-CC-PVTZ-RI
    Molecular point group: c1

    Geometry (in Angstrom), charge = 0, multiplicity = 1:

       Center              X                  Y                   Z               Mass
    ------------   -----------------  -----------------  -----------------  -----------------
         P           -2.290647648841    -0.943563544159     0.346365399954    30.973761998420
         O           -0.982704648841    -0.205082544159     0.939976399954    15.994914619570
         O            1.341698351159    -1.679003544159     1.232538399954    15.994914619570
         O            0.078153351159     2.356083455841     0.463855399954    15.994914619570
         O            3.067963351159    -2.190592544159    -0.806902600046    15.994914619570
         O            2.846783351159     2.499592455841     0.373222399954    15.994914619570
         O            4.177520051159     0.477688255841    -0.979365100046    15.994914619570
         O           -2.827414648841     0.029830455841    -0.805843600046    15.994914619570
         O           -3.259672648841    -0.726802544159     1.623358399954    15.994914619570
         O           -2.119544648841    -2.347164544159    -0.097980600046    15.994914619570
         C            0.117610351159     0.026488455841     0.018006399954    12.000000000000
         C            0.952740351159    -1.247725544159    -0.074037600046    12.000000000000
         C            0.898037351159     1.199123455841     0.566538399954    12.000000000000
         C            2.259108351159    -1.017827544159    -0.816349600046    12.000000000000
         C            2.213247451159     1.416399855841    -0.255958800046    12.000000000000
         C            3.025290351159     0.145184455841    -0.208634600046    12.000000000000
         C           -3.124764648841     1.428077455841    -0.487198600046    12.000000000000
         C           -3.536868648841     2.081644455841    -1.782431600046    12.000000000000
         H           -0.283643648841     0.295280455841    -0.968550600046     1.007825032230
         H            0.369717351159    -2.032884544159    -0.570344600046     1.007825032230
         H            1.156568351159     0.994356455841     1.613843399954     1.007825032230
         H            2.060382351159    -0.792180544159    -1.871068600046     1.007825032230
         H            1.916435351159     1.632766455841    -1.271895600046     1.007825032230
         H            3.295303351159    -0.098052544159     0.829333399954     1.007825032230
         H            0.521223351159    -1.891552544159     1.713197399954     1.007825032230
         H            0.664988351159     3.105790455841     0.684871399954     1.007825032230
         H            2.972991351159    -2.550894544159     0.096341399954     1.007825032230
         H            3.720877351159     2.545665455841    -0.057181600046     1.007825032230
         H            4.639175351159    -0.427354544159    -1.095399600046     1.007825032230
         H           -3.808946648841    -1.525858544159     1.736415399954     1.007825032230
         H           -3.931097648841     1.442020455841     0.251073399954     1.007825032230
         H           -2.230313648841     1.889359455841    -0.057408600046     1.007825032230
         H           -3.801072648841     3.127361455841    -1.600983600046     1.007825032230
         H           -2.717747648841     2.049802455841    -2.503187600046     1.007825032230
         H           -4.401495648841     1.570802455841    -2.211036600046     1.007825032230

  Basis Set: AUG-CC-PVTZ
    Blend: AUG-CC-PVTZ
  Basis Set: (AUG-CC-PVTZ AUX)
    Blend: AUG-CC-PVTZ-JKFIT
	 Reference Energy          =   -1327.8526896429402768 [Eh]
	 Singles Energy            =      -0.0000000000000000 [Eh]
	 Same-Spin Energy          =      -1.0153624072106744 [Eh]
	 Opposite-Spin Energy      =      -3.0780049440085260 [Eh]
	 Correlation Energy        =      -4.0933673512192001 [Eh]
	 Total Energy              =   -1331.9460569941595622 [Eh]

	 ================> DF-SCS-MP2 Energies <==================
	-----------------------------------------------------------
	 SCS Same-Spin Scale       =       0.3333333333333333 [-]
	 SCS Opposite-Spin Scale   =       1.2000000000000000 [-]
	 SCS Same-Spin Energy      =      -0.3384541357368914 [Eh]
	 SCS Opposite-Spin Energy  =      -3.6936059328102311 [Eh]
	 SCS Correlation Energy    =      -4.0320600685471222 [Eh]
	 SCS Total Energy          =   -1331.8847497114873022 [Eh]
	-----------------------------------------------------------

  Dipole Moment: [D]
     X:    -0.9845      Y:     1.8679      Z:     0.7147     Total:     2.2291

*** Psi4 exiting successfully. Buy a developer a beer!
