                               Psi4 1.3.2 release

  ==> Input File <==

--------------------------------------------------------------------------
#psi4
#
memory 32 gb

molecule  {
0 1
  P       -2.2845972    -0.9272078     0.3467500
  O       -0.9821530    -0.2015620     0.9382890
  O        1.3422500    -1.6754830     1.2308510
  O        0.0787050     2.3596040     0.4621680
  O        3.0685150    -2.1870720    -0.8085900
  O        2.8473350     2.5031130     0.3715350
  O        4.1956880     0.4353970    -0.9728740
  O       -2.8268630     0.0333510    -0.8075310
  O       -3.2591210    -0.7232820     1.6216710
  O       -2.1189930    -2.3436440    -0.0996680
  C        0.1181620     0.0300090     0.0163190
  C        0.9532920    -1.2442050    -0.0757250
  C        0.8985890     1.2026440     0.5648510
  C        2.2596600    -1.0143070    -0.8180370
  C        2.1770750     1.3964720    -0.2280410
  C        3.0258420     0.1487050    -0.2103220
  C       -3.1242130     1.4315980    -0.4888860
  C       -3.5363170     2.0851650    -1.7841190
  H       -0.2830920     0.2988010    -0.9702380
  H        0.3702690    -2.0293640    -0.5720320
  H        1.1571200     0.9978770     1.6121560
  H        2.0609340    -0.7886600    -1.8727560
  H        1.9169870     1.6362870    -1.2735830
  H        3.2958550    -0.0945320     0.8276460
  H        0.5217750    -1.8880320     1.7115100
  H        0.6655400     3.1093110     0.6831840
  H        2.9735430    -2.5473740     0.0946540
  H        3.7214290     2.5491860    -0.0588690
  H        4.6397270    -0.4238340    -1.0970870
  H       -3.8121460    -1.5187578     1.7414871
  H       -3.9305460     1.4455410     0.2493860
  H       -2.2297620     1.8928800    -0.0590960
  H       -3.8005210     3.1308820    -1.6026710
  H       -2.7171960     2.0533230    -2.5048750
  H       -4.4009440     1.5743230    -2.2127240
units angstrom
no_reorient  #important for SAPT in psi4, default
symmetry c1  #important for SAPT in psi4, default
}

set PROPERTIES_ORIGIN ["COM"]
properties('MP2/aug-cc-pvtz', properties = ['dipole'])
--------------------------------------------------------------------------

    Molecular point group: c1
  Charge       = 0
  Multiplicity = 1
  Basis Set: AUG-CC-PVTZ
    Blend: AUG-CC-PVTZ
  Basis Set: (AUG-CC-PVTZ AUX)
    Blend: AUG-CC-PVTZ-JKFIT

    Orbital Energies [Eh]
    ---------------------

    Doubly Occupied:

       1A    -80.116938     2A    -20.613356     3A    -20.609332
       4A    -20.599961     5A    -20.583549     6A    -20.577347
       7A    -20.574942     8A    -20.574479     9A    -20.574319
      10A    -20.520225    11A    -11.322344    12A    -11.304040
      13A    -11.300111    14A    -11.299796    15A    -11.299554
      16A    -11.297353    17A    -11.291897    18A    -11.230358
      19A     -7.632210    20A     -5.530748    21A     -5.530409
      22A     -5.529056    23A     -1.462254    24A     -1.411521
      25A     -1.395799    26A     -1.393744    27A     -1.387665
      28A     -1.374056    29A     -1.364510    30A     -1.354403
      31A     -1.295915    32A     -1.120070    33A     -1.041236
      34A     -1.013401    35A     -1.004088    36A     -0.881492
      37A     -0.865815    38A     -0.859816    39A     -0.823336
      40A     -0.811493    41A     -0.752607    42A     -0.746493
      43A     -0.732453    44A     -0.730354    45A     -0.708737
      46A     -0.687847    47A     -0.678473    48A     -0.673654
      49A     -0.662303    50A     -0.660939    51A     -0.643947
      52A     -0.636039    53A     -0.627841    54A     -0.616122
      55A     -0.604631    56A     -0.598924    57A     -0.580682
      58A     -0.575309    59A     -0.572143    60A     -0.559176
      61A     -0.556419    62A     -0.548938    63A     -0.540765
      64A     -0.536895    65A     -0.531157    66A     -0.522042
      67A     -0.513932    68A     -0.504960    69A     -0.496550
      70A     -0.485599    71A     -0.478608    72A     -0.472005
      73A     -0.462044    74A     -0.456434    75A     -0.450399
      76A     -0.436392

  @DF-RHF Final Energy: -1327.86117868341034

   => Energetics <=

    Nuclear Repulsion Energy =           1772.8480909272063855
    One-Electron Energy =               -5357.7890372074252809
    Two-Electron Energy =                2257.0797675968083240
    Total Energy =                      -1327.8611786834103441
  Basis Set: (AUG-CC-PVTZ AUX)
    Blend: AUG-CC-PVTZ-RI
    Molecular point group: c1

    Geometry (in Angstrom), charge = 0, multiplicity = 1:

       Center              X                  Y                   Z               Mass
    ------------   -----------------  -----------------  -----------------  -----------------
         P           -2.285175302213    -0.928600413118     0.346503551230    30.973761998420
         O           -0.982731102213    -0.202954613118     0.938042551230    15.994914619570
         O            1.341671897787    -1.676875613118     1.230604551230    15.994914619570
         O            0.078126897787     2.358211386882     0.461921551230    15.994914619570
         O            3.067936897787    -2.188464613118    -0.808836448770    15.994914619570
         O            2.846756897787     2.501720386882     0.371288551230    15.994914619570
         O            4.195109897787     0.434004386882    -0.973120448770    15.994914619570
         O           -2.827441102213     0.031958386882    -0.807777448770    15.994914619570
         O           -3.259699102213    -0.724674613118     1.621424551230    15.994914619570
         O           -2.119571102213    -2.345036613118    -0.099914448770    15.994914619570
         C            0.117583897787     0.028616386882     0.016072551230    12.000000000000
         C            0.952713897787    -1.245597613118    -0.075971448770    12.000000000000
         C            0.898010897787     1.201251386882     0.564604551230    12.000000000000
         C            2.259081897787    -1.015699613118    -0.818283448770    12.000000000000
         C            2.176496897787     1.395079386882    -0.228287448770    12.000000000000
         C            3.025263897787     0.147312386882    -0.210568448770    12.000000000000
         C           -3.124791102213     1.430205386882    -0.489132448770    12.000000000000
         C           -3.536895102213     2.083772386882    -1.784365448770    12.000000000000
         H           -0.283670102213     0.297408386882    -0.970484448770     1.007825032230
         H            0.369690897787    -2.030756613118    -0.572278448770     1.007825032230
         H            1.156541897787     0.996484386882     1.611909551230     1.007825032230
         H            2.060355897787    -0.790052613118    -1.873002448770     1.007825032230
         H            1.916408897787     1.634894386882    -1.273829448770     1.007825032230
         H            3.295276897787    -0.095924613118     0.827399551230     1.007825032230
         H            0.521196897787    -1.889424613118     1.711263551230     1.007825032230
         H            0.664961897787     3.107918386882     0.682937551230     1.007825032230
         H            2.972964897787    -2.548766613118     0.094407551230     1.007825032230
         H            3.720850897787     2.547793386882    -0.059115448770     1.007825032230
         H            4.639148897787    -0.425226613118    -1.097333448770     1.007825032230
         H           -3.812724102213    -1.520150413118     1.741240651230     1.007825032230
         H           -3.931124102213     1.444148386882     0.249139551230     1.007825032230
         H           -2.230340102213     1.891487386882    -0.059342448770     1.007825032230
         H           -3.801099102213     3.129489386882    -1.602917448770     1.007825032230
         H           -2.717774102213     2.051930386882    -2.505121448770     1.007825032230
         H           -4.401522102213     1.572930386882    -2.212970448770     1.007825032230

  Basis Set: AUG-CC-PVTZ
    Blend: AUG-CC-PVTZ
  Basis Set: (AUG-CC-PVTZ AUX)
    Blend: AUG-CC-PVTZ-JKFIT
	 Reference Energy          =   -1327.8611786834103441 [Eh]
	 Singles Energy            =      -0.0000000000000000 [Eh]
	 Same-Spin Energy          =      -1.0146603977888737 [Eh]
	 Opposite-Spin Energy      =      -3.0761145533505374 [Eh]
	 Correlation Energy        =      -4.0907749511394114 [Eh]
	 Total Energy              =   -1331.9519536345496817 [Eh]

	 ================> DF-SCS-MP2 Energies <==================
	-----------------------------------------------------------
	 SCS Same-Spin Scale       =       0.3333333333333333 [-]
	 SCS Opposite-Spin Scale   =       1.2000000000000000 [-]
	 SCS Same-Spin Energy      =      -0.3382201325962912 [Eh]
	 SCS Opposite-Spin Energy  =      -3.6913374640206449 [Eh]
	 SCS Correlation Energy    =      -4.0295575966169359 [Eh]
	 SCS Total Energy          =   -1331.8907362800273404 [Eh]
	-----------------------------------------------------------

  Dipole Moment: [D]
     X:    -1.0351      Y:     2.0024      Z:     0.7340     Total:     2.3706

*** Psi4 exiting successfully. Buy a developer a beer!
