                               Psi4 1.4a3.dev225

  ==> Input File <==

--------------------------------------------------------------------------
#psi4
#
memory 32 gb

molecule  {
0 1
  P       -2.3219140    -1.0563120    -0.0968450
  O       -0.9888015    -0.5471466     0.7811438
  O        1.3695440    -1.8069540     1.2202350
  O       -0.1592450     2.1412630     0.5207450
  O        3.3269040    -2.0858120    -0.6453880
  O        2.5724350     2.5270130     0.6374560
  O        4.2203020     0.6406430    -0.6358120
  O       -2.8737010     0.2643620    -0.8096810
  O       -3.3065970    -1.3497020     1.1531960
  O       -2.1044560    -2.1814480    -1.0350500
  C        0.1200290    -0.1583450    -0.0432010
  C        1.0698050    -1.3527180    -0.1046720
  C        0.7441670     1.0454510     0.6308160
  C        2.4193320    -0.9866070    -0.7068450
  C        2.0603010     1.3853380    -0.0470020
  C        3.0180900     0.2181970     0.0056710
  C       -3.2473180     1.4231610     0.0025120
  C       -3.2076300     2.6262440    -0.9075720
  H       -0.2047330     0.1313700    -1.0514980
  H        0.5965010    -2.1549610    -0.6866410
  H        0.9371260     0.8063110     1.6860210
  H        2.3054700    -0.7437210    -1.7704410
  H        1.8633300     1.6367370    -1.1028410
  H        3.2142070    -0.0417910     1.0561650
  H        0.5126160    -2.0057500     1.6426110
  H        0.3598300     2.9232990     0.7925780
  H        3.1793900    -2.4823080     0.2360710
  H        3.4672560     2.6739710     0.2770410
  H        4.7639490    -0.1654590    -0.7244900
  H       -3.7873380    -2.1826420     0.9908450
  H       -4.2474700     1.2335250     0.4005830
  H       -2.5352900     1.5309660     0.8217280
  H       -3.5402110     3.5125760    -0.3587690
  H       -2.1856630     2.7912820    -1.2511950
  H       -3.8637180     2.4807570    -1.7684970
units angstrom
no_reorient  #important for SAPT in psi4, default
symmetry c1  #important for SAPT in psi4, default
}

set PROPERTIES_ORIGIN ["COM"]
properties('MP2/aug-cc-pvtz', properties = ['dipole'])
--------------------------------------------------------------------------

    Molecular point group: c1
  Charge       = 0
  Multiplicity = 1
  Basis Set: AUG-CC-PVTZ
    Blend: AUG-CC-PVTZ
  Basis Set: (AUG-CC-PVTZ AUX)
    Blend: AUG-CC-PVTZ-JKFIT

    Orbital Energies [Eh]
    ---------------------

    Doubly Occupied:

       1A    -80.123753     2A    -20.619181     3A    -20.607792
       4A    -20.600545     5A    -20.581802     6A    -20.576548
       7A    -20.573791     8A    -20.573381     9A    -20.572891
      10A    -20.527740    11A    -11.315756    12A    -11.302327
      13A    -11.298192    14A    -11.297985    15A    -11.297090
      16A    -11.295726    17A    -11.291142    18A    -11.224025
      19A     -7.638241    20A     -5.536764    21A     -5.536170
      22A     -5.535205    23A     -1.456294    24A     -1.410802
      25A     -1.394260    26A     -1.391692    27A     -1.388129
      28A     -1.370133    29A     -1.362350    30A     -1.352271
      31A     -1.307173    32A     -1.115055    33A     -1.037154
      34A     -1.006905    35A     -1.001256    36A     -0.875894
      37A     -0.863187    38A     -0.857595    39A     -0.824355
      40A     -0.808646    41A     -0.753369    42A     -0.744467
      43A     -0.728494    44A     -0.725512    45A     -0.704291
      46A     -0.686110    47A     -0.679320    48A     -0.673235
      49A     -0.661670    50A     -0.659557    51A     -0.640673
      52A     -0.636215    53A     -0.623369    54A     -0.613471
      55A     -0.602681    56A     -0.595100    57A     -0.581533
      58A     -0.575703    59A     -0.573098    60A     -0.558413
      61A     -0.554552    62A     -0.548139    63A     -0.539531
      64A     -0.536687    65A     -0.529118    66A     -0.515511
      67A     -0.508921    68A     -0.502675    69A     -0.495733
      70A     -0.486082    71A     -0.480859    72A     -0.478194
      73A     -0.460324    74A     -0.455466    75A     -0.448735
      76A     -0.434887

  @DF-RHF Final Energy: -1327.85572588168679

   => Energetics <=

    Nuclear Repulsion Energy =           1773.8327425115551250
    One-Electron Energy =               -5359.8951596906572377
    Two-Electron Energy =                2258.2066912974155457
    Total Energy =                      -1327.8557258816867943
  Basis Set: (AUG-CC-PVTZ AUX)
    Blend: AUG-CC-PVTZ-RI
    Molecular point group: c1

    Geometry (in Angstrom), charge = 0, multiplicity = 1:

       Center              X                  Y                   Z               Mass
    ------------   -----------------  -----------------  -----------------  -----------------
         P           -2.313361585487    -1.019376627430    -0.100744306768    30.973761998420
         O           -0.980249085487    -0.510211227430     0.777244493232    15.994914619570
         O            1.378096414513    -1.770018627430     1.216335693232    15.994914619570
         O           -0.150692585487     2.178198372570     0.516845693232    15.994914619570
         O            3.335456414513    -2.048876627430    -0.649287306768    15.994914619570
         O            2.580987414513     2.563948372570     0.633556693232    15.994914619570
         O            4.228854414513     0.677578372570    -0.639711306768    15.994914619570
         O           -2.865148585487     0.301297372570    -0.813580306768    15.994914619570
         O           -3.298044585487    -1.312766627430     1.149296693232    15.994914619570
         O           -2.095903585487    -2.144512627430    -1.038949306768    15.994914619570
         C            0.128581414513    -0.121409627430    -0.047100306768    12.000000000000
         C            1.078357414513    -1.315782627430    -0.108571306768    12.000000000000
         C            0.752719414513     1.082386372570     0.626916693232    12.000000000000
         C            2.427884414513    -0.949671627430    -0.710744306768    12.000000000000
         C            2.068853414513     1.422273372570    -0.050901306768    12.000000000000
         C            3.026642414513     0.255132372570     0.001771693232    12.000000000000
         C           -3.238765585487     1.460096372570    -0.001387306768    12.000000000000
         C           -3.199077585487     2.663179372570    -0.911471306768    12.000000000000
         H           -0.196180585487     0.168305372570    -1.055397306768     1.007825032230
         H            0.605053414513    -2.118025627430    -0.690540306768     1.007825032230
         H            0.945678414513     0.843246372570     1.682121693232     1.007825032230
         H            2.314022414513    -0.706785627430    -1.774340306768     1.007825032230
         H            1.871882414513     1.673672372570    -1.106740306768     1.007825032230
         H            3.222759414513    -0.004855627430     1.052265693232     1.007825032230
         H            0.521168414513    -1.968814627430     1.638711693232     1.007825032230
         H            0.368382414513     2.960234372570     0.788678693232     1.007825032230
         H            3.187942414513    -2.445372627430     0.232171693232     1.007825032230
         H            3.475808414513     2.710906372570     0.273141693232     1.007825032230
         H            4.772501414513    -0.128523627430    -0.728389306768     1.007825032230
         H           -3.778785585487    -2.145706627430     0.986945693232     1.007825032230
         H           -4.238917585487     1.270460372570     0.396683693232     1.007825032230
         H           -2.526737585487     1.567901372570     0.817828693232     1.007825032230
         H           -3.531658585487     3.549511372570    -0.362668306768     1.007825032230
         H           -2.177110585487     2.828217372570    -1.255094306768     1.007825032230
         H           -3.855165585487     2.517692372570    -1.772396306768     1.007825032230

  Basis Set: AUG-CC-PVTZ
    Blend: AUG-CC-PVTZ
  Basis Set: (AUG-CC-PVTZ AUX)
    Blend: AUG-CC-PVTZ-JKFIT
	 Reference Energy          =   -1327.8557258816867943 [Eh]
	 Singles Energy            =      -0.0000000000000000 [Eh]
	 Same-Spin Energy          =      -1.0155280793003536 [Eh]
	 Opposite-Spin Energy      =      -3.0783706213206186 [Eh]
	 Correlation Energy        =      -4.0938987006209722 [Eh]
	 Total Energy              =   -1331.9496245823077061 [Eh]

	 ================> DF-SCS-MP2 Energies <==================
	-----------------------------------------------------------
	 SCS Same-Spin Scale       =       0.3333333333333333 [-]
	 SCS Opposite-Spin Scale   =       1.2000000000000000 [-]
	 SCS Same-Spin Energy      =      -0.3385093597667845 [Eh]
	 SCS Opposite-Spin Energy  =      -3.6940447455847423 [Eh]
	 SCS Correlation Energy    =      -4.0325541053515268 [Eh]
	 SCS Total Energy          =   -1331.8882799870382314 [Eh]
	-----------------------------------------------------------

  Dipole Moment: [D]
     X:    -1.2530      Y:     1.3339      Z:     1.7934     Total:     2.5624

*** Psi4 exiting successfully. Buy a developer a beer!
