                               Psi4 1.3.2 release

  ==> Input File <==

--------------------------------------------------------------------------
#psi4
#
memory 32 gb

molecule  {
0 1
  P       -2.2900960    -0.9400430     0.3446780
  O       -0.9821530    -0.2015620     0.9382890
  O        1.3422500    -1.6754830     1.2308510
  O        0.0787050     2.3596040     0.4621680
  O        3.0685150    -2.1870720    -0.8085900
  O        2.8473350     2.5031130     0.3715350
  O        4.1956880     0.4353970    -0.9728740
  O       -2.8268630     0.0333510    -0.8075310
  O       -3.2591210    -0.7232820     1.6216710
  O       -2.1189930    -2.3436440    -0.0996680
  C        0.1181620     0.0300090     0.0163190
  C        0.9741969    -1.2309348    -0.0659023
  C        0.9198420     1.1871692     0.5670602
  C        2.2596600    -1.0143070    -0.8180370
  C        2.1770750     1.3964720    -0.2280410
  C        3.0258420     0.1487050    -0.2103220
  C       -3.1242130     1.4315980    -0.4888860
  C       -3.5363170     2.0851650    -1.7841190
  H       -0.2830920     0.2988010    -0.9702380
  H        0.3702690    -2.0293640    -0.5720320
  H        1.1571200     0.9978770     1.6121560
  H        2.0609340    -0.7886600    -1.8727560
  H        1.9169870     1.6362870    -1.2735830
  H        3.2958550    -0.0945320     0.8276460
  H        0.5217750    -1.8880320     1.7115100
  H        0.6655400     3.1093110     0.6831840
  H        2.9735430    -2.5473740     0.0946540
  H        3.7214290     2.5491860    -0.0588690
  H        4.6397270    -0.4238340    -1.0970870
  H       -3.8083950    -1.5223380     1.7347280
  H       -3.9305460     1.4455410     0.2493860
  H       -2.2297620     1.8928800    -0.0590960
  H       -3.8005210     3.1308820    -1.6026710
  H       -2.7171960     2.0533230    -2.5048750
  H       -4.4009440     1.5743230    -2.2127240
units angstrom
no_reorient  #important for SAPT in psi4, default
symmetry c1  #important for SAPT in psi4, default
}

set PROPERTIES_ORIGIN ["COM"]
properties('MP2/aug-cc-pvtz', properties = ['dipole'])
--------------------------------------------------------------------------

    Molecular point group: c1
  Charge       = 0
  Multiplicity = 1
  Basis Set: AUG-CC-PVTZ
    Blend: AUG-CC-PVTZ
  Basis Set: (AUG-CC-PVTZ AUX)
    Blend: AUG-CC-PVTZ-JKFIT

    Orbital Energies [Eh]
    ---------------------

    Doubly Occupied:

       1A    -80.117119     2A    -20.614836     3A    -20.607978
       4A    -20.598887     5A    -20.584168     6A    -20.577367
       7A    -20.575353     8A    -20.574313     9A    -20.570624
      10A    -20.523318    11A    -11.321445    12A    -11.304105
      13A    -11.299359    14A    -11.299030    15A    -11.298153
      16A    -11.297182    17A    -11.291734    18A    -11.229597
      19A     -7.632555    20A     -5.531060    21A     -5.530693
      22A     -5.529482    23A     -1.460454    24A     -1.412189
      25A     -1.395232    26A     -1.392157    27A     -1.386727
      28A     -1.372625    29A     -1.361508    30A     -1.352190
      31A     -1.303684    32A     -1.122826    33A     -1.040213
      34A     -1.012511    35A     -1.006411    36A     -0.880738
      37A     -0.864941    38A     -0.858021    39A     -0.822676
      40A     -0.813140    41A     -0.751829    42A     -0.745597
      43A     -0.730452    44A     -0.728408    45A     -0.708559
      46A     -0.685058    47A     -0.680262    48A     -0.673535
      49A     -0.662305    50A     -0.661458    51A     -0.642308
      52A     -0.634281    53A     -0.627767    54A     -0.615778
      55A     -0.603395    56A     -0.597821    57A     -0.579959
      58A     -0.575517    59A     -0.571409    60A     -0.558273
      61A     -0.555920    62A     -0.548227    63A     -0.541043
      64A     -0.536089    65A     -0.530607    66A     -0.523135
      67A     -0.513589    68A     -0.505206    69A     -0.497071
      70A     -0.486869    71A     -0.479518    72A     -0.476570
      73A     -0.465359    74A     -0.456234    75A     -0.450171
      76A     -0.433950

  @DF-RHF Final Energy: -1327.85928903325907

   => Energetics <=

    Nuclear Repulsion Energy =           1772.7588844306205829
    One-Electron Energy =               -5357.6360950673742991
    Two-Electron Energy =                2257.0179216034948695
    Total Energy =                      -1327.8592890332588468
  Basis Set: (AUG-CC-PVTZ AUX)
    Blend: AUG-CC-PVTZ-RI
    Molecular point group: c1

    Geometry (in Angstrom), charge = 0, multiplicity = 1:

       Center              X                  Y                   Z               Mass
    ------------   -----------------  -----------------  -----------------  -----------------
         P           -2.291852174241    -0.939951143451     0.344176767798    30.973761998420
         O           -0.983909174241    -0.201470143451     0.937787767798    15.994914619570
         O            1.340493825759    -1.675391143451     1.230349767798    15.994914619570
         O            0.076948825759     2.359695856549     0.461666767798    15.994914619570
         O            3.066758825759    -2.186980143451    -0.809091232202    15.994914619570
         O            2.845578825759     2.503204856549     0.371033767798    15.994914619570
         O            4.193931825759     0.435488856549    -0.973375232202    15.994914619570
         O           -2.828619174241     0.033442856549    -0.808032232202    15.994914619570
         O           -3.260877174241    -0.723190143451     1.621169767798    15.994914619570
         O           -2.120749174241    -2.343552143451    -0.100169232202    15.994914619570
         C            0.116405825759     0.030100856549     0.015817767798    12.000000000000
         C            0.972440725759    -1.230842943451    -0.066403532202    12.000000000000
         C            0.918085825759     1.187261056549     0.566558967798    12.000000000000
         C            2.257903825759    -1.014215143451    -0.818538232202    12.000000000000
         C            2.175318825759     1.396563856549    -0.228542232202    12.000000000000
         C            3.024085825759     0.148796856549    -0.210823232202    12.000000000000
         C           -3.125969174241     1.431689856549    -0.489387232202    12.000000000000
         C           -3.538073174241     2.085256856549    -1.784620232202    12.000000000000
         H           -0.284848174241     0.298892856549    -0.970739232202     1.007825032230
         H            0.368512825759    -2.029272143451    -0.572533232202     1.007825032230
         H            1.155363825759     0.997968856549     1.611654767798     1.007825032230
         H            2.059177825759    -0.788568143451    -1.873257232202     1.007825032230
         H            1.915230825759     1.636378856549    -1.274084232202     1.007825032230
         H            3.294098825759    -0.094440143451     0.827144767798     1.007825032230
         H            0.520018825759    -1.887940143451     1.711008767798     1.007825032230
         H            0.663783825759     3.109402856549     0.682682767798     1.007825032230
         H            2.971786825759    -2.547282143451     0.094152767798     1.007825032230
         H            3.719672825759     2.549277856549    -0.059370232202     1.007825032230
         H            4.637970825759    -0.423742143451    -1.097588232202     1.007825032230
         H           -3.810151174241    -1.522246143451     1.734226767798     1.007825032230
         H           -3.932302174241     1.445632856549     0.248884767798     1.007825032230
         H           -2.231518174241     1.892971856549    -0.059597232202     1.007825032230
         H           -3.802277174241     3.130973856549    -1.603172232202     1.007825032230
         H           -2.718952174241     2.053414856549    -2.505376232202     1.007825032230
         H           -4.402700174241     1.574414856549    -2.213225232202     1.007825032230

  Basis Set: AUG-CC-PVTZ
    Blend: AUG-CC-PVTZ
  Basis Set: (AUG-CC-PVTZ AUX)
    Blend: AUG-CC-PVTZ-JKFIT
	 Reference Energy          =   -1327.8592890332590741 [Eh]
	 Singles Energy            =      -0.0000000000000000 [Eh]
	 Same-Spin Energy          =      -1.0149128235156530 [Eh]
	 Opposite-Spin Energy      =      -3.0766179556122877 [Eh]
	 Correlation Energy        =      -4.0915307791279405 [Eh]
	 Total Energy              =   -1331.9508198123869533 [Eh]

	 ================> DF-SCS-MP2 Energies <==================
	-----------------------------------------------------------
	 SCS Same-Spin Scale       =       0.3333333333333333 [-]
	 SCS Opposite-Spin Scale   =       1.2000000000000000 [-]
	 SCS Same-Spin Energy      =      -0.3383042745052177 [Eh]
	 SCS Opposite-Spin Energy  =      -3.6919415467347449 [Eh]
	 SCS Correlation Energy    =      -4.0302458212399630 [Eh]
	 SCS Total Energy          =   -1331.8895348544990611 [Eh]
	-----------------------------------------------------------

  Dipole Moment: [D]
     X:    -1.0512      Y:     1.8002      Z:     0.7450     Total:     2.2138

*** Psi4 exiting successfully. Buy a developer a beer!
