                               Psi4 1.3.2 release

  ==> Input File <==

--------------------------------------------------------------------------
#psi4
#
memory 32 gb

molecule  {
0 1
  P       -2.2900960    -0.9400430     0.3446780
  O       -0.9821530    -0.2015620     0.9382890
  O        1.3422500    -1.6754830     1.2308510
  O        0.0787050     2.3596040     0.4621680
  O        3.0685150    -2.1870720    -0.8085900
  O        2.8473350     2.5031130     0.3715350
  O        4.1956880     0.4353970    -0.9728740
  O       -2.8268630     0.0333510    -0.8075310
  O       -3.2591210    -0.7232820     1.6216710
  O       -2.1189930    -2.3436440    -0.0996680
  C        0.1181620     0.0300090     0.0163190
  C        0.9532920    -1.2442050    -0.0757250
  C        0.8985890     1.2026440     0.5648510
  C        2.2596600    -1.0143070    -0.8180370
  C        2.1770750     1.3964720    -0.2280410
  C        3.0258420     0.1487050    -0.2103220
  C       -3.1445155     1.5270677    -0.4671295
  C       -3.5363170     2.0851650    -1.7841190
  H       -0.2830920     0.2988010    -0.9702380
  H        0.3702690    -2.0293640    -0.5720320
  H        1.1571200     0.9978770     1.6121560
  H        2.0609340    -0.7886600    -1.8727560
  H        1.9169870     1.6362870    -1.2735830
  H        3.2958550    -0.0945320     0.8276460
  H        0.5217750    -1.8880320     1.7115100
  H        0.6655400     3.1093110     0.6831840
  H        2.9735430    -2.5473740     0.0946540
  H        3.7214290     2.5491860    -0.0588690
  H        4.6397270    -0.4238340    -1.0970870
  H       -3.8083950    -1.5223380     1.7347280
  H       -3.9305460     1.4455410     0.2493860
  H       -2.2297620     1.8928800    -0.0590960
  H       -3.8005210     3.1308820    -1.6026710
  H       -2.7171960     2.0533230    -2.5048750
  H       -4.4009440     1.5743230    -2.2127240
units angstrom
no_reorient  #important for SAPT in psi4, default
symmetry c1  #important for SAPT in psi4, default
}

set PROPERTIES_ORIGIN ["COM"]
properties('MP2/aug-cc-pvtz', properties = ['dipole'])
--------------------------------------------------------------------------

    Molecular point group: c1
  Charge       = 0
  Multiplicity = 1
  Basis Set: AUG-CC-PVTZ
    Blend: AUG-CC-PVTZ
  Basis Set: (AUG-CC-PVTZ AUX)
    Blend: AUG-CC-PVTZ-JKFIT

    Orbital Energies [Eh]
    ---------------------

    Doubly Occupied:

       1A    -80.109491     2A    -20.610710     3A    -20.603184
       4A    -20.585676     5A    -20.581501     6A    -20.576449
       7A    -20.574003     8A    -20.573561     9A    -20.573467
      10A    -20.517727    11A    -11.318635    12A    -11.305733
      13A    -11.301783    14A    -11.298196    15A    -11.297916
      16A    -11.296139    17A    -11.290693    18A    -11.234709
      19A     -7.624962    20A     -5.523539    21A     -5.523036
      22A     -5.521887    23A     -1.452057    24A     -1.408446
      25A     -1.393310    26A     -1.391375    27A     -1.373501
      28A     -1.363408    29A     -1.360726    30A     -1.352743
      31A     -1.297059    32A     -1.117821    33A     -1.052681
      34A     -1.010687    35A     -1.002435    36A     -0.877600
      37A     -0.867654    38A     -0.857994    39A     -0.818299
      40A     -0.808809    41A     -0.750764    42A     -0.742609
      43A     -0.728273    44A     -0.717657    45A     -0.704778
      46A     -0.686134    47A     -0.677725    48A     -0.672674
      49A     -0.661871    50A     -0.660933    51A     -0.641501
      52A     -0.633730    53A     -0.622874    54A     -0.607805
      55A     -0.602877    56A     -0.597724    57A     -0.580787
      58A     -0.571947    59A     -0.569600    60A     -0.560355
      61A     -0.557082    62A     -0.545880    63A     -0.537851
      64A     -0.534592    65A     -0.531226    66A     -0.521227
      67A     -0.516382    68A     -0.503925    69A     -0.500735
      70A     -0.487247    71A     -0.479473    72A     -0.470091
      73A     -0.460618    74A     -0.455444    75A     -0.448421
      76A     -0.435030

  @DF-RHF Final Energy: -1327.85338324603595

   => Energetics <=

    Nuclear Repulsion Energy =           1770.3799629309894499
    One-Electron Energy =               -5353.2118095734804228
    Two-Electron Energy =                2254.9784633964550267
    Total Energy =                      -1327.8533832460357189
  Basis Set: (AUG-CC-PVTZ AUX)
    Blend: AUG-CC-PVTZ-RI
    Molecular point group: c1

    Geometry (in Angstrom), charge = 0, multiplicity = 1:

       Center              X                  Y                   Z               Mass
    ------------   -----------------  -----------------  -----------------  -----------------
         P           -2.289250208858    -0.944020043865     0.343771661962    30.973761998420
         O           -0.981307208858    -0.205539043865     0.937382661962    15.994914619570
         O            1.343095791142    -1.679460043865     1.229944661962    15.994914619570
         O            0.079550791142     2.355626956135     0.461261661962    15.994914619570
         O            3.069360791142    -2.191049043865    -0.809496338038    15.994914619570
         O            2.848180791142     2.499135956135     0.370628661962    15.994914619570
         O            4.196533791142     0.431419956135    -0.973780338038    15.994914619570
         O           -2.826017208858     0.029373956135    -0.808437338038    15.994914619570
         O           -3.258275208858    -0.727259043865     1.620764661962    15.994914619570
         O           -2.118147208858    -2.347621043865    -0.100574338038    15.994914619570
         C            0.119007791142     0.026031956135     0.015412661962    12.000000000000
         C            0.954137791142    -1.248182043865    -0.076631338038    12.000000000000
         C            0.899434791142     1.198666956135     0.563944661962    12.000000000000
         C            2.260505791142    -1.018284043865    -0.818943338038    12.000000000000
         C            2.177920791142     1.392494956135    -0.228947338038    12.000000000000
         C            3.026687791142     0.144727956135    -0.211228338038    12.000000000000
         C           -3.143669708858     1.523090656135    -0.468035838038    12.000000000000
         C           -3.535471208858     2.081187956135    -1.785025338038    12.000000000000
         H           -0.282246208858     0.294823956135    -0.971144338038     1.007825032230
         H            0.371114791142    -2.033341043865    -0.572938338038     1.007825032230
         H            1.157965791142     0.993899956135     1.611249661962     1.007825032230
         H            2.061779791142    -0.792637043865    -1.873662338038     1.007825032230
         H            1.917832791142     1.632309956135    -1.274489338038     1.007825032230
         H            3.296700791142    -0.098509043865     0.826739661962     1.007825032230
         H            0.522620791142    -1.892009043865     1.710603661962     1.007825032230
         H            0.666385791142     3.105333956135     0.682277661962     1.007825032230
         H            2.974388791142    -2.551351043865     0.093747661962     1.007825032230
         H            3.722274791142     2.545208956135    -0.059775338038     1.007825032230
         H            4.640572791142    -0.427811043865    -1.097993338038     1.007825032230
         H           -3.807549208858    -1.526315043865     1.733821661962     1.007825032230
         H           -3.929700208858     1.441563956135     0.248479661962     1.007825032230
         H           -2.228916208858     1.888902956135    -0.060002338038     1.007825032230
         H           -3.799675208858     3.126904956135    -1.603577338038     1.007825032230
         H           -2.716350208858     2.049345956135    -2.505781338038     1.007825032230
         H           -4.400098208858     1.570345956135    -2.213630338038     1.007825032230

  Basis Set: AUG-CC-PVTZ
    Blend: AUG-CC-PVTZ
  Basis Set: (AUG-CC-PVTZ AUX)
    Blend: AUG-CC-PVTZ-JKFIT
	 Reference Energy          =   -1327.8533832460359463 [Eh]
	 Singles Energy            =      -0.0000000000000000 [Eh]
	 Same-Spin Energy          =      -1.0148571820670640 [Eh]
	 Opposite-Spin Energy      =      -3.0771604405586772 [Eh]
	 Correlation Energy        =      -4.0920176226257414 [Eh]
	 Total Energy              =   -1331.9454008686616362 [Eh]

	 ================> DF-SCS-MP2 Energies <==================
	-----------------------------------------------------------
	 SCS Same-Spin Scale       =       0.3333333333333333 [-]
	 SCS Opposite-Spin Scale   =       1.2000000000000000 [-]
	 SCS Same-Spin Energy      =      -0.3382857273556880 [Eh]
	 SCS Opposite-Spin Energy  =      -3.6925925286704127 [Eh]
	 SCS Correlation Energy    =      -4.0308782560261003 [Eh]
	 SCS Total Energy          =   -1331.8842615020621452 [Eh]
	-----------------------------------------------------------

  Dipole Moment: [D]
     X:    -1.3080      Y:     2.2888      Z:     0.6323     Total:     2.7109

*** Psi4 exiting successfully. Buy a developer a beer!
