                               Psi4 1.3.2 release

  ==> Input File <==

--------------------------------------------------------------------------
#psi4
#
memory 32 gb

molecule  {
0 1
  P       -2.2900960    -0.9400430     0.3446780
  O       -0.9821530    -0.2015620     0.9382890
  O        1.3422500    -1.6754830     1.2308510
  O        0.0787050     2.3596040     0.4621680
  O        3.0685150    -2.1870720    -0.8085900
  O        2.8473350     2.5031130     0.3715350
  O        4.1956880     0.4353970    -0.9728740
  O       -2.8268630     0.0333510    -0.8075310
  O       -3.2591210    -0.7232820     1.6216710
  O       -2.1189930    -2.3436440    -0.0996680
  C        0.1181620     0.0300090     0.0163190
  C        0.9532920    -1.2442050    -0.0757250
  C        0.9130275     1.1977530     0.5864946
  C        2.2596600    -1.0143070    -0.8180370
  C        2.1770750     1.3964720    -0.2280410
  C        3.0258420     0.1487050    -0.2103220
  C       -3.1242130     1.4315980    -0.4888860
  C       -3.5363170     2.0851650    -1.7841190
  H       -0.2830920     0.2988010    -0.9702380
  H        0.3702690    -2.0293640    -0.5720320
  H        1.1571200     0.9978770     1.6121560
  H        2.0609340    -0.7886600    -1.8727560
  H        1.9357471     1.6374178    -1.2778129
  H        3.2958550    -0.0945320     0.8276460
  H        0.5217750    -1.8880320     1.7115100
  H        0.6655400     3.1093110     0.6831840
  H        2.9735430    -2.5473740     0.0946540
  H        3.7214290     2.5491860    -0.0588690
  H        4.6397270    -0.4238340    -1.0970870
  H       -3.8083950    -1.5223380     1.7347280
  H       -3.9305460     1.4455410     0.2493860
  H       -2.2297620     1.8928800    -0.0590960
  H       -3.8005210     3.1308820    -1.6026710
  H       -2.7171960     2.0533230    -2.5048750
  H       -4.4009440     1.5743230    -2.2127240
units angstrom
no_reorient  #important for SAPT in psi4, default
symmetry c1  #important for SAPT in psi4, default
}

set PROPERTIES_ORIGIN ["COM"]
properties('MP2/aug-cc-pvtz', properties = ['dipole'])
--------------------------------------------------------------------------

    Molecular point group: c1
  Charge       = 0
  Multiplicity = 1
  Basis Set: AUG-CC-PVTZ
    Blend: AUG-CC-PVTZ
  Basis Set: (AUG-CC-PVTZ AUX)
    Blend: AUG-CC-PVTZ-JKFIT

    Orbital Energies [Eh]
    ---------------------

    Doubly Occupied:

       1A    -80.116851     2A    -20.614667     3A    -20.606899
       4A    -20.598851     5A    -20.583375     6A    -20.576323
       7A    -20.574673     8A    -20.574210     9A    -20.572338
      10A    -20.523385    11A    -11.321225    12A    -11.303177
      13A    -11.299404    14A    -11.299159    15A    -11.298378
      16A    -11.296886    17A    -11.291255    18A    -11.229691
      19A     -7.632304    20A     -5.530812    21A     -5.530436
      22A     -5.529235    23A     -1.460135    24A     -1.410497
      25A     -1.394632    26A     -1.391753    27A     -1.386693
      28A     -1.371896    29A     -1.362267    30A     -1.353018
      31A     -1.303769    32A     -1.118491    33A     -1.040273
      34A     -1.011343    35A     -1.003530    36A     -0.879903
      37A     -0.864661    38A     -0.859856    39A     -0.821749
      40A     -0.812053    41A     -0.750984    42A     -0.745524
      43A     -0.731496    44A     -0.728227    45A     -0.707661
      46A     -0.686132    47A     -0.678235    48A     -0.673590
      49A     -0.662145    50A     -0.660757    51A     -0.642970
      52A     -0.633990    53A     -0.627146    54A     -0.615260
      55A     -0.604489    56A     -0.597530    57A     -0.580410
      58A     -0.575470    59A     -0.571052    60A     -0.558984
      61A     -0.556361    62A     -0.548259    63A     -0.541093
      64A     -0.536229    65A     -0.529893    66A     -0.521408
      67A     -0.513158    68A     -0.504653    69A     -0.497104
      70A     -0.485611    71A     -0.479657    72A     -0.476515
      73A     -0.464557    74A     -0.455045    75A     -0.451186
      76A     -0.436139

  @DF-RHF Final Energy: -1327.86039290465123

   => Energetics <=

    Nuclear Repulsion Energy =           1772.1407490327328560
    One-Electron Energy =               -5356.4443349833236425
    Two-Electron Energy =                2256.4431930459395517
    Total Energy =                      -1327.8603929046512349
  Basis Set: (AUG-CC-PVTZ AUX)
    Blend: AUG-CC-PVTZ-RI
    Molecular point group: c1

    Geometry (in Angstrom), charge = 0, multiplicity = 1:

       Center              X                  Y                   Z               Mass
    ------------   -----------------  -----------------  -----------------  -----------------
         P           -2.290763078943    -0.939843190103     0.343791164077    30.973761998420
         O           -0.982820078943    -0.201362190103     0.937402164077    15.994914619570
         O            1.341582921057    -1.675283190103     1.229964164077    15.994914619570
         O            0.078037921057     2.359803809897     0.461281164077    15.994914619570
         O            3.067847921057    -2.186872190103    -0.809476835923    15.994914619570
         O            2.846667921057     2.503312809897     0.370648164077    15.994914619570
         O            4.195020921057     0.435596809897    -0.973760835923    15.994914619570
         O           -2.827530078943     0.033550809897    -0.808417835923    15.994914619570
         O           -3.259788078943    -0.723082190103     1.620784164077    15.994914619570
         O           -2.119660078943    -2.343444190103    -0.100554835923    15.994914619570
         C            0.117494921057     0.030208809897     0.015432164077    12.000000000000
         C            0.952624921057    -1.244005190103    -0.076611835923    12.000000000000
         C            0.912360421057     1.197952809897     0.585607764077    12.000000000000
         C            2.258992921057    -1.014107190103    -0.818923835923    12.000000000000
         C            2.176407921057     1.396671809897    -0.228927835923    12.000000000000
         C            3.025174921057     0.148904809897    -0.211208835923    12.000000000000
         C           -3.124880078943     1.431797809897    -0.489772835923    12.000000000000
         C           -3.536984078943     2.085364809897    -1.785005835923    12.000000000000
         H           -0.283759078943     0.299000809897    -0.971124835923     1.007825032230
         H            0.369601921057    -2.029164190103    -0.572918835923     1.007825032230
         H            1.156452921057     0.998076809897     1.611269164077     1.007825032230
         H            2.060266921057    -0.788460190103    -1.873642835923     1.007825032230
         H            1.935080021057     1.637617609897    -1.278699735923     1.007825032230
         H            3.295187921057    -0.094332190103     0.826759164077     1.007825032230
         H            0.521107921057    -1.887832190103     1.710623164077     1.007825032230
         H            0.664872921057     3.109510809897     0.682297164077     1.007825032230
         H            2.972875921057    -2.547174190103     0.093767164077     1.007825032230
         H            3.720761921057     2.549385809897    -0.059755835923     1.007825032230
         H            4.639059921057    -0.423634190103    -1.097973835923     1.007825032230
         H           -3.809062078943    -1.522138190103     1.733841164077     1.007825032230
         H           -3.931213078943     1.445740809897     0.248499164077     1.007825032230
         H           -2.230429078943     1.893079809897    -0.059982835923     1.007825032230
         H           -3.801188078943     3.131081809897    -1.603557835923     1.007825032230
         H           -2.717863078943     2.053522809897    -2.505761835923     1.007825032230
         H           -4.401611078943     1.574522809897    -2.213610835923     1.007825032230

  Basis Set: AUG-CC-PVTZ
    Blend: AUG-CC-PVTZ
  Basis Set: (AUG-CC-PVTZ AUX)
    Blend: AUG-CC-PVTZ-JKFIT
	 Reference Energy          =   -1327.8603929046512349 [Eh]
	 Singles Energy            =      -0.0000000000000000 [Eh]
	 Same-Spin Energy          =      -1.0145511818720785 [Eh]
	 Opposite-Spin Energy      =      -3.0763067974436504 [Eh]
	 Correlation Energy        =      -4.0908579793157287 [Eh]
	 Total Energy              =   -1331.9512508839670772 [Eh]

	 ================> DF-SCS-MP2 Energies <==================
	-----------------------------------------------------------
	 SCS Same-Spin Scale       =       0.3333333333333333 [-]
	 SCS Opposite-Spin Scale   =       1.2000000000000000 [-]
	 SCS Same-Spin Energy      =      -0.3381837272906928 [Eh]
	 SCS Opposite-Spin Energy  =      -3.6915681569323802 [Eh]
	 SCS Correlation Energy    =      -4.0297518842230726 [Eh]
	 SCS Total Energy          =   -1331.8901447888742950 [Eh]
	-----------------------------------------------------------

  Dipole Moment: [D]
     X:    -1.0865      Y:     1.8346      Z:     0.7383     Total:     2.2564

*** Psi4 exiting successfully. Buy a developer a beer!
