                               Psi4 1.3.2 release

  ==> Input File <==

--------------------------------------------------------------------------
#psi4
#
memory 32 gb

molecule  {
0 1
  P       -2.2900960    -0.9400430     0.3446780
  O       -0.9821530    -0.2015620     0.9382890
  O        1.3422500    -1.6754830     1.2308510
  O        0.0787050     2.3596040     0.4621680
  O        3.0685150    -2.1870720    -0.8085900
  O        2.8473350     2.5031130     0.3715350
  O        4.1956880     0.4353970    -0.9728740
  O       -2.8268630     0.0333510    -0.8075310
  O       -3.2591210    -0.7232820     1.6216710
  O       -2.1189930    -2.3436440    -0.0996680
  C        0.1181620     0.0300090     0.0163190
  C        0.9532920    -1.2442050    -0.0757250
  C        0.9177782     1.2170663     0.5711345
  C        2.2596600    -1.0143070    -0.8180370
  C        2.1770750     1.3964720    -0.2280410
  C        3.0258420     0.1487050    -0.2103220
  C       -3.1242130     1.4315980    -0.4888860
  C       -3.5363170     2.0851650    -1.7841190
  H       -0.2830920     0.2988010    -0.9702380
  H        0.3702690    -2.0293640    -0.5720320
  H        1.1571200     0.9978770     1.6121560
  H        2.0609340    -0.7886600    -1.8727560
  H        1.9169870     1.6362870    -1.2735830
  H        3.2958550    -0.0945320     0.8276460
  H        0.5217750    -1.8880320     1.7115100
  H        0.6784187     3.0983615     0.6854724
  H        2.9735430    -2.5473740     0.0946540
  H        3.7214290     2.5491860    -0.0588690
  H        4.6397270    -0.4238340    -1.0970870
  H       -3.8083950    -1.5223380     1.7347280
  H       -3.9305460     1.4455410     0.2493860
  H       -2.2297620     1.8928800    -0.0590960
  H       -3.8005210     3.1308820    -1.6026710
  H       -2.7171960     2.0533230    -2.5048750
  H       -4.4009440     1.5743230    -2.2127240
units angstrom
no_reorient  #important for SAPT in psi4, default
symmetry c1  #important for SAPT in psi4, default
}

set PROPERTIES_ORIGIN ["COM"]
properties('MP2/aug-cc-pvtz', properties = ['dipole'])
--------------------------------------------------------------------------

    Molecular point group: c1
  Charge       = 0
  Multiplicity = 1
  Basis Set: AUG-CC-PVTZ
    Blend: AUG-CC-PVTZ
  Basis Set: (AUG-CC-PVTZ AUX)
    Blend: AUG-CC-PVTZ-JKFIT

    Orbital Energies [Eh]
    ---------------------

    Doubly Occupied:

       1A    -80.116816     2A    -20.614625     3A    -20.606876
       4A    -20.598805     5A    -20.582893     6A    -20.577045
       7A    -20.574613     8A    -20.574561     9A    -20.574468
      10A    -20.523265    11A    -11.320919    12A    -11.302844
      13A    -11.299346    14A    -11.299340    15A    -11.298428
      16A    -11.296452    17A    -11.292013    18A    -11.229798
      19A     -7.632258    20A     -5.530764    21A     -5.530393
      22A     -5.529189    23A     -1.459959    24A     -1.410882
      25A     -1.395226    26A     -1.393284    27A     -1.386746
      28A     -1.373160    29A     -1.364373    30A     -1.354244
      31A     -1.303646    32A     -1.118094    33A     -1.040369
      34A     -1.010719    35A     -1.003763    36A     -0.880837
      37A     -0.865027    38A     -0.858483    39A     -0.822204
      40A     -0.810954    41A     -0.751678    42A     -0.745430
      43A     -0.731234    44A     -0.728041    45A     -0.707520
      46A     -0.687054    47A     -0.677944    48A     -0.673737
      49A     -0.663111    50A     -0.660951    51A     -0.643353
      52A     -0.634835    53A     -0.627274    54A     -0.615375
      55A     -0.604466    56A     -0.598532    57A     -0.580810
      58A     -0.575512    59A     -0.571172    60A     -0.560083
      61A     -0.556584    62A     -0.548489    63A     -0.541121
      64A     -0.536551    65A     -0.529868    66A     -0.520951
      67A     -0.513320    68A     -0.504460    69A     -0.496556
      70A     -0.484634    71A     -0.479625    72A     -0.476443
      73A     -0.464600    74A     -0.456663    75A     -0.449982
      76A     -0.436008

  @DF-RHF Final Energy: -1327.86046772788745

   => Energetics <=

    Nuclear Repulsion Energy =           1772.1985005865217317
    One-Electron Energy =               -5356.5346426255609913
    Two-Electron Energy =                2256.4756743111520336
    Total Energy =                      -1327.8604677278872259
  Basis Set: (AUG-CC-PVTZ AUX)
    Blend: AUG-CC-PVTZ-RI
    Molecular point group: c1

    Geometry (in Angstrom), charge = 0, multiplicity = 1:

       Center              X                  Y                   Z               Mass
    ------------   -----------------  -----------------  -----------------  -----------------
         P           -2.290940405879    -0.940605475718     0.344408227415    30.973761998420
         O           -0.982997405879    -0.202124475718     0.938019227415    15.994914619570
         O            1.341405594121    -1.676045475718     1.230581227415    15.994914619570
         O            0.077860594121     2.359041524282     0.461898227415    15.994914619570
         O            3.067670594121    -2.187634475718    -0.808859772585    15.994914619570
         O            2.846490594121     2.502550524282     0.371265227415    15.994914619570
         O            4.194843594121     0.434834524282    -0.973143772585    15.994914619570
         O           -2.827707405879     0.032788524282    -0.807800772585    15.994914619570
         O           -3.259965405879    -0.723844475718     1.621401227415    15.994914619570
         O           -2.119837405879    -2.344206475718    -0.099937772585    15.994914619570
         C            0.117317594121     0.029446524282     0.016049227415    12.000000000000
         C            0.952447594121    -1.244767475718    -0.075994772585    12.000000000000
         C            0.916933794121     1.216503824282     0.570864727415    12.000000000000
         C            2.258815594121    -1.014869475718    -0.818306772585    12.000000000000
         C            2.176230594121     1.395909524282    -0.228310772585    12.000000000000
         C            3.024997594121     0.148142524282    -0.210591772585    12.000000000000
         C           -3.125057405879     1.431035524282    -0.489155772585    12.000000000000
         C           -3.537161405879     2.084602524282    -1.784388772585    12.000000000000
         H           -0.283936405879     0.298238524282    -0.970507772585     1.007825032230
         H            0.369424594121    -2.029926475718    -0.572301772585     1.007825032230
         H            1.156275594121     0.997314524282     1.611886227415     1.007825032230
         H            2.060089594121    -0.789222475718    -1.873025772585     1.007825032230
         H            1.916142594121     1.635724524282    -1.273852772585     1.007825032230
         H            3.295010594121    -0.095094475718     0.827376227415     1.007825032230
         H            0.520930594121    -1.888594475718     1.711240227415     1.007825032230
         H            0.677574294121     3.097799024282     0.685202627415     1.007825032230
         H            2.972698594121    -2.547936475718     0.094384227415     1.007825032230
         H            3.720584594121     2.548623524282    -0.059138772585     1.007825032230
         H            4.638882594121    -0.424396475718    -1.097356772585     1.007825032230
         H           -3.809239405879    -1.522900475718     1.734458227415     1.007825032230
         H           -3.931390405879     1.444978524282     0.249116227415     1.007825032230
         H           -2.230606405879     1.892317524282    -0.059365772585     1.007825032230
         H           -3.801365405879     3.130319524282    -1.602940772585     1.007825032230
         H           -2.718040405879     2.052760524282    -2.505144772585     1.007825032230
         H           -4.401788405879     1.573760524282    -2.212993772585     1.007825032230

  Basis Set: AUG-CC-PVTZ
    Blend: AUG-CC-PVTZ
  Basis Set: (AUG-CC-PVTZ AUX)
    Blend: AUG-CC-PVTZ-JKFIT
	 Reference Energy          =   -1327.8604677278874533 [Eh]
	 Singles Energy            =      -0.0000000000000000 [Eh]
	 Same-Spin Energy          =      -1.0146594650709970 [Eh]
	 Opposite-Spin Energy      =      -3.0762915652886593 [Eh]
	 Correlation Energy        =      -4.0909510303596566 [Eh]
	 Total Energy              =   -1331.9514187582472005 [Eh]

	 ================> DF-SCS-MP2 Energies <==================
	-----------------------------------------------------------
	 SCS Same-Spin Scale       =       0.3333333333333333 [-]
	 SCS Opposite-Spin Scale   =       1.2000000000000000 [-]
	 SCS Same-Spin Energy      =      -0.3382198216903323 [Eh]
	 SCS Opposite-Spin Energy  =      -3.6915498783463909 [Eh]
	 SCS Correlation Energy    =      -4.0297697000367236 [Eh]
	 SCS Total Energy          =   -1331.8902374279241485 [Eh]
	-----------------------------------------------------------

  Dipole Moment: [D]
     X:    -1.0835      Y:     1.8632      Z:     0.7232     Total:     2.2734

*** Psi4 exiting successfully. Buy a developer a beer!
