                               Psi4 1.3.2 release

  ==> Input File <==

--------------------------------------------------------------------------
#psi4
#
memory 32 gb

molecule  {
0 1
  P       -2.2900960    -0.9400430     0.3446780
  O       -0.9821530    -0.2015620     0.9382890
  O        1.3422500    -1.6754830     1.2308510
  O        0.0787050     2.3596040     0.4621680
  O        3.0685150    -2.1870720    -0.8085900
  O        2.8473350     2.5031130     0.3715350
  O        4.1956880     0.4353970    -0.9728740
  O       -2.8268630     0.0333510    -0.8075310
  O       -3.2591210    -0.7232820     1.6216710
  O       -2.1189930    -2.3436440    -0.0996680
  C        0.1181620     0.0300090     0.0163190
  C        0.9532920    -1.2442050    -0.0757250
  C        0.8985890     1.2026440     0.5648510
  C        2.2596600    -1.0143070    -0.8180370
  C        2.1743093     1.3927336    -0.2805132
  C        3.0258420     0.1487050    -0.2103220
  C       -3.1242130     1.4315980    -0.4888860
  C       -3.5363170     2.0851650    -1.7841190
  H       -0.2830920     0.2988010    -0.9702380
  H        0.3702690    -2.0293640    -0.5720320
  H        1.1571200     0.9978770     1.6121560
  H        2.0609340    -0.7886600    -1.8727560
  H        1.9169870     1.6362870    -1.2735830
  H        3.3152571    -0.1250367     0.8147406
  H        0.5217750    -1.8880320     1.7115100
  H        0.6655400     3.1093110     0.6831840
  H        2.9735430    -2.5473740     0.0946540
  H        3.7214290     2.5491860    -0.0588690
  H        4.6397270    -0.4238340    -1.0970870
  H       -3.8083950    -1.5223380     1.7347280
  H       -3.9305460     1.4455410     0.2493860
  H       -2.2297620     1.8928800    -0.0590960
  H       -3.8005210     3.1308820    -1.6026710
  H       -2.7171960     2.0533230    -2.5048750
  H       -4.4009440     1.5743230    -2.2127240
units angstrom
no_reorient  #important for SAPT in psi4, default
symmetry c1  #important for SAPT in psi4, default
}

set PROPERTIES_ORIGIN ["COM"]
properties('MP2/aug-cc-pvtz', properties = ['dipole'])
--------------------------------------------------------------------------

    Molecular point group: c1
  Charge       = 0
  Multiplicity = 1
  Basis Set: AUG-CC-PVTZ
    Blend: AUG-CC-PVTZ
  Basis Set: (AUG-CC-PVTZ AUX)
    Blend: AUG-CC-PVTZ-JKFIT

    Orbital Energies [Eh]
    ---------------------

    Doubly Occupied:

       1A    -80.116834     2A    -20.614660     3A    -20.606719
       4A    -20.598955     5A    -20.583271     6A    -20.574757
       7A    -20.574528     8A    -20.573076     9A    -20.573014
      10A    -20.523402    11A    -11.320092    12A    -11.303608
      13A    -11.299763    14A    -11.299433    15A    -11.299010
      16A    -11.295772    17A    -11.291937    18A    -11.230001
      19A     -7.632289    20A     -5.530796    21A     -5.530419
      22A     -5.529222    23A     -1.460164    24A     -1.410144
      25A     -1.393664    26A     -1.389901    27A     -1.386836
      28A     -1.372267    29A     -1.362131    30A     -1.350188
      31A     -1.303799    32A     -1.118381    33A     -1.040556
      34A     -1.012607    35A     -1.001495    36A     -0.879478
      37A     -0.864976    38A     -0.859377    39A     -0.822761
      40A     -0.812860    41A     -0.751520    42A     -0.744874
      43A     -0.732268    44A     -0.728498    45A     -0.705177
      46A     -0.688248    47A     -0.678348    48A     -0.673765
      49A     -0.660559    50A     -0.657866    51A     -0.640994
      52A     -0.633987    53A     -0.627863    54A     -0.615767
      55A     -0.602505    56A     -0.599188    57A     -0.581923
      58A     -0.575496    59A     -0.570936    60A     -0.559171
      61A     -0.556171    62A     -0.548288    63A     -0.541345
      64A     -0.536529    65A     -0.530127    66A     -0.520109
      67A     -0.513392    68A     -0.503969    69A     -0.496286
      70A     -0.484088    71A     -0.479721    72A     -0.476554
      73A     -0.466222    74A     -0.457809    75A     -0.450856
      76A     -0.434466

  @DF-RHF Final Energy: -1327.85739692015318

   => Energetics <=

    Nuclear Repulsion Energy =           1771.9911083642170979
    One-Electron Energy =               -5356.1609547966199898
    Two-Electron Energy =                2256.3124495122497137
    Total Energy =                      -1327.8573969201529508
  Basis Set: (AUG-CC-PVTZ AUX)
    Blend: AUG-CC-PVTZ-RI
    Molecular point group: c1

    Geometry (in Angstrom), charge = 0, multiplicity = 1:

       Center              X                  Y                   Z               Mass
    ------------   -----------------  -----------------  -----------------  -----------------
         P           -2.290048635257    -0.939780523349     0.346909020803    30.973761998420
         O           -0.982105635257    -0.201299523349     0.940520020803    15.994914619570
         O            1.342297364743    -1.675220523349     1.233082020803    15.994914619570
         O            0.078752364743     2.359866476651     0.464399020803    15.994914619570
         O            3.068562364743    -2.186809523349    -0.806358979197    15.994914619570
         O            2.847382364743     2.503375476651     0.373766020803    15.994914619570
         O            4.195735364743     0.435659476651    -0.970642979197    15.994914619570
         O           -2.826815635257     0.033613476651    -0.805299979197    15.994914619570
         O           -3.259073635257    -0.723019523349     1.623902020803    15.994914619570
         O           -2.118945635257    -2.343381523349    -0.097436979197    15.994914619570
         C            0.118209364743     0.030271476651     0.018550020803    12.000000000000
         C            0.953339364743    -1.243942523349    -0.073493979197    12.000000000000
         C            0.898636364743     1.202906476651     0.567082020803    12.000000000000
         C            2.259707364743    -1.014044523349    -0.815805979197    12.000000000000
         C            2.174356664743     1.392996076651    -0.278282179197    12.000000000000
         C            3.025889364743     0.148967476651    -0.208090979197    12.000000000000
         C           -3.124165635257     1.431860476651    -0.486654979197    12.000000000000
         C           -3.536269635257     2.085427476651    -1.781887979197    12.000000000000
         H           -0.283044635257     0.299063476651    -0.968006979197     1.007825032230
         H            0.370316364743    -2.029101523349    -0.569800979197     1.007825032230
         H            1.157167364743     0.998139476651     1.614387020803     1.007825032230
         H            2.060981364743    -0.788397523349    -1.870524979197     1.007825032230
         H            1.917034364743     1.636549476651    -1.271351979197     1.007825032230
         H            3.315304464743    -0.124774223349     0.816971620803     1.007825032230
         H            0.521822364743    -1.887769523349     1.713741020803     1.007825032230
         H            0.665587364743     3.109573476651     0.685415020803     1.007825032230
         H            2.973590364743    -2.547111523349     0.096885020803     1.007825032230
         H            3.721476364743     2.549448476651    -0.056637979197     1.007825032230
         H            4.639774364743    -0.423571523349    -1.094855979197     1.007825032230
         H           -3.808347635257    -1.522075523349     1.736959020803     1.007825032230
         H           -3.930498635257     1.445803476651     0.251617020803     1.007825032230
         H           -2.229714635257     1.893142476651    -0.056864979197     1.007825032230
         H           -3.800473635257     3.131144476651    -1.600439979197     1.007825032230
         H           -2.717148635257     2.053585476651    -2.502643979197     1.007825032230
         H           -4.400896635257     1.574585476651    -2.210492979197     1.007825032230

  Basis Set: AUG-CC-PVTZ
    Blend: AUG-CC-PVTZ
  Basis Set: (AUG-CC-PVTZ AUX)
    Blend: AUG-CC-PVTZ-JKFIT
	 Reference Energy          =   -1327.8573969201531781 [Eh]
	 Singles Energy            =      -0.0000000000000000 [Eh]
	 Same-Spin Energy          =      -1.0146147596582347 [Eh]
	 Opposite-Spin Energy      =      -3.0767125785911529 [Eh]
	 Correlation Energy        =      -4.0913273382493873 [Eh]
	 Total Energy              =   -1331.9487242584025353 [Eh]

	 ================> DF-SCS-MP2 Energies <==================
	-----------------------------------------------------------
	 SCS Same-Spin Scale       =       0.3333333333333333 [-]
	 SCS Opposite-Spin Scale   =       1.2000000000000000 [-]
	 SCS Same-Spin Energy      =      -0.3382049198860782 [Eh]
	 SCS Opposite-Spin Energy  =      -3.6920550943093833 [Eh]
	 SCS Correlation Energy    =      -4.0302600141954619 [Eh]
	 SCS Total Energy          =   -1331.8876569343485698 [Eh]
	-----------------------------------------------------------

  Dipole Moment: [D]
     X:    -1.1489      Y:     1.8239      Z:     0.6583     Total:     2.2539

*** Psi4 exiting successfully. Buy a developer a beer!
