                               Psi4 1.3.2 release

  ==> Input File <==

--------------------------------------------------------------------------
#psi4
#
memory 32 gb

molecule  {
0 1
  P       -2.2900960    -0.9400430     0.3446780
  O       -0.9821530    -0.2015620     0.9382890
  O        1.3422500    -1.6754830     1.2308510
  O        0.0787050     2.3596040     0.4621680
  O        3.0685150    -2.1870720    -0.8085900
  O        2.8473350     2.5031130     0.3715350
  O        4.1956880     0.4353970    -0.9728740
  O       -2.8268630     0.0333510    -0.8075310
  O       -3.2591210    -0.7232820     1.6216710
  O       -2.1189930    -2.3436440    -0.0996680
  C        0.1181620     0.0300090     0.0163190
  C        0.9532920    -1.2442050    -0.0757250
  C        0.8708845     1.2126016     0.5208459
  C        2.2596600    -1.0143070    -0.8180370
  C        2.1770750     1.3964720    -0.2280410
  C        3.0258420     0.1487050    -0.2103220
  C       -3.1242130     1.4315980    -0.4888860
  C       -3.5363170     2.0851650    -1.7841190
  H       -0.2830920     0.2988010    -0.9702380
  H        0.3702690    -2.0293640    -0.5720320
  H        1.1571200     0.9978770     1.6121560
  H        2.0609340    -0.7886600    -1.8727560
  H        1.8797102     1.6338066    -1.2641692
  H        3.2958550    -0.0945320     0.8276460
  H        0.5217750    -1.8880320     1.7115100
  H        0.6655400     3.1093110     0.6831840
  H        2.9735430    -2.5473740     0.0946540
  H        3.7214290     2.5491860    -0.0588690
  H        4.6397270    -0.4238340    -1.0970870
  H       -3.8083950    -1.5223380     1.7347280
  H       -3.9305460     1.4455410     0.2493860
  H       -2.2297620     1.8928800    -0.0590960
  H       -3.8005210     3.1308820    -1.6026710
  H       -2.7171960     2.0533230    -2.5048750
  H       -4.4009440     1.5743230    -2.2127240
units angstrom
no_reorient  #important for SAPT in psi4, default
symmetry c1  #important for SAPT in psi4, default
}

set PROPERTIES_ORIGIN ["COM"]
properties('MP2/aug-cc-pvtz', properties = ['dipole'])
--------------------------------------------------------------------------

    Molecular point group: c1
  Charge       = 0
  Multiplicity = 1
  Basis Set: AUG-CC-PVTZ
    Blend: AUG-CC-PVTZ
  Basis Set: (AUG-CC-PVTZ AUX)
    Blend: AUG-CC-PVTZ-JKFIT

    Orbital Energies [Eh]
    ---------------------

    Doubly Occupied:

       1A    -80.117176     2A    -20.614904     3A    -20.607396
       4A    -20.599161     5A    -20.582686     6A    -20.577895
       7A    -20.575991     8A    -20.574574     9A    -20.573998
      10A    -20.523577    11A    -11.320221    12A    -11.304370
      13A    -11.299895    14A    -11.299882    15A    -11.299359
      16A    -11.296762    17A    -11.291967    18A    -11.230259
      19A     -7.632621    20A     -5.531124    21A     -5.530758
      22A     -5.529552    23A     -1.460660    24A     -1.412166
      25A     -1.396872    26A     -1.394603    27A     -1.387189
      28A     -1.375224    29A     -1.366347    30A     -1.354686
      31A     -1.303996    32A     -1.120530    33A     -1.040889
      34A     -1.013788    35A     -1.003521    36A     -0.881361
      37A     -0.865666    38A     -0.858372    39A     -0.823604
      40A     -0.808038    41A     -0.753749    42A     -0.744925
      43A     -0.731873    44A     -0.729336    45A     -0.708438
      46A     -0.689187    47A     -0.678035    48A     -0.673990
      49A     -0.663179    50A     -0.661311    51A     -0.644790
      52A     -0.636391    53A     -0.627781    54A     -0.616241
      55A     -0.604151    56A     -0.598718    57A     -0.583707
      58A     -0.575764    59A     -0.571244    60A     -0.560226
      61A     -0.557123    62A     -0.549092    63A     -0.541450
      64A     -0.537223    65A     -0.530185    66A     -0.522347
      67A     -0.512995    68A     -0.503654    69A     -0.496934
      70A     -0.483389    71A     -0.480269    72A     -0.476859
      73A     -0.460299    74A     -0.457404    75A     -0.443121
      76A     -0.436609

  @DF-RHF Final Energy: -1327.85807374152341

   => Energetics <=

    Nuclear Repulsion Energy =           1773.0340552919958554
    One-Electron Energy =               -5358.1370042131111404
    Two-Electron Energy =                2257.2448751795918724
    Total Energy =                      -1327.8580737415231852
  Basis Set: (AUG-CC-PVTZ AUX)
    Blend: AUG-CC-PVTZ-RI
    Molecular point group: c1

    Geometry (in Angstrom), charge = 0, multiplicity = 1:

       Center              X                  Y                   Z               Mass
    ------------   -----------------  -----------------  -----------------  -----------------
         P           -2.288811439001    -0.940449116384     0.346478212606    30.973761998420
         O           -0.980868439001    -0.201968116384     0.940089212606    15.994914619570
         O            1.343534560999    -1.675889116384     1.232651212606    15.994914619570
         O            0.079989560999     2.359197883616     0.463968212606    15.994914619570
         O            3.069799560999    -2.187478116384    -0.806789787394    15.994914619570
         O            2.848619560999     2.502706883616     0.373335212606    15.994914619570
         O            4.196972560999     0.434990883616    -0.971073787394    15.994914619570
         O           -2.825578439001     0.032944883616    -0.805730787394    15.994914619570
         O           -3.257836439001    -0.723688116384     1.623471212606    15.994914619570
         O           -2.117708439001    -2.344050116384    -0.097867787394    15.994914619570
         C            0.119446560999     0.029602883616     0.018119212606    12.000000000000
         C            0.954576560999    -1.244611116384    -0.073924787394    12.000000000000
         C            0.872169060999     1.212195483616     0.522646112606    12.000000000000
         C            2.260944560999    -1.014713116384    -0.816236787394    12.000000000000
         C            2.178359560999     1.396065883616    -0.226240787394    12.000000000000
         C            3.027126560999     0.148298883616    -0.208521787394    12.000000000000
         C           -3.122928439001     1.431191883616    -0.487085787394    12.000000000000
         C           -3.535032439001     2.084758883616    -1.782318787394    12.000000000000
         H           -0.281807439001     0.298394883616    -0.968437787394     1.007825032230
         H            0.371553560999    -2.029770116384    -0.570231787394     1.007825032230
         H            1.158404560999     0.997470883616     1.613956212606     1.007825032230
         H            2.062218560999    -0.789066116384    -1.870955787394     1.007825032230
         H            1.880994760999     1.633400483616    -1.262368987394     1.007825032230
         H            3.297139560999    -0.094938116384     0.829446212606     1.007825032230
         H            0.523059560999    -1.888438116384     1.713310212606     1.007825032230
         H            0.666824560999     3.108904883616     0.684984212606     1.007825032230
         H            2.974827560999    -2.547780116384     0.096454212606     1.007825032230
         H            3.722713560999     2.548779883616    -0.057068787394     1.007825032230
         H            4.641011560999    -0.424240116384    -1.095286787394     1.007825032230
         H           -3.807110439001    -1.522744116384     1.736528212606     1.007825032230
         H           -3.929261439001     1.445134883616     0.251186212606     1.007825032230
         H           -2.228477439001     1.892473883616    -0.057295787394     1.007825032230
         H           -3.799236439001     3.130475883616    -1.600870787394     1.007825032230
         H           -2.715911439001     2.052916883616    -2.503074787394     1.007825032230
         H           -4.399659439001     1.573916883616    -2.210923787394     1.007825032230

  Basis Set: AUG-CC-PVTZ
    Blend: AUG-CC-PVTZ
  Basis Set: (AUG-CC-PVTZ AUX)
    Blend: AUG-CC-PVTZ-JKFIT
	 Reference Energy          =   -1327.8580737415234125 [Eh]
	 Singles Energy            =      -0.0000000000000000 [Eh]
	 Same-Spin Energy          =      -1.0148763769892495 [Eh]
	 Opposite-Spin Energy      =      -3.0760546539363816 [Eh]
	 Correlation Energy        =      -4.0909310309256313 [Eh]
	 Total Energy              =   -1331.9490047724491433 [Eh]

	 ================> DF-SCS-MP2 Energies <==================
	-----------------------------------------------------------
	 SCS Same-Spin Scale       =       0.3333333333333333 [-]
	 SCS Opposite-Spin Scale   =       1.2000000000000000 [-]
	 SCS Same-Spin Energy      =      -0.3382921256630831 [Eh]
	 SCS Opposite-Spin Energy  =      -3.6912655847236575 [Eh]
	 SCS Correlation Energy    =      -4.0295577103867410 [Eh]
	 SCS Total Energy          =   -1331.8876314519102380 [Eh]
	-----------------------------------------------------------

  Dipole Moment: [D]
     X:    -1.1686      Y:     1.9220      Z:     0.6796     Total:     2.3498

*** Psi4 exiting successfully. Buy a developer a beer!
