                               Psi4 1.3.2 release

  ==> Input File <==

--------------------------------------------------------------------------
#psi4
#
memory 32 gb

molecule  {
0 1
  P       -2.2900960    -0.9400430     0.3446780
  O       -0.9821530    -0.2015620     0.9382890
  O        1.3422500    -1.6754830     1.2308510
  O        0.0787050     2.3596040     0.4621680
  O        3.0685150    -2.1870720    -0.8085900
  O        2.8473350     2.5031130     0.3715350
  O        4.1956880     0.4353970    -0.9728740
  O       -2.8268630     0.0333510    -0.8075310
  O       -3.2591210    -0.7232820     1.6216710
  O       -2.1189930    -2.3436440    -0.0996680
  C        0.1181620     0.0300090     0.0163190
  C        0.9532920    -1.2442050    -0.0757250
  C        0.8985890     1.2026440     0.5648510
  C        2.2596600    -1.0143070    -0.8180370
  C        2.1770750     1.3964720    -0.2280410
  C        3.0762645     0.2252430    -0.1703282
  C       -3.1242130     1.4315980    -0.4888860
  C       -3.5363170     2.0851650    -1.7841190
  H       -0.2830920     0.2988010    -0.9702380
  H        0.3702690    -2.0293640    -0.5720320
  H        1.1571200     0.9978770     1.6121560
  H        2.0609340    -0.7886600    -1.8727560
  H        1.9169870     1.6362870    -1.2735830
  H        3.2958550    -0.0945320     0.8276460
  H        0.5217750    -1.8880320     1.7115100
  H        0.6655400     3.1093110     0.6831840
  H        2.9735430    -2.5473740     0.0946540
  H        3.7214290     2.5491860    -0.0588690
  H        4.6397270    -0.4238340    -1.0970870
  H       -3.8083950    -1.5223380     1.7347280
  H       -3.9305460     1.4455410     0.2493860
  H       -2.2297620     1.8928800    -0.0590960
  H       -3.8005210     3.1308820    -1.6026710
  H       -2.7171960     2.0533230    -2.5048750
  H       -4.4009440     1.5743230    -2.2127240
units angstrom
no_reorient  #important for SAPT in psi4, default
symmetry c1  #important for SAPT in psi4, default
}

set PROPERTIES_ORIGIN ["COM"]
properties('MP2/aug-cc-pvtz', properties = ['dipole'])
--------------------------------------------------------------------------

    Molecular point group: c1
  Charge       = 0
  Multiplicity = 1
  Basis Set: AUG-CC-PVTZ
    Blend: AUG-CC-PVTZ
  Basis Set: (AUG-CC-PVTZ AUX)
    Blend: AUG-CC-PVTZ-JKFIT

    Orbital Energies [Eh]
    ---------------------

    Doubly Occupied:

       1A    -80.116442     2A    -20.614336     3A    -20.606356
       4A    -20.598588     5A    -20.581882     6A    -20.576230
       7A    -20.574574     8A    -20.574117     9A    -20.573809
      10A    -20.522833    11A    -11.319917    12A    -11.301013
      13A    -11.299681    14A    -11.299216    15A    -11.298997
      16A    -11.295207    17A    -11.291062    18A    -11.229730
      19A     -7.631889    20A     -5.530396    21A     -5.530023
      22A     -5.528819    23A     -1.459775    24A     -1.411295
      25A     -1.398111    26A     -1.392118    27A     -1.386650
      28A     -1.375821    29A     -1.363273    30A     -1.355958
      31A     -1.303240    32A     -1.114280    33A     -1.040225
      34A     -1.012172    35A     -0.996115    36A     -0.879914
      37A     -0.865368    38A     -0.856073    39A     -0.823069
      40A     -0.810334    41A     -0.753204    42A     -0.745960
      43A     -0.731582    44A     -0.728535    45A     -0.707258
      46A     -0.687280    47A     -0.678714    48A     -0.674956
      49A     -0.666201    50A     -0.659235    51A     -0.642791
      52A     -0.637851    53A     -0.626448    54A     -0.614617
      55A     -0.603331    56A     -0.599232    57A     -0.581724
      58A     -0.575221    59A     -0.570411    60A     -0.559468
      61A     -0.556976    62A     -0.548334    63A     -0.540784
      64A     -0.535601    65A     -0.529824    66A     -0.522321
      67A     -0.513020    68A     -0.506221    69A     -0.496535
      70A     -0.484828    71A     -0.479378    72A     -0.475992
      73A     -0.463158    74A     -0.462152    75A     -0.449079
      76A     -0.414154

  @DF-RHF Final Energy: -1327.85380256872395

   => Energetics <=

    Nuclear Repulsion Energy =           1771.5006721928311890
    One-Electron Energy =               -5355.1863696030895881
    Two-Electron Energy =                2255.8318948415344494
    Total Energy =                      -1327.8538025687239497
  Basis Set: (AUG-CC-PVTZ AUX)
    Blend: AUG-CC-PVTZ-RI
    Molecular point group: c1

    Geometry (in Angstrom), charge = 0, multiplicity = 1:

       Center              X                  Y                   Z               Mass
    ------------   -----------------  -----------------  -----------------  -----------------
         P           -2.292196459630    -0.943231390125     0.343011935427    30.973761998420
         O           -0.984253459630    -0.204750390125     0.936622935427    15.994914619570
         O            1.340149540370    -1.678671390125     1.229184935427    15.994914619570
         O            0.076604540370     2.356415609875     0.460501935427    15.994914619570
         O            3.066414540370    -2.190260390125    -0.810256064573    15.994914619570
         O            2.845234540370     2.499924609875     0.369868935427    15.994914619570
         O            4.193587540370     0.432208609875    -0.974540064573    15.994914619570
         O           -2.828963459630     0.030162609875    -0.809197064573    15.994914619570
         O           -3.261221459630    -0.726470390125     1.620004935427    15.994914619570
         O           -2.121093459630    -2.346832390125    -0.101334064573    15.994914619570
         C            0.116061540370     0.026820609875     0.014652935427    12.000000000000
         C            0.951191540370    -1.247393390125    -0.077391064573    12.000000000000
         C            0.896488540370     1.199455609875     0.563184935427    12.000000000000
         C            2.257559540370    -1.017495390125    -0.819703064573    12.000000000000
         C            2.174974540370     1.393283609875    -0.229707064573    12.000000000000
         C            3.074164040370     0.222054609875    -0.171994264573    12.000000000000
         C           -3.126313459630     1.428409609875    -0.490552064573    12.000000000000
         C           -3.538417459630     2.081976609875    -1.785785064573    12.000000000000
         H           -0.285192459630     0.295612609875    -0.971904064573     1.007825032230
         H            0.368168540370    -2.032552390125    -0.573698064573     1.007825032230
         H            1.155019540370     0.994688609875     1.610489935427     1.007825032230
         H            2.058833540370    -0.791848390125    -1.874422064573     1.007825032230
         H            1.914886540370     1.633098609875    -1.275249064573     1.007825032230
         H            3.293754540370    -0.097720390125     0.825979935427     1.007825032230
         H            0.519674540370    -1.891220390125     1.709843935427     1.007825032230
         H            0.663439540370     3.106122609875     0.681517935427     1.007825032230
         H            2.971442540370    -2.550562390125     0.092987935427     1.007825032230
         H            3.719328540370     2.545997609875    -0.060535064573     1.007825032230
         H            4.637626540370    -0.427022390125    -1.098753064573     1.007825032230
         H           -3.810495459630    -1.525526390125     1.733061935427     1.007825032230
         H           -3.932646459630     1.442352609875     0.247719935427     1.007825032230
         H           -2.231862459630     1.889691609875    -0.060762064573     1.007825032230
         H           -3.802621459630     3.127693609875    -1.604337064573     1.007825032230
         H           -2.719296459630     2.050134609875    -2.506541064573     1.007825032230
         H           -4.403044459630     1.571134609875    -2.214390064573     1.007825032230

  Basis Set: AUG-CC-PVTZ
    Blend: AUG-CC-PVTZ
  Basis Set: (AUG-CC-PVTZ AUX)
    Blend: AUG-CC-PVTZ-JKFIT
	 Reference Energy          =   -1327.8538025687239497 [Eh]
	 Singles Energy            =      -0.0000000000000000 [Eh]
	 Same-Spin Energy          =      -1.0144875640587772 [Eh]
	 Opposite-Spin Energy      =      -3.0758084622661790 [Eh]
	 Correlation Energy        =      -4.0902960263249559 [Eh]
	 Total Energy              =   -1331.9440985950488994 [Eh]

	 ================> DF-SCS-MP2 Energies <==================
	-----------------------------------------------------------
	 SCS Same-Spin Scale       =       0.3333333333333333 [-]
	 SCS Opposite-Spin Scale   =       1.2000000000000000 [-]
	 SCS Same-Spin Energy      =      -0.3381625213529257 [Eh]
	 SCS Opposite-Spin Energy  =      -3.6909701547194147 [Eh]
	 SCS Correlation Energy    =      -4.0291326760723400 [Eh]
	 SCS Total Energy          =   -1331.8829352447962719 [Eh]
	-----------------------------------------------------------

  Dipole Moment: [D]
     X:    -0.9985      Y:     1.8950      Z:     0.7114     Total:     2.2570

*** Psi4 exiting successfully. Buy a developer a beer!
