                               Psi4 1.3.2 release

  ==> Input File <==

--------------------------------------------------------------------------
#psi4
#
memory 32 gb

molecule  {
0 1
  P       -2.2900960    -0.9400430     0.3446780
  O       -0.9821530    -0.2015620     0.9382890
  O        1.3422500    -1.6754830     1.2308510
  O        0.0787050     2.3596040     0.4621680
  O        3.0685150    -2.1870720    -0.8085900
  O        2.8473350     2.5031130     0.3715350
  O        4.1956880     0.4353970    -0.9728740
  O       -2.8268630     0.0333510    -0.8075310
  O       -3.2591210    -0.7232820     1.6216710
  O       -2.1189930    -2.3436440    -0.0996680
  C        0.1181620     0.0300090     0.0163190
  C        0.9532920    -1.2442050    -0.0757250
  C        0.8985890     1.2026440     0.5648510
  C        2.2721884    -0.9769375    -0.7825191
  C        2.1770750     1.3964720    -0.2280410
  C        3.0258420     0.1487050    -0.2103220
  C       -3.1242130     1.4315980    -0.4888860
  C       -3.5363170     2.0851650    -1.7841190
  H       -0.2830920     0.2988010    -0.9702380
  H        0.3430486    -2.0250065    -0.5454730
  H        1.1571200     0.9978770     1.6121560
  H        2.0609340    -0.7886600    -1.8727560
  H        1.9169870     1.6362870    -1.2735830
  H        3.2958550    -0.0945320     0.8276460
  H        0.5217750    -1.8880320     1.7115100
  H        0.6655400     3.1093110     0.6831840
  H        2.9735430    -2.5473740     0.0946540
  H        3.7214290     2.5491860    -0.0588690
  H        4.6397270    -0.4238340    -1.0970870
  H       -3.8083950    -1.5223380     1.7347280
  H       -3.9305460     1.4455410     0.2493860
  H       -2.2297620     1.8928800    -0.0590960
  H       -3.8005210     3.1308820    -1.6026710
  H       -2.7171960     2.0533230    -2.5048750
  H       -4.4009440     1.5743230    -2.2127240
units angstrom
no_reorient  #important for SAPT in psi4, default
symmetry c1  #important for SAPT in psi4, default
}

set PROPERTIES_ORIGIN ["COM"]
properties('MP2/aug-cc-pvtz', properties = ['dipole'])
--------------------------------------------------------------------------

    Molecular point group: c1
  Charge       = 0
  Multiplicity = 1
  Basis Set: AUG-CC-PVTZ
    Blend: AUG-CC-PVTZ
  Basis Set: (AUG-CC-PVTZ AUX)
    Blend: AUG-CC-PVTZ-JKFIT

    Orbital Energies [Eh]
    ---------------------

    Doubly Occupied:

       1A    -80.117386     2A    -20.615054     3A    -20.607276
       4A    -20.599232     5A    -20.582327     6A    -20.577781
       7A    -20.575769     8A    -20.574068     9A    -20.572743
      10A    -20.524104    11A    -11.320359    12A    -11.304714
      13A    -11.300741    14A    -11.299629    15A    -11.299316
      16A    -11.298166    17A    -11.291776    18A    -11.230035
      19A     -7.632837    20A     -5.531343    21A     -5.530968
      22A     -5.529772    23A     -1.460628    24A     -1.410681
      25A     -1.395708    26A     -1.391636    27A     -1.387090
      28A     -1.373630    29A     -1.362125    30A     -1.351313
      31A     -1.304526    32A     -1.123563    33A     -1.040787
      34A     -1.018023    35A     -1.003248    36A     -0.882755
      37A     -0.865730    38A     -0.858602    39A     -0.821970
      40A     -0.809396    41A     -0.752431    42A     -0.746548
      43A     -0.732302    44A     -0.728946    45A     -0.708779
      46A     -0.689481    47A     -0.675614    48A     -0.673724
      49A     -0.663811    50A     -0.659704    51A     -0.643983
      52A     -0.635680    53A     -0.627104    54A     -0.615807
      55A     -0.604234    56A     -0.594365    57A     -0.581445
      58A     -0.575384    59A     -0.571794    60A     -0.559699
      61A     -0.556769    62A     -0.548533    63A     -0.541013
      64A     -0.534136    65A     -0.528572    66A     -0.521011
      67A     -0.512891    68A     -0.504002    69A     -0.497578
      70A     -0.484015    71A     -0.480119    72A     -0.477154
      73A     -0.462845    74A     -0.457108    75A     -0.450902
      76A     -0.445191

  @DF-RHF Final Energy: -1327.85661610309671

   => Energetics <=

    Nuclear Repulsion Energy =           1773.2340976644245529
    One-Electron Energy =               -5358.5424666132757920
    Two-Electron Energy =                2257.4517528457545268
    Total Energy =                      -1327.8566161030967123
  Basis Set: (AUG-CC-PVTZ AUX)
    Blend: AUG-CC-PVTZ-RI
    Molecular point group: c1

    Geometry (in Angstrom), charge = 0, multiplicity = 1:

       Center              X                  Y                   Z               Mass
    ------------   -----------------  -----------------  -----------------  -----------------
         P           -2.290522638570    -0.941614960370     0.343105471078    30.973761998420
         O           -0.982579638570    -0.203133960370     0.936716471078    15.994914619570
         O            1.341823361430    -1.677054960370     1.229278471078    15.994914619570
         O            0.078278361430     2.358032039630     0.460595471078    15.994914619570
         O            3.068088361430    -2.188643960370    -0.810162528922    15.994914619570
         O            2.846908361430     2.501541039630     0.369962471078    15.994914619570
         O            4.195261361430     0.433825039630    -0.974446528922    15.994914619570
         O           -2.827289638570     0.031779039630    -0.809103528922    15.994914619570
         O           -3.259547638570    -0.724853960370     1.620098471078    15.994914619570
         O           -2.119419638570    -2.345215960370    -0.101240528922    15.994914619570
         C            0.117735361430     0.028437039630     0.014746471078    12.000000000000
         C            0.952865361430    -1.245776960370    -0.077297528922    12.000000000000
         C            0.898162361430     1.201072039630     0.563278471078    12.000000000000
         C            2.271761761430    -0.978509460370    -0.784091628922    12.000000000000
         C            2.176648361430     1.394900039630    -0.229613528922    12.000000000000
         C            3.025415361430     0.147133039630    -0.211894528922    12.000000000000
         C           -3.124639638570     1.430026039630    -0.490458528922    12.000000000000
         C           -3.536743638570     2.083593039630    -1.785691528922    12.000000000000
         H           -0.283518638570     0.297229039630    -0.971810528922     1.007825032230
         H            0.342621961430    -2.026578460370    -0.547045528922     1.007825032230
         H            1.156693361430     0.996305039630     1.610583471078     1.007825032230
         H            2.060507361430    -0.790231960370    -1.874328528922     1.007825032230
         H            1.916560361430     1.634715039630    -1.275155528922     1.007825032230
         H            3.295428361430    -0.096103960370     0.826073471078     1.007825032230
         H            0.521348361430    -1.889603960370     1.709937471078     1.007825032230
         H            0.665113361430     3.107739039630     0.681611471078     1.007825032230
         H            2.973116361430    -2.548945960370     0.093081471078     1.007825032230
         H            3.721002361430     2.547614039630    -0.060441528922     1.007825032230
         H            4.639300361430    -0.425405960370    -1.098659528922     1.007825032230
         H           -3.808821638570    -1.523909960370     1.733155471078     1.007825032230
         H           -3.930972638570     1.443969039630     0.247813471078     1.007825032230
         H           -2.230188638570     1.891308039630    -0.060668528922     1.007825032230
         H           -3.800947638570     3.129310039630    -1.604243528922     1.007825032230
         H           -2.717622638570     2.051751039630    -2.506447528922     1.007825032230
         H           -4.401370638570     1.572751039630    -2.214296528922     1.007825032230

  Basis Set: AUG-CC-PVTZ
    Blend: AUG-CC-PVTZ
  Basis Set: (AUG-CC-PVTZ AUX)
    Blend: AUG-CC-PVTZ-JKFIT
	 Reference Energy          =   -1327.8566161030967123 [Eh]
	 Singles Energy            =      -0.0000000000000000 [Eh]
	 Same-Spin Energy          =      -1.0152205676394848 [Eh]
	 Opposite-Spin Energy      =      -3.0772066675049796 [Eh]
	 Correlation Energy        =      -4.0924272351444646 [Eh]
	 Total Energy              =   -1331.9490433382411538 [Eh]

	 ================> DF-SCS-MP2 Energies <==================
	-----------------------------------------------------------
	 SCS Same-Spin Scale       =       0.3333333333333333 [-]
	 SCS Opposite-Spin Scale   =       1.2000000000000000 [-]
	 SCS Same-Spin Energy      =      -0.3384068558798282 [Eh]
	 SCS Opposite-Spin Energy  =      -3.6926480010059755 [Eh]
	 SCS Correlation Energy    =      -4.0310548568858033 [Eh]
	 SCS Total Energy          =   -1331.8876709599824153 [Eh]
	-----------------------------------------------------------

  Dipole Moment: [D]
     X:    -1.1545      Y:     1.9667      Z:     0.7706     Total:     2.4072

*** Psi4 exiting successfully. Buy a developer a beer!
