                               Psi4 1.3.2 release

  ==> Input File <==

--------------------------------------------------------------------------
#psi4
#
memory 32 gb

molecule  {
0 1
  P       -2.2900960    -0.9400430     0.3446780
  O       -0.9821530    -0.2015620     0.9382890
  O        1.3422500    -1.6754830     1.2308510
  O        0.0822104     2.3662660     0.5362193
  O        3.0685150    -2.1870720    -0.8085900
  O        2.8473350     2.5031130     0.3715350
  O        4.1956880     0.4353970    -0.9728740
  O       -2.8268630     0.0333510    -0.8075310
  O       -3.2591210    -0.7232820     1.6216710
  O       -2.1189930    -2.3436440    -0.0996680
  C        0.1181620     0.0300090     0.0163190
  C        0.9532920    -1.2442050    -0.0757250
  C        0.8985890     1.2026440     0.5648510
  C        2.2596600    -1.0143070    -0.8180370
  C        2.1770750     1.3964720    -0.2280410
  C        3.0258420     0.1487050    -0.2103220
  C       -3.1242130     1.4315980    -0.4888860
  C       -3.5363170     2.0851650    -1.7841190
  H       -0.2830920     0.2988010    -0.9702380
  H        0.3702690    -2.0293640    -0.5720320
  H        1.1264588     1.0441201     1.6271886
  H        2.0609340    -0.7886600    -1.8727560
  H        1.9169870     1.6362870    -1.2735830
  H        3.2958550    -0.0945320     0.8276460
  H        0.5217750    -1.8880320     1.7115100
  H        0.6655400     3.1093110     0.6831840
  H        2.9735430    -2.5473740     0.0946540
  H        3.7214290     2.5491860    -0.0588690
  H        4.6397270    -0.4238340    -1.0970870
  H       -3.8083950    -1.5223380     1.7347280
  H       -3.9305460     1.4455410     0.2493860
  H       -2.2297620     1.8928800    -0.0590960
  H       -3.8005210     3.1308820    -1.6026710
  H       -2.7171960     2.0533230    -2.5048750
  H       -4.4009440     1.5743230    -2.2127240
units angstrom
no_reorient  #important for SAPT in psi4, default
symmetry c1  #important for SAPT in psi4, default
}

set PROPERTIES_ORIGIN ["COM"]
properties('MP2/aug-cc-pvtz', properties = ['dipole'])
--------------------------------------------------------------------------

    Molecular point group: c1
  Charge       = 0
  Multiplicity = 1
  Basis Set: AUG-CC-PVTZ
    Blend: AUG-CC-PVTZ
  Basis Set: (AUG-CC-PVTZ AUX)
    Blend: AUG-CC-PVTZ-JKFIT

    Orbital Energies [Eh]
    ---------------------

    Doubly Occupied:

       1A    -80.117101     2A    -20.614790     3A    -20.607234
       4A    -20.599220     5A    -20.583102     6A    -20.577187
       7A    -20.575021     8A    -20.574671     9A    -20.568537
      10A    -20.523613    11A    -11.322032    12A    -11.304256
      13A    -11.299917    14A    -11.299737    15A    -11.298725
      16A    -11.297973    17A    -11.292296    18A    -11.230215
      19A     -7.632555    20A     -5.531060    21A     -5.530689
      22A     -5.529487    23A     -1.460456    24A     -1.411110
      25A     -1.395109    26A     -1.393602    27A     -1.387096
      28A     -1.373475    29A     -1.364871    30A     -1.354522
      31A     -1.304021    32A     -1.119795    33A     -1.040799
      34A     -1.012736    35A     -1.004118    36A     -0.880518
      37A     -0.865248    38A     -0.860684    39A     -0.822537
      40A     -0.811166    41A     -0.751513    42A     -0.746222
      43A     -0.733599    44A     -0.728723    45A     -0.708020
      46A     -0.686577    47A     -0.678407    48A     -0.674001
      49A     -0.662468    50A     -0.661813    51A     -0.643508
      52A     -0.638355    53A     -0.627547    54A     -0.615938
      55A     -0.602937    56A     -0.598854    57A     -0.582113
      58A     -0.575716    59A     -0.571114    60A     -0.559853
      61A     -0.557144    62A     -0.548613    63A     -0.541576
      64A     -0.537044    65A     -0.530455    66A     -0.521215
      67A     -0.513132    68A     -0.503743    69A     -0.497121
      70A     -0.483807    71A     -0.480281    72A     -0.476836
      73A     -0.462479    74A     -0.457167    75A     -0.449139
      76A     -0.436807

  @DF-RHF Final Energy: -1327.86154867411824

   => Energetics <=

    Nuclear Repulsion Energy =           1771.8375339093156526
    One-Electron Energy =               -5355.7679244940709395
    Two-Electron Energy =                2256.0688419106372749
    Total Energy =                      -1327.8615486741182394
  Basis Set: (AUG-CC-PVTZ AUX)
    Blend: AUG-CC-PVTZ-RI
    Molecular point group: c1

    Geometry (in Angstrom), charge = 0, multiplicity = 1:

       Center              X                  Y                   Z               Mass
    ------------   -----------------  -----------------  -----------------  -----------------
         P           -2.290183335630    -0.940574685905     0.340513614572    30.973761998420
         O           -0.982240335630    -0.202093685905     0.934124614572    15.994914619570
         O            1.342162664370    -1.676014685905     1.226686614572    15.994914619570
         O            0.082123064370     2.365734314095     0.532054914572    15.994914619570
         O            3.068427664370    -2.187603685905    -0.812754385428    15.994914619570
         O            2.847247664370     2.502581314095     0.367370614572    15.994914619570
         O            4.195600664370     0.434865314095    -0.977038385428    15.994914619570
         O           -2.826950335630     0.032819314095    -0.811695385428    15.994914619570
         O           -3.259208335630    -0.723813685905     1.617506614572    15.994914619570
         O           -2.119080335630    -2.344175685905    -0.103832385428    15.994914619570
         C            0.118074664370     0.029477314095     0.012154614572    12.000000000000
         C            0.953204664370    -1.244736685905    -0.079889385428    12.000000000000
         C            0.898501664370     1.202112314095     0.560686614572    12.000000000000
         C            2.259572664370    -1.014838685905    -0.822201385428    12.000000000000
         C            2.176987664370     1.395940314095    -0.232205385428    12.000000000000
         C            3.025754664370     0.148173314095    -0.214486385428    12.000000000000
         C           -3.124300335630     1.431066314095    -0.493050385428    12.000000000000
         C           -3.536404335630     2.084633314095    -1.788283385428    12.000000000000
         H           -0.283179335630     0.298269314095    -0.974402385428     1.007825032230
         H            0.370181664370    -2.029895685905    -0.576196385428     1.007825032230
         H            1.126371464370     1.043588414095     1.623024214572     1.007825032230
         H            2.060846664370    -0.789191685905    -1.876920385428     1.007825032230
         H            1.916899664370     1.635755314095    -1.277747385428     1.007825032230
         H            3.295767664370    -0.095063685905     0.823481614572     1.007825032230
         H            0.521687664370    -1.888563685905     1.707345614572     1.007825032230
         H            0.665452664370     3.108779314095     0.679019614572     1.007825032230
         H            2.973455664370    -2.547905685905     0.090489614572     1.007825032230
         H            3.721341664370     2.548654314095    -0.063033385428     1.007825032230
         H            4.639639664370    -0.424365685905    -1.101251385428     1.007825032230
         H           -3.808482335630    -1.522869685905     1.730563614572     1.007825032230
         H           -3.930633335630     1.445009314095     0.245221614572     1.007825032230
         H           -2.229849335630     1.892348314095    -0.063260385428     1.007825032230
         H           -3.800608335630     3.130350314095    -1.606835385428     1.007825032230
         H           -2.717283335630     2.052791314095    -2.509039385428     1.007825032230
         H           -4.401031335630     1.573791314095    -2.216888385428     1.007825032230

  Basis Set: AUG-CC-PVTZ
    Blend: AUG-CC-PVTZ
  Basis Set: (AUG-CC-PVTZ AUX)
    Blend: AUG-CC-PVTZ-JKFIT
	 Reference Energy          =   -1327.8615486741182394 [Eh]
	 Singles Energy            =      -0.0000000000000000 [Eh]
	 Same-Spin Energy          =      -1.0141481759050244 [Eh]
	 Opposite-Spin Energy      =      -3.0751588389705522 [Eh]
	 Correlation Energy        =      -4.0893070148755761 [Eh]
	 Total Energy              =   -1331.9508556889938973 [Eh]

	 ================> DF-SCS-MP2 Energies <==================
	-----------------------------------------------------------
	 SCS Same-Spin Scale       =       0.3333333333333333 [-]
	 SCS Opposite-Spin Scale   =       1.2000000000000000 [-]
	 SCS Same-Spin Energy      =      -0.3380493919683414 [Eh]
	 SCS Opposite-Spin Energy  =      -3.6901906067646624 [Eh]
	 SCS Correlation Energy    =      -4.0282399987330040 [Eh]
	 SCS Total Energy          =   -1331.8897886728511821 [Eh]
	-----------------------------------------------------------

  Dipole Moment: [D]
     X:    -1.0940      Y:     1.8250      Z:     0.5782     Total:     2.2049

*** Psi4 exiting successfully. Buy a developer a beer!
