                               Psi4 1.3.2 release

  ==> Input File <==

--------------------------------------------------------------------------
#psi4
#
memory 32 gb

molecule  {
0 1
  P       -2.2900960    -0.9400430     0.3446780
  O       -0.9821530    -0.2015620     0.9382890
  O        1.3422500    -1.6754830     1.2308510
  O        0.0787050     2.3596040     0.4621680
  O        3.0685150    -2.1870720    -0.8085900
  O        2.8473350     2.5031130     0.3715350
  O        4.1956880     0.4353970    -0.9728740
  O       -2.8268630     0.0333510    -0.8075310
  O       -3.2591210    -0.7232820     1.6216710
  O       -2.1189930    -2.3436440    -0.0996680
  C        0.1181620     0.0300090     0.0163190
  C        0.9532920    -1.2442050    -0.0757250
  C        0.8985890     1.2026440     0.5648510
  C        2.3017096    -1.0454067    -0.8092199
  C        2.2167526     1.4226719    -0.2053648
  C        3.0258420     0.1487050    -0.2103220
  C       -3.1242130     1.4315980    -0.4888860
  C       -3.5363170     2.0851650    -1.7841190
  H       -0.2830920     0.2988010    -0.9702380
  H        0.3702690    -2.0293640    -0.5720320
  H        1.1571200     0.9978770     1.6121560
  H        2.0609340    -0.7886600    -1.8727560
  H        1.9169870     1.6362870    -1.2735830
  H        3.2958550    -0.0945320     0.8276460
  H        0.5217750    -1.8880320     1.7115100
  H        0.6655400     3.1093110     0.6831840
  H        2.9735430    -2.5473740     0.0946540
  H        3.7214290     2.5491860    -0.0588690
  H        4.6397270    -0.4238340    -1.0970870
  H       -3.8083950    -1.5223380     1.7347280
  H       -3.9305460     1.4455410     0.2493860
  H       -2.2297620     1.8928800    -0.0590960
  H       -3.8005210     3.1308820    -1.6026710
  H       -2.7171960     2.0533230    -2.5048750
  H       -4.4009440     1.5743230    -2.2127240
units angstrom
no_reorient  #important for SAPT in psi4, default
symmetry c1  #important for SAPT in psi4, default
}

set PROPERTIES_ORIGIN ["COM"]
properties('MP2/aug-cc-pvtz', properties = ['dipole'])
--------------------------------------------------------------------------

    Molecular point group: c1
  Charge       = 0
  Multiplicity = 1
  Basis Set: AUG-CC-PVTZ
    Blend: AUG-CC-PVTZ
  Basis Set: (AUG-CC-PVTZ AUX)
    Blend: AUG-CC-PVTZ-JKFIT

    Orbital Energies [Eh]
    ---------------------

    Doubly Occupied:

       1A    -80.116152     2A    -20.614070     3A    -20.606224
       4A    -20.598098     5A    -20.582845     6A    -20.581331
       7A    -20.580278     8A    -20.572298     9A    -20.572160
      10A    -20.522585    11A    -11.319465    12A    -11.301630
      13A    -11.300220    14A    -11.298625    15A    -11.297882
      16A    -11.296901    17A    -11.288529    18A    -11.229173
      19A     -7.631599    20A     -5.530105    21A     -5.529733
      22A     -5.528530    23A     -1.459430    24A     -1.418308
      25A     -1.406503    26A     -1.397664    27A     -1.386245
      28A     -1.372777    29A     -1.370071    30A     -1.361223
      31A     -1.302988    32A     -1.110487    33A     -1.039681
      34A     -1.009586    35A     -0.995527    36A     -0.878582
      37A     -0.864064    38A     -0.859996    39A     -0.822652
      40A     -0.808028    41A     -0.753399    42A     -0.746814
      43A     -0.730459    44A     -0.728159    45A     -0.711057
      46A     -0.686782    47A     -0.681660    48A     -0.673271
      49A     -0.666095    50A     -0.662512    51A     -0.645942
      52A     -0.634241    53A     -0.630966    54A     -0.617839
      55A     -0.606050    56A     -0.601089    57A     -0.581950
      58A     -0.575044    59A     -0.570602    60A     -0.562935
      61A     -0.556786    62A     -0.547960    63A     -0.543078
      64A     -0.538787    65A     -0.527052    66A     -0.519522
      67A     -0.512283    68A     -0.500706    69A     -0.494808
      70A     -0.481266    71A     -0.478889    72A     -0.475535
      73A     -0.457137    74A     -0.451933    75A     -0.444346
      76A     -0.432381

  @DF-RHF Final Energy: -1327.85716108569750

   => Energetics <=

    Nuclear Repulsion Energy =           1771.7407166559244160
    One-Electron Energy =               -5355.6125990952696156
    Two-Electron Energy =                2256.0147213536479285
    Total Energy =                      -1327.8571610856974985
  Basis Set: (AUG-CC-PVTZ AUX)
    Blend: AUG-CC-PVTZ-RI
    Molecular point group: c1

    Geometry (in Angstrom), charge = 0, multiplicity = 1:

       Center              X                  Y                   Z               Mass
    ------------   -----------------  -----------------  -----------------  -----------------
         P           -2.293500545831    -0.939838867239     0.343366047900    30.973761998420
         O           -0.985557545831    -0.201357867239     0.936977047900    15.994914619570
         O            1.338845454169    -1.675278867239     1.229539047900    15.994914619570
         O            0.075300454169     2.359808132761     0.460856047900    15.994914619570
         O            3.065110454169    -2.186867867239    -0.809901952100    15.994914619570
         O            2.843930454169     2.503317132761     0.370223047900    15.994914619570
         O            4.192283454169     0.435601132761    -0.974185952100    15.994914619570
         O           -2.830267545831     0.033555132761    -0.808842952100    15.994914619570
         O           -3.262525545831    -0.723077867239     1.620359047900    15.994914619570
         O           -2.122397545831    -2.343439867239    -0.100979952100    15.994914619570
         C            0.114757454169     0.030213132761     0.015007047900    12.000000000000
         C            0.949887454169    -1.244000867239    -0.077036952100    12.000000000000
         C            0.895184454169     1.202848132761     0.563539047900    12.000000000000
         C            2.298305054169    -1.045202567239    -0.810531852100    12.000000000000
         C            2.213348054169     1.422876032761    -0.206676752100    12.000000000000
         C            3.022437454169     0.148909132761    -0.211633952100    12.000000000000
         C           -3.127617545831     1.431802132761    -0.490197952100    12.000000000000
         C           -3.539721545831     2.085369132761    -1.785430952100    12.000000000000
         H           -0.286496545831     0.299005132761    -0.971549952100     1.007825032230
         H            0.366864454169    -2.029159867239    -0.573343952100     1.007825032230
         H            1.153715454169     0.998081132761     1.610844047900     1.007825032230
         H            2.057529454169    -0.788455867239    -1.874067952100     1.007825032230
         H            1.913582454169     1.636491132761    -1.274894952100     1.007825032230
         H            3.292450454169    -0.094327867239     0.826334047900     1.007825032230
         H            0.518370454169    -1.887827867239     1.710198047900     1.007825032230
         H            0.662135454169     3.109515132761     0.681872047900     1.007825032230
         H            2.970138454169    -2.547169867239     0.093342047900     1.007825032230
         H            3.718024454169     2.549390132761    -0.060180952100     1.007825032230
         H            4.636322454169    -0.423629867239    -1.098398952100     1.007825032230
         H           -3.811799545831    -1.522133867239     1.733416047900     1.007825032230
         H           -3.933950545831     1.445745132761     0.248074047900     1.007825032230
         H           -2.233166545831     1.893084132761    -0.060407952100     1.007825032230
         H           -3.803925545831     3.131086132761    -1.603982952100     1.007825032230
         H           -2.720600545831     2.053527132761    -2.506186952100     1.007825032230
         H           -4.404348545831     1.574527132761    -2.214035952100     1.007825032230

  Basis Set: AUG-CC-PVTZ
    Blend: AUG-CC-PVTZ
  Basis Set: (AUG-CC-PVTZ AUX)
    Blend: AUG-CC-PVTZ-JKFIT
	 Reference Energy          =   -1327.8571610856974985 [Eh]
	 Singles Energy            =      -0.0000000000000000 [Eh]
	 Same-Spin Energy          =      -1.0144629319012934 [Eh]
	 Opposite-Spin Energy      =      -3.0749606833305312 [Eh]
	 Correlation Energy        =      -4.0894236152318246 [Eh]
	 Total Energy              =   -1331.9465847009294066 [Eh]

	 ================> DF-SCS-MP2 Energies <==================
	-----------------------------------------------------------
	 SCS Same-Spin Scale       =       0.3333333333333333 [-]
	 SCS Opposite-Spin Scale   =       1.2000000000000000 [-]
	 SCS Same-Spin Energy      =      -0.3381543106337644 [Eh]
	 SCS Opposite-Spin Energy  =      -3.6899528199966372 [Eh]
	 SCS Correlation Energy    =      -4.0281071306304019 [Eh]
	 SCS Total Energy          =   -1331.8852682163278587 [Eh]
	-----------------------------------------------------------

  Dipole Moment: [D]
     X:    -0.8940      Y:     1.8549      Z:     0.7998     Total:     2.2090

*** Psi4 exiting successfully. Buy a developer a beer!
