                               Psi4 1.3.2 release

  ==> Input File <==

--------------------------------------------------------------------------
#psi4
#
memory 32 gb

molecule  {
0 1
  P       -2.2900960    -0.9400430     0.3446780
  O       -0.9821530    -0.2015620     0.9382890
  O        1.3422500    -1.6754830     1.2308510
  O        0.0787050     2.3596040     0.4621680
  O        3.0685150    -2.1870720    -0.8085900
  O        2.8473350     2.5031130     0.3715350
  O        4.1956880     0.4353970    -0.9728740
  O       -2.8268630     0.0333510    -0.8075310
  O       -3.2591210    -0.7232820     1.6216710
  O       -2.1189930    -2.3436440    -0.0996680
  C        0.1181620     0.0300090     0.0163190
  C        0.9532920    -1.2442050    -0.0757250
  C        0.8985890     1.2026440     0.5648510
  C        2.2596600    -1.0143070    -0.8180370
  C        2.1770750     1.3964720    -0.2280410
  C        3.0291713     0.1545892    -0.1316000
  C       -3.1242130     1.4315980    -0.4888860
  C       -3.5363170     2.0851650    -1.7841190
  H       -0.2830920     0.2988010    -0.9702380
  H        0.3702690    -2.0293640    -0.5720320
  H        1.1571200     0.9978770     1.6121560
  H        2.0609340    -0.7886600    -1.8727560
  H        1.8876619     1.6821414    -1.2541736
  H        3.2958550    -0.0945320     0.8276460
  H        0.5217750    -1.8880320     1.7115100
  H        0.6655400     3.1093110     0.6831840
  H        2.9735430    -2.5473740     0.0946540
  H        3.7214290     2.5491860    -0.0588690
  H        4.6397270    -0.4238340    -1.0970870
  H       -3.8083950    -1.5223380     1.7347280
  H       -3.9305460     1.4455410     0.2493860
  H       -2.2297620     1.8928800    -0.0590960
  H       -3.8005210     3.1308820    -1.6026710
  H       -2.7171960     2.0533230    -2.5048750
  H       -4.4009440     1.5743230    -2.2127240
units angstrom
no_reorient  #important for SAPT in psi4, default
symmetry c1  #important for SAPT in psi4, default
}

set PROPERTIES_ORIGIN ["COM"]
properties('MP2/aug-cc-pvtz', properties = ['dipole'])
--------------------------------------------------------------------------

    Molecular point group: c1
  Charge       = 0
  Multiplicity = 1
  Basis Set: AUG-CC-PVTZ
    Blend: AUG-CC-PVTZ
  Basis Set: (AUG-CC-PVTZ AUX)
    Blend: AUG-CC-PVTZ-JKFIT

    Orbital Energies [Eh]
    ---------------------

    Doubly Occupied:

       1A    -80.117044     2A    -20.614850     3A    -20.607184
       4A    -20.599072     5A    -20.583885     6A    -20.574660
       7A    -20.574312     8A    -20.573763     9A    -20.569706
      10A    -20.523470    11A    -11.320893    12A    -11.302495
      13A    -11.301410    14A    -11.299540    15A    -11.298249
      16A    -11.297353    17A    -11.290927    18A    -11.230019
      19A     -7.632494    20A     -5.531000    21A     -5.530628
      22A     -5.529424    23A     -1.460421    24A     -1.409920
      25A     -1.393326    26A     -1.391295    27A     -1.386677
      28A     -1.368542    29A     -1.363709    30A     -1.346566
      31A     -1.303874    32A     -1.118067    33A     -1.040589
      34A     -1.011492    35A     -1.002158    36A     -0.881938
      37A     -0.865746    38A     -0.855971    39A     -0.825446
      40A     -0.813072    41A     -0.751513    42A     -0.743700
      43A     -0.730294    44A     -0.728956    45A     -0.708633
      46A     -0.686970    47A     -0.677500    48A     -0.672069
      49A     -0.661012    50A     -0.658086    51A     -0.642870
      52A     -0.633412    53A     -0.627295    54A     -0.615802
      55A     -0.603304    56A     -0.601680    57A     -0.581322
      58A     -0.575714    59A     -0.570855    60A     -0.559661
      61A     -0.553618    62A     -0.548369    63A     -0.541278
      64A     -0.534026    65A     -0.530062    66A     -0.521310
      67A     -0.512019    68A     -0.506424    69A     -0.496757
      70A     -0.485885    71A     -0.479904    72A     -0.476919
      73A     -0.465686    74A     -0.459400    75A     -0.449368
      76A     -0.431129

  @DF-RHF Final Energy: -1327.85288851468476

   => Energetics <=

    Nuclear Repulsion Energy =           1771.9561482079564030
    One-Electron Energy =               -5356.0900892897216181
    Two-Electron Energy =                2256.2810525670806783
    Total Energy =                      -1327.8528885146847642
  Basis Set: (AUG-CC-PVTZ AUX)
    Blend: AUG-CC-PVTZ-RI
    Molecular point group: c1

    Geometry (in Angstrom), charge = 0, multiplicity = 1:

       Center              X                  Y                   Z               Mass
    ------------   -----------------  -----------------  -----------------  -----------------
         P           -2.290132060318    -0.940448533943     0.341330695526    30.973761998420
         O           -0.982189060318    -0.201967533943     0.934941695526    15.994914619570
         O            1.342213939682    -1.675888533943     1.227503695526    15.994914619570
         O            0.078668939682     2.359198466057     0.458820695526    15.994914619570
         O            3.068478939682    -2.187477533943    -0.811937304474    15.994914619570
         O            2.847298939682     2.502707466057     0.368187695526    15.994914619570
         O            4.195651939682     0.434991466057    -0.976221304474    15.994914619570
         O           -2.826899060318     0.032945466057    -0.810878304474    15.994914619570
         O           -3.259157060318    -0.723687533943     1.618323695526    15.994914619570
         O           -2.119029060318    -2.344049533943    -0.103015304474    15.994914619570
         C            0.118125939682     0.029603466057     0.012971695526    12.000000000000
         C            0.953255939682    -1.244610533943    -0.079072304474    12.000000000000
         C            0.898552939682     1.202238466057     0.561503695526    12.000000000000
         C            2.259623939682    -1.014712533943    -0.821384304474    12.000000000000
         C            2.177038939682     1.396066466057    -0.231388304474    12.000000000000
         C            3.029135239682     0.154183666057    -0.134947304474    12.000000000000
         C           -3.124249060318     1.431192466057    -0.492233304474    12.000000000000
         C           -3.536353060318     2.084759466057    -1.787466304474    12.000000000000
         H           -0.283128060318     0.298395466057    -0.973585304474     1.007825032230
         H            0.370232939682    -2.029769533943    -0.575379304474     1.007825032230
         H            1.157083939682     0.997471466057     1.608808695526     1.007825032230
         H            2.060897939682    -0.789065533943    -1.876103304474     1.007825032230
         H            1.887625839682     1.681735866057    -1.257520904474     1.007825032230
         H            3.295818939682    -0.094937533943     0.824298695526     1.007825032230
         H            0.521738939682    -1.888437533943     1.708162695526     1.007825032230
         H            0.665503939682     3.108905466057     0.679836695526     1.007825032230
         H            2.973506939682    -2.547779533943     0.091306695526     1.007825032230
         H            3.721392939682     2.548780466057    -0.062216304474     1.007825032230
         H            4.639690939682    -0.424239533943    -1.100434304474     1.007825032230
         H           -3.808431060318    -1.522743533943     1.731380695526     1.007825032230
         H           -3.930582060318     1.445135466057     0.246038695526     1.007825032230
         H           -2.229798060318     1.892474466057    -0.062443304474     1.007825032230
         H           -3.800557060318     3.130476466057    -1.606018304474     1.007825032230
         H           -2.717232060318     2.052917466057    -2.508222304474     1.007825032230
         H           -4.400980060318     1.573917466057    -2.216071304474     1.007825032230

  Basis Set: AUG-CC-PVTZ
    Blend: AUG-CC-PVTZ
  Basis Set: (AUG-CC-PVTZ AUX)
    Blend: AUG-CC-PVTZ-JKFIT
	 Reference Energy          =   -1327.8528885146847642 [Eh]
	 Singles Energy            =      -0.0000000000000000 [Eh]
	 Same-Spin Energy          =      -1.0145473361821733 [Eh]
	 Opposite-Spin Energy      =      -3.0769107309022234 [Eh]
	 Correlation Energy        =      -4.0914580670843970 [Eh]
	 Total Energy              =   -1331.9443465817691958 [Eh]

	 ================> DF-SCS-MP2 Energies <==================
	-----------------------------------------------------------
	 SCS Same-Spin Scale       =       0.3333333333333333 [-]
	 SCS Opposite-Spin Scale   =       1.2000000000000000 [-]
	 SCS Same-Spin Energy      =      -0.3381824453940577 [Eh]
	 SCS Opposite-Spin Energy  =      -3.6922928770826680 [Eh]
	 SCS Correlation Energy    =      -4.0304753224767254 [Eh]
	 SCS Total Energy          =   -1331.8833638371615962 [Eh]
	-----------------------------------------------------------

  Dipole Moment: [D]
     X:    -1.1979      Y:     1.8400      Z:     0.8147     Total:     2.3419

*** Psi4 exiting successfully. Buy a developer a beer!
