                               Psi4 1.3.2 release

  ==> Input File <==

--------------------------------------------------------------------------
#psi4
#
memory 32 gb

molecule  {
0 1
  P       -2.2900960    -0.9400430     0.3446780
  O       -0.9821530    -0.2015620     0.9382890
  O        1.3422500    -1.6754830     1.2308510
  O        0.0787050     2.3596040     0.4621680
  O        3.0685150    -2.1870720    -0.8085900
  O        2.8473350     2.5031130     0.3715350
  O        4.1956880     0.4353970    -0.9728740
  O       -2.8268630     0.0333510    -0.8075310
  O       -3.2591210    -0.7232820     1.6216710
  O       -2.1189930    -2.3436440    -0.0996680
  C        0.1181620     0.0300090     0.0163190
  C        0.9532920    -1.2442050    -0.0757250
  C        0.8985890     1.2026440     0.5648510
  C        2.2575803    -1.0007682    -0.8407461
  C        2.1770750     1.3964720    -0.2280410
  C        3.0258420     0.1487050    -0.2103220
  C       -3.1242130     1.4315980    -0.4888860
  C       -3.5363170     2.0851650    -1.7841190
  H       -0.2830920     0.2988010    -0.9702380
  H        0.3702690    -2.0293640    -0.5720320
  H        1.1571200     0.9978770     1.6121560
  H        2.0609340    -0.7886600    -1.8727560
  H        1.9169870     1.6362870    -1.2735830
  H        3.3044150    -0.0774275     0.8292500
  H        0.5217750    -1.8880320     1.7115100
  H        0.6655400     3.1093110     0.6831840
  H        2.9735430    -2.5473740     0.0946540
  H        3.7214290     2.5491860    -0.0588690
  H        4.6397270    -0.4238340    -1.0970870
  H       -3.8083950    -1.5223380     1.7347280
  H       -3.9305460     1.4455410     0.2493860
  H       -2.2297620     1.8928800    -0.0590960
  H       -3.8005210     3.1308820    -1.6026710
  H       -2.7171960     2.0533230    -2.5048750
  H       -4.4009440     1.5743230    -2.2127240
units angstrom
no_reorient  #important for SAPT in psi4, default
symmetry c1  #important for SAPT in psi4, default
}

set PROPERTIES_ORIGIN ["COM"]
properties('MP2/aug-cc-pvtz', properties = ['dipole'])
--------------------------------------------------------------------------

    Molecular point group: c1
  Charge       = 0
  Multiplicity = 1
  Basis Set: AUG-CC-PVTZ
    Blend: AUG-CC-PVTZ
  Basis Set: (AUG-CC-PVTZ AUX)
    Blend: AUG-CC-PVTZ-JKFIT

    Orbital Energies [Eh]
    ---------------------

    Doubly Occupied:

       1A    -80.116835     2A    -20.614651     3A    -20.606732
       4A    -20.598904     5A    -20.583308     6A    -20.576985
       7A    -20.573592     8A    -20.573566     9A    -20.572533
      10A    -20.523333    11A    -11.320452    12A    -11.304129
      13A    -11.299389    14A    -11.299387    15A    -11.298701
      16A    -11.296672    17A    -11.291913    18A    -11.229901
      19A     -7.632284    20A     -5.530790    21A     -5.530417
      22A     -5.529215    23A     -1.460146    24A     -1.409802
      25A     -1.394673    26A     -1.391383    27A     -1.386725
      28A     -1.372626    29A     -1.362321    30A     -1.352095
      31A     -1.303731    32A     -1.119062    33A     -1.040479
      34A     -1.012307    35A     -1.002976    36A     -0.879747
      37A     -0.864716    38A     -0.860316    39A     -0.822644
      40A     -0.811408    41A     -0.750705    42A     -0.744635
      43A     -0.731214    44A     -0.728434    45A     -0.707829
      46A     -0.687030    47A     -0.677265    48A     -0.673447
      49A     -0.662713    50A     -0.660782    51A     -0.642994
      52A     -0.635238    53A     -0.626493    54A     -0.615039
      55A     -0.603863    56A     -0.598678    57A     -0.582009
      58A     -0.575775    59A     -0.570669    60A     -0.559541
      61A     -0.557464    62A     -0.548505    63A     -0.541337
      64A     -0.535961    65A     -0.530544    66A     -0.521866
      67A     -0.512955    68A     -0.503986    69A     -0.497013
      70A     -0.484342    71A     -0.479737    72A     -0.476537
      73A     -0.462104    74A     -0.455382    75A     -0.449813
      76A     -0.437162

  @DF-RHF Final Energy: -1327.86077409953941

   => Energetics <=

    Nuclear Repulsion Energy =           1772.1637197577283587
    One-Electron Energy =               -5356.4891668490336087
    Two-Electron Energy =                2256.4646729917658377
    Total Energy =                      -1327.8607740995394124
  Basis Set: (AUG-CC-PVTZ AUX)
    Blend: AUG-CC-PVTZ-RI
    Molecular point group: c1

    Geometry (in Angstrom), charge = 0, multiplicity = 1:

       Center              X                  Y                   Z               Mass
    ------------   -----------------  -----------------  -----------------  -----------------
         P           -2.290039279809    -0.940666822177     0.345618391000    30.973761998420
         O           -0.982096279809    -0.202185822177     0.939229391000    15.994914619570
         O            1.342306720191    -1.676106822177     1.231791391000    15.994914619570
         O            0.078761720191     2.358980177823     0.463108391000    15.994914619570
         O            3.068571720191    -2.187695822177    -0.807649609000    15.994914619570
         O            2.847391720191     2.502489177823     0.372475391000    15.994914619570
         O            4.195744720191     0.434773177823    -0.971933609000    15.994914619570
         O           -2.826806279809     0.032727177823    -0.806590609000    15.994914619570
         O           -3.259064279809    -0.723905822177     1.622611391000    15.994914619570
         O           -2.118936279809    -2.344267822177    -0.098727609000    15.994914619570
         C            0.118218720191     0.029385177823     0.017259391000    12.000000000000
         C            0.953348720191    -1.244828822177    -0.074784609000    12.000000000000
         C            0.898645720191     1.202020177823     0.565791391000    12.000000000000
         C            2.257637020191    -1.001392022177    -0.839805709000    12.000000000000
         C            2.177131720191     1.395848177823    -0.227100609000    12.000000000000
         C            3.025898720191     0.148081177823    -0.209381609000    12.000000000000
         C           -3.124156279809     1.430974177823    -0.487945609000    12.000000000000
         C           -3.536260279809     2.084541177823    -1.783178609000    12.000000000000
         H           -0.283035279809     0.298177177823    -0.969297609000     1.007825032230
         H            0.370325720191    -2.029987822177    -0.571091609000     1.007825032230
         H            1.157176720191     0.997253177823     1.613096391000     1.007825032230
         H            2.060990720191    -0.789283822177    -1.871815609000     1.007825032230
         H            1.917043720191     1.635663177823    -1.272642609000     1.007825032230
         H            3.304471720191    -0.078051322177     0.830190391000     1.007825032230
         H            0.521831720191    -1.888655822177     1.712450391000     1.007825032230
         H            0.665596720191     3.108687177823     0.684124391000     1.007825032230
         H            2.973599720191    -2.547997822177     0.095594391000     1.007825032230
         H            3.721485720191     2.548562177823    -0.057928609000     1.007825032230
         H            4.639783720191    -0.424457822177    -1.096146609000     1.007825032230
         H           -3.808338279809    -1.522961822177     1.735668391000     1.007825032230
         H           -3.930489279809     1.444917177823     0.250326391000     1.007825032230
         H           -2.229705279809     1.892256177823    -0.058155609000     1.007825032230
         H           -3.800464279809     3.130258177823    -1.601730609000     1.007825032230
         H           -2.717139279809     2.052699177823    -2.503934609000     1.007825032230
         H           -4.400887279809     1.573699177823    -2.211783609000     1.007825032230

  Basis Set: AUG-CC-PVTZ
    Blend: AUG-CC-PVTZ
  Basis Set: (AUG-CC-PVTZ AUX)
    Blend: AUG-CC-PVTZ-JKFIT
	 Reference Energy          =   -1327.8607740995394124 [Eh]
	 Singles Energy            =      -0.0000000000000000 [Eh]
	 Same-Spin Energy          =      -1.0144576141409285 [Eh]
	 Opposite-Spin Energy      =      -3.0760501137960707 [Eh]
	 Correlation Energy        =      -4.0905077279369992 [Eh]
	 Total Energy              =   -1331.9512818274763504 [Eh]

	 ================> DF-SCS-MP2 Energies <==================
	-----------------------------------------------------------
	 SCS Same-Spin Scale       =       0.3333333333333333 [-]
	 SCS Opposite-Spin Scale   =       1.2000000000000000 [-]
	 SCS Same-Spin Energy      =      -0.3381525380469761 [Eh]
	 SCS Opposite-Spin Energy  =      -3.6912601365552846 [Eh]
	 SCS Correlation Energy    =      -4.0294126746022609 [Eh]
	 SCS Total Energy          =   -1331.8901867741417391 [Eh]
	-----------------------------------------------------------

  Dipole Moment: [D]
     X:    -1.1223      Y:     1.9063      Z:     0.7021     Total:     2.3209

*** Psi4 exiting successfully. Buy a developer a beer!
