                               Psi4 1.3.2 release

  ==> Input File <==

--------------------------------------------------------------------------
#psi4
#
memory 32 gb

molecule  {
0 1
  P       -2.2900960    -0.9400430     0.3446780
  O       -0.9821530    -0.2015620     0.9382890
  O        1.3422500    -1.6754830     1.2308510
  O        0.0787050     2.3596040     0.4621680
  O        3.0685150    -2.1870720    -0.8085900
  O        2.8473350     2.5031130     0.3715350
  O        4.1956880     0.4353970    -0.9728740
  O       -2.8268630     0.0333510    -0.8075310
  O       -3.2591210    -0.7232820     1.6216710
  O       -2.1189930    -2.3436440    -0.0996680
  C        0.1181620     0.0300090     0.0163190
  C        0.9532920    -1.2442050    -0.0757250
  C        0.8985890     1.2026440     0.5648510
  C        2.2596600    -1.0143070    -0.8180370
  C        2.1770750     1.3964720    -0.2280410
  C        3.0258420     0.1487050    -0.2103220
  C       -3.1242130     1.4315980    -0.4888860
  C       -3.5363170     2.0851650    -1.7841190
  H       -0.2830920     0.2988010    -0.9702380
  H        0.3702690    -2.0293640    -0.5720320
  H        1.1571200     0.9978770     1.6121560
  H        2.0609340    -0.7886600    -1.8727560
  H        1.9169870     1.6362870    -1.2735830
  H        3.2958550    -0.0945320     0.8276460
  H        0.5217750    -1.8880320     1.7115100
  H        0.6655400     3.1093110     0.6831840
  H        2.9735430    -2.5473740     0.0946540
  H        3.6318154     2.5444625    -0.0147432
  H        4.6397270    -0.4238340    -1.0970870
  H       -3.8083950    -1.5223380     1.7347280
  H       -3.9305460     1.4455410     0.2493860
  H       -2.2297620     1.8928800    -0.0590960
  H       -3.8005210     3.1308820    -1.6026710
  H       -2.7171960     2.0533230    -2.5048750
  H       -4.4009440     1.5743230    -2.2127240
units angstrom
no_reorient  #important for SAPT in psi4, default
symmetry c1  #important for SAPT in psi4, default
}

set PROPERTIES_ORIGIN ["COM"]
properties('MP2/aug-cc-pvtz', properties = ['dipole'])
--------------------------------------------------------------------------

    Molecular point group: c1
  Charge       = 0
  Multiplicity = 1
  Basis Set: AUG-CC-PVTZ
    Blend: AUG-CC-PVTZ
  Basis Set: (AUG-CC-PVTZ AUX)
    Blend: AUG-CC-PVTZ-JKFIT

    Orbital Energies [Eh]
    ---------------------

    Doubly Occupied:

       1A    -80.117233     2A    -20.614984     3A    -20.607416
       4A    -20.599213     5A    -20.583490     6A    -20.574945
       7A    -20.574157     8A    -20.573669     9A    -20.568678
      10A    -20.523700    11A    -11.321224    12A    -11.303915
      13A    -11.299806    14A    -11.299652    15A    -11.299419
      16A    -11.298127    17A    -11.292093    18A    -11.230088
      19A     -7.632683    20A     -5.531189    21A     -5.530816
      22A     -5.529613    23A     -1.460612    24A     -1.417226
      25A     -1.404700    26A     -1.393744    27A     -1.387122
      28A     -1.373637    29A     -1.370157    30A     -1.357271
      31A     -1.304097    32A     -1.121177    33A     -1.040739
      34A     -1.014268    35A     -1.006091    36A     -0.883002
      37A     -0.866149    38A     -0.860376    39A     -0.825020
      40A     -0.811361    41A     -0.756583    42A     -0.747165
      43A     -0.732022    44A     -0.729877    45A     -0.714618
      46A     -0.687738    47A     -0.678511    48A     -0.674931
      49A     -0.664383    50A     -0.662754    51A     -0.647469
      52A     -0.635852    53A     -0.627901    54A     -0.616090
      55A     -0.604949    56A     -0.599410    57A     -0.582333
      58A     -0.575848    59A     -0.571781    60A     -0.562345
      61A     -0.557552    62A     -0.549118    63A     -0.541526
      64A     -0.537173    65A     -0.530355    66A     -0.522498
      67A     -0.514261    68A     -0.504942    69A     -0.497823
      70A     -0.485326    71A     -0.480217    72A     -0.476896
      73A     -0.463887    74A     -0.457828    75A     -0.450861
      76A     -0.436744

  @DF-RHF Final Energy: -1327.85663695283961

   => Energetics <=

    Nuclear Repulsion Energy =           1773.1654576611113043
    One-Electron Energy =               -5358.2793324652211595
    Two-Electron Energy =                2257.2572378512704745
    Total Energy =                      -1327.8566369528393807
  Basis Set: (AUG-CC-PVTZ AUX)
    Blend: AUG-CC-PVTZ-RI
    Molecular point group: c1

    Geometry (in Angstrom), charge = 0, multiplicity = 1:

       Center              X                  Y                   Z               Mass
    ------------   -----------------  -----------------  -----------------  -----------------
         P           -2.289782440436    -0.940026456447     0.344523609986    30.973761998420
         O           -0.981839440436    -0.201545456447     0.938134609986    15.994914619570
         O            1.342563559564    -1.675466456447     1.230696609986    15.994914619570
         O            0.079018559564     2.359620543553     0.462013609986    15.994914619570
         O            3.068828559564    -2.187055456447    -0.808744390014    15.994914619570
         O            2.847648559564     2.503129543553     0.371380609986    15.994914619570
         O            4.196001559564     0.435413543553    -0.973028390014    15.994914619570
         O           -2.826549440436     0.033367543553    -0.807685390014    15.994914619570
         O           -3.258807440436    -0.723265456447     1.621516609986    15.994914619570
         O           -2.118679440436    -2.343627456447    -0.099822390014    15.994914619570
         C            0.118475559564     0.030025543553     0.016164609986    12.000000000000
         C            0.953605559564    -1.244188456447    -0.075879390014    12.000000000000
         C            0.898902559564     1.202660543553     0.564696609986    12.000000000000
         C            2.259973559564    -1.014290456447    -0.818191390014    12.000000000000
         C            2.177388559564     1.396488543553    -0.228195390014    12.000000000000
         C            3.026155559564     0.148721543553    -0.210476390014    12.000000000000
         C           -3.123899440436     1.431614543553    -0.489040390014    12.000000000000
         C           -3.536003440436     2.085181543553    -1.784273390014    12.000000000000
         H           -0.282778440436     0.298817543553    -0.970392390014     1.007825032230
         H            0.370582559564    -2.029347456447    -0.572186390014     1.007825032230
         H            1.157433559564     0.997893543553     1.612001609986     1.007825032230
         H            2.061247559564    -0.788643456447    -1.872910390014     1.007825032230
         H            1.917300559564     1.636303543553    -1.273737390014     1.007825032230
         H            3.296168559564    -0.094515456447     0.827491609986     1.007825032230
         H            0.522088559564    -1.888015456447     1.711355609986     1.007825032230
         H            0.665853559564     3.109327543553     0.683029609986     1.007825032230
         H            2.973856559564    -2.547357456447     0.094499609986     1.007825032230
         H            3.632128959564     2.544479043553    -0.014897590014     1.007825032230
         H            4.640040559564    -0.423817456447    -1.097241390014     1.007825032230
         H           -3.808081440436    -1.522321456447     1.734573609986     1.007825032230
         H           -3.930232440436     1.445557543553     0.249231609986     1.007825032230
         H           -2.229448440436     1.892896543553    -0.059250390014     1.007825032230
         H           -3.800207440436     3.130898543553    -1.602825390014     1.007825032230
         H           -2.716882440436     2.053339543553    -2.505029390014     1.007825032230
         H           -4.400630440436     1.574339543553    -2.212878390014     1.007825032230

  Basis Set: AUG-CC-PVTZ
    Blend: AUG-CC-PVTZ
  Basis Set: (AUG-CC-PVTZ AUX)
    Blend: AUG-CC-PVTZ-JKFIT
	 Reference Energy          =   -1327.8566369528396081 [Eh]
	 Singles Energy            =      -0.0000000000000000 [Eh]
	 Same-Spin Energy          =      -1.0133100253615455 [Eh]
	 Opposite-Spin Energy      =      -3.0731058582351554 [Eh]
	 Correlation Energy        =      -4.0864158835967004 [Eh]
	 Total Energy              =   -1331.9430528364362090 [Eh]

	 ================> DF-SCS-MP2 Energies <==================
	-----------------------------------------------------------
	 SCS Same-Spin Scale       =       0.3333333333333333 [-]
	 SCS Opposite-Spin Scale   =       1.2000000000000000 [-]
	 SCS Same-Spin Energy      =      -0.3377700084538485 [Eh]
	 SCS Opposite-Spin Energy  =      -3.6877270298821863 [Eh]
	 SCS Correlation Energy    =      -4.0254970383360344 [Eh]
	 SCS Total Energy          =   -1331.8821339911755786 [Eh]
	-----------------------------------------------------------

  Dipole Moment: [D]
     X:    -1.2267      Y:     1.8366      Z:     0.7571     Total:     2.3347

*** Psi4 exiting successfully. Buy a developer a beer!
