                               Psi4 1.3.2 release

  ==> Input File <==

--------------------------------------------------------------------------
#psi4
#
memory 32 gb

molecule  {
0 1
  P       -2.2900960    -0.9400430     0.3446780
  O       -0.9821530    -0.2015620     0.9382890
  O        1.3422500    -1.6754830     1.2308510
  O        0.0787050     2.3596040     0.4621680
  O        3.0685150    -2.1870720    -0.8085900
  O        2.8473350     2.5031130     0.3715350
  O        4.1956880     0.4353970    -0.9728740
  O       -2.8268630     0.0333510    -0.8075310
  O       -3.2591210    -0.7232820     1.6216710
  O       -2.1189930    -2.3436440    -0.0996680
  C        0.1181620     0.0300090     0.0163190
  C        0.9532920    -1.2442050    -0.0757250
  C        0.8985890     1.2026440     0.5648510
  C        2.2596600    -1.0143070    -0.8180370
  C        2.1770750     1.3964720    -0.2280410
  C        3.0258420     0.1487050    -0.2103220
  C       -3.1242130     1.4315980    -0.4888860
  C       -3.5363170     2.0851650    -1.7841190
  H       -0.2830920     0.2988010    -0.9702380
  H        0.3702690    -2.0293640    -0.5720320
  H        1.1571200     0.9978770     1.6121560
  H        2.0609340    -0.7886600    -1.8727560
  H        1.9169870     1.6362870    -1.2735830
  H        3.2958550    -0.0945320     0.8276460
  H        0.5217750    -1.8880320     1.7115100
  H        0.6655400     3.1093110     0.6831840
  H        2.9735430    -2.5473740     0.0946540
  H        3.7214290     2.5491860    -0.0588690
  H        4.6397270    -0.4238340    -1.0970870
  H       -3.8646613    -1.6041914     1.7463093
  H       -3.9305460     1.4455410     0.2493860
  H       -2.2297620     1.8928800    -0.0590960
  H       -3.8005210     3.1308820    -1.6026710
  H       -2.7171960     2.0533230    -2.5048750
  H       -4.4009440     1.5743230    -2.2127240
units angstrom
no_reorient  #important for SAPT in psi4, default
symmetry c1  #important for SAPT in psi4, default
}

set PROPERTIES_ORIGIN ["COM"]
properties('MP2/aug-cc-pvtz', properties = ['dipole'])
--------------------------------------------------------------------------

    Molecular point group: c1
  Charge       = 0
  Multiplicity = 1
  Basis Set: AUG-CC-PVTZ
    Blend: AUG-CC-PVTZ
  Basis Set: (AUG-CC-PVTZ AUX)
    Blend: AUG-CC-PVTZ-JKFIT

    Orbital Energies [Eh]
    ---------------------

    Doubly Occupied:

       1A    -80.115085     2A    -20.619934     3A    -20.606131
       4A    -20.597800     5A    -20.582678     6A    -20.576474
       7A    -20.574293     8A    -20.573810     9A    -20.573021
      10A    -20.521815    11A    -11.320125    12A    -11.303036
      13A    -11.298980    14A    -11.298585    15A    -11.298154
      16A    -11.296314    17A    -11.291105    18A    -11.229306
      19A     -7.630533    20A     -5.529005    21A     -5.528683
      22A     -5.527480    23A     -1.455571    24A     -1.408940
      25A     -1.393524    26A     -1.390918    27A     -1.376006
      28A     -1.369945    29A     -1.363571    30A     -1.353371
      31A     -1.301561    32A     -1.118518    33A     -1.039643
      34A     -1.011230    35A     -1.003019    36A     -0.877554
      37A     -0.864114    38A     -0.858338    39A     -0.814097
      40A     -0.809346    41A     -0.750891    42A     -0.742168
      43A     -0.727663    44A     -0.725922    45A     -0.700967
      46A     -0.685914    47A     -0.677400    48A     -0.670421
      49A     -0.661024    50A     -0.659215    51A     -0.642216
      52A     -0.633963    53A     -0.623888    54A     -0.614200
      55A     -0.602422    56A     -0.598067    57A     -0.580607
      58A     -0.573078    59A     -0.570374    60A     -0.558517
      61A     -0.555793    62A     -0.547770    63A     -0.539779
      64A     -0.536151    65A     -0.528792    66A     -0.521056
      67A     -0.512382    68A     -0.503813    69A     -0.495931
      70A     -0.484128    71A     -0.478794    72A     -0.475041
      73A     -0.461720    74A     -0.455536    75A     -0.449492
      76A     -0.435872

  @DF-RHF Final Energy: -1327.84839835413459

   => Energetics <=

    Nuclear Repulsion Energy =           1771.7226236589069686
    One-Electron Energy =               -5355.7768836224604456
    Two-Electron Energy =                2256.2058616094191166
    Total Energy =                      -1327.8483983541345879
  Basis Set: (AUG-CC-PVTZ AUX)
    Blend: AUG-CC-PVTZ-RI
    Molecular point group: c1

    Geometry (in Angstrom), charge = 0, multiplicity = 1:

       Center              X                  Y                   Z               Mass
    ------------   -----------------  -----------------  -----------------  -----------------
         P           -2.289899111007    -0.939756605829     0.344637471841    30.973761998420
         O           -0.981956111007    -0.201275605829     0.938248471841    15.994914619570
         O            1.342446888993    -1.675196605829     1.230810471841    15.994914619570
         O            0.078901888993     2.359890394171     0.462127471841    15.994914619570
         O            3.068711888993    -2.186785605829    -0.808630528159    15.994914619570
         O            2.847531888993     2.503399394171     0.371494471841    15.994914619570
         O            4.195884888993     0.435683394171    -0.972914528159    15.994914619570
         O           -2.826666111007     0.033637394171    -0.807571528159    15.994914619570
         O           -3.258924111007    -0.722995605829     1.621630471841    15.994914619570
         O           -2.118796111007    -2.343357605829    -0.099708528159    15.994914619570
         C            0.118358888993     0.030295394171     0.016278471841    12.000000000000
         C            0.953488888993    -1.243918605829    -0.075765528159    12.000000000000
         C            0.898785888993     1.202930394171     0.564810471841    12.000000000000
         C            2.259856888993    -1.014020605829    -0.818077528159    12.000000000000
         C            2.177271888993     1.396758394171    -0.228081528159    12.000000000000
         C            3.026038888993     0.148991394171    -0.210362528159    12.000000000000
         C           -3.124016111007     1.431884394171    -0.488926528159    12.000000000000
         C           -3.536120111007     2.085451394171    -1.784159528159    12.000000000000
         H           -0.282895111007     0.299087394171    -0.970278528159     1.007825032230
         H            0.370465888993    -2.029077605829    -0.572072528159     1.007825032230
         H            1.157316888993     0.998163394171     1.612115471841     1.007825032230
         H            2.061130888993    -0.788373605829    -1.872796528159     1.007825032230
         H            1.917183888993     1.636573394171    -1.273623528159     1.007825032230
         H            3.296051888993    -0.094245605829     0.827605471841     1.007825032230
         H            0.521971888993    -1.887745605829     1.711469471841     1.007825032230
         H            0.665736888993     3.109597394171     0.683143471841     1.007825032230
         H            2.973739888993    -2.547087605829     0.094613471841     1.007825032230
         H            3.721625888993     2.549472394171    -0.058909528159     1.007825032230
         H            4.639923888993    -0.423547605829    -1.097127528159     1.007825032230
         H           -3.864464411007    -1.603905005829     1.746268771841     1.007825032230
         H           -3.930349111007     1.445827394171     0.249345471841     1.007825032230
         H           -2.229565111007     1.893166394171    -0.059136528159     1.007825032230
         H           -3.800324111007     3.131168394171    -1.602711528159     1.007825032230
         H           -2.716999111007     2.053609394171    -2.504915528159     1.007825032230
         H           -4.400747111007     1.574609394171    -2.212764528159     1.007825032230

  Basis Set: AUG-CC-PVTZ
    Blend: AUG-CC-PVTZ
  Basis Set: (AUG-CC-PVTZ AUX)
    Blend: AUG-CC-PVTZ-JKFIT
	 Reference Energy          =   -1327.8483983541345879 [Eh]
	 Singles Energy            =      -0.0000000000000000 [Eh]
	 Same-Spin Energy          =      -1.0157054302223727 [Eh]
	 Opposite-Spin Energy      =      -3.0789236446818347 [Eh]
	 Correlation Energy        =      -4.0946290749042076 [Eh]
	 Total Energy              =   -1331.9430274290386933 [Eh]

	 ================> DF-SCS-MP2 Energies <==================
	-----------------------------------------------------------
	 SCS Same-Spin Scale       =       0.3333333333333333 [-]
	 SCS Opposite-Spin Scale   =       1.2000000000000000 [-]
	 SCS Same-Spin Energy      =      -0.3385684767407909 [Eh]
	 SCS Opposite-Spin Energy  =      -3.6947083736182016 [Eh]
	 SCS Correlation Energy    =      -4.0332768503589929 [Eh]
	 SCS Total Energy          =   -1331.8816752044936038 [Eh]
	-----------------------------------------------------------

  Dipole Moment: [D]
     X:    -1.2369      Y:     1.7455      Z:     0.7885     Total:     2.2800

*** Psi4 exiting successfully. Buy a developer a beer!
