                               Psi4 1.3.2 release

  ==> Input File <==

--------------------------------------------------------------------------
#psi4
#
memory 32 gb

molecule  {
0 1
  P       -2.2900960    -0.9400430     0.3446780
  O       -0.9821530    -0.2015620     0.9382890
  O        1.3422500    -1.6754830     1.2308510
  O        0.0787050     2.3596040     0.4621680
  O        3.0685150    -2.1870720    -0.8085900
  O        2.8452314     2.5156876     0.3501610
  O        4.1956880     0.4353970    -0.9728740
  O       -2.8268630     0.0333510    -0.8075310
  O       -3.2591210    -0.7232820     1.6216710
  O       -2.1189930    -2.3436440    -0.0996680
  C        0.1181620     0.0300090     0.0163190
  C        0.9532920    -1.2442050    -0.0757250
  C        0.8985890     1.2026440     0.5648510
  C        2.2596600    -1.0143070    -0.8180370
  C        2.1770750     1.3964720    -0.2280410
  C        3.0258420     0.1487050    -0.2103220
  C       -3.1242130     1.4315980    -0.4888860
  C       -3.5363170     2.0851650    -1.7841190
  H       -0.2830920     0.2988010    -0.9702380
  H        0.3702690    -2.0293640    -0.5720320
  H        1.1571200     0.9978770     1.6121560
  H        2.0609340    -0.7886600    -1.8727560
  H        1.9250129     1.6536651    -1.2714160
  H        3.2958550    -0.0945320     0.8276460
  H        0.5217750    -1.8880320     1.7115100
  H        0.6655400     3.1093110     0.6831840
  H        2.9735430    -2.5473740     0.0946540
  H        3.7214290     2.5491860    -0.0588690
  H        4.6397270    -0.4238340    -1.0970870
  H       -3.8083950    -1.5223380     1.7347280
  H       -3.9305460     1.4455410     0.2493860
  H       -2.2297620     1.8928800    -0.0590960
  H       -3.8005210     3.1308820    -1.6026710
  H       -2.7171960     2.0533230    -2.5048750
  H       -4.4009440     1.5743230    -2.2127240
units angstrom
no_reorient  #important for SAPT in psi4, default
symmetry c1  #important for SAPT in psi4, default
}

set PROPERTIES_ORIGIN ["COM"]
properties('MP2/aug-cc-pvtz', properties = ['dipole'])
--------------------------------------------------------------------------

    Molecular point group: c1
  Charge       = 0
  Multiplicity = 1
  Basis Set: AUG-CC-PVTZ
    Blend: AUG-CC-PVTZ
  Basis Set: (AUG-CC-PVTZ AUX)
    Blend: AUG-CC-PVTZ-JKFIT

    Orbital Energies [Eh]
    ---------------------

    Doubly Occupied:

       1A    -80.117046     2A    -20.614816     3A    -20.607193
       4A    -20.598994     5A    -20.583349     6A    -20.575125
       7A    -20.574851     8A    -20.574262     9A    -20.573502
      10A    -20.523529    11A    -11.321008    12A    -11.303736
      13A    -11.299661    14A    -11.299409    15A    -11.299047
      16A    -11.296618    17A    -11.292052    18A    -11.229855
      19A     -7.632495    20A     -5.531001    21A     -5.530628
      22A     -5.529426    23A     -1.460397    24A     -1.411027
      25A     -1.395018    26A     -1.393227    27A     -1.386926
      28A     -1.372901    29A     -1.364334    30A     -1.354280
      31A     -1.303924    32A     -1.119279    33A     -1.040476
      34A     -1.012278    35A     -1.003755    36A     -0.880597
      37A     -0.865056    38A     -0.859306    39A     -0.822742
      40A     -0.810816    41A     -0.751623    42A     -0.745505
      43A     -0.731534    44A     -0.728912    45A     -0.708497
      46A     -0.687277    47A     -0.678373    48A     -0.673771
      49A     -0.662343    50A     -0.661445    51A     -0.643343
      52A     -0.635081    53A     -0.627355    54A     -0.615589
      55A     -0.604405    56A     -0.598611    57A     -0.581994
      58A     -0.575636    59A     -0.571323    60A     -0.559352
      61A     -0.556647    62A     -0.548719    63A     -0.541192
      64A     -0.536460    65A     -0.529978    66A     -0.521911
      67A     -0.512699    68A     -0.504426    69A     -0.497064
      70A     -0.485017    71A     -0.479893    72A     -0.476712
      73A     -0.462062    74A     -0.456140    75A     -0.450042
      76A     -0.436725

  @DF-RHF Final Energy: -1327.86194720573712

   => Energetics <=

    Nuclear Repulsion Energy =           1772.2849501859304837
    One-Electron Energy =               -5356.6905946116594350
    Two-Electron Energy =                2256.5436972199918273
    Total Energy =                      -1327.8619472057371240
  Basis Set: (AUG-CC-PVTZ AUX)
    Blend: AUG-CC-PVTZ-RI
    Molecular point group: c1

    Geometry (in Angstrom), charge = 0, multiplicity = 1:

       Center              X                  Y                   Z               Mass
    ------------   -----------------  -----------------  -----------------  -----------------
         P           -2.290007242216    -0.940802001155     0.345857224771    30.973761998420
         O           -0.982064242216    -0.202321001155     0.939468224771    15.994914619570
         O            1.342338757784    -1.676242001155     1.232030224771    15.994914619570
         O            0.078793757784     2.358844998845     0.463347224771    15.994914619570
         O            3.068603757784    -2.187831001155    -0.807410775229    15.994914619570
         O            2.845320157784     2.514928598845     0.351340224771    15.994914619570
         O            4.195776757784     0.434637998845    -0.971694775229    15.994914619570
         O           -2.826774242216     0.032591998845    -0.806351775229    15.994914619570
         O           -3.259032242216    -0.724041001155     1.622850224771    15.994914619570
         O           -2.118904242216    -2.344403001155    -0.098488775229    15.994914619570
         C            0.118250757784     0.029249998845     0.017498224771    12.000000000000
         C            0.953380757784    -1.244964001155    -0.074545775229    12.000000000000
         C            0.898677757784     1.201884998845     0.566030224771    12.000000000000
         C            2.259748757784    -1.015066001155    -0.816857775229    12.000000000000
         C            2.177163757784     1.395712998845    -0.226861775229    12.000000000000
         C            3.025930757784     0.147945998845    -0.209142775229    12.000000000000
         C           -3.124124242216     1.430838998845    -0.487706775229    12.000000000000
         C           -3.536228242216     2.084405998845    -1.782939775229    12.000000000000
         H           -0.283003242216     0.298041998845    -0.969058775229     1.007825032230
         H            0.370357757784    -2.030123001155    -0.570852775229     1.007825032230
         H            1.157208757784     0.997117998845     1.613335224771     1.007825032230
         H            2.061022757784    -0.789419001155    -1.871576775229     1.007825032230
         H            1.925101657784     1.652906098845    -1.270236775229     1.007825032230
         H            3.295943757784    -0.095291001155     0.828825224771     1.007825032230
         H            0.521863757784    -1.888791001155     1.712689224771     1.007825032230
         H            0.665628757784     3.108551998845     0.684363224771     1.007825032230
         H            2.973631757784    -2.548133001155     0.095833224771     1.007825032230
         H            3.721517757784     2.548426998845    -0.057689775229     1.007825032230
         H            4.639815757784    -0.424593001155    -1.095907775229     1.007825032230
         H           -3.808306242216    -1.523097001155     1.735907224771     1.007825032230
         H           -3.930457242216     1.444781998845     0.250565224771     1.007825032230
         H           -2.229673242216     1.892120998845    -0.057916775229     1.007825032230
         H           -3.800432242216     3.130122998845    -1.601491775229     1.007825032230
         H           -2.717107242216     2.052563998845    -2.503695775229     1.007825032230
         H           -4.400855242216     1.573563998845    -2.211544775229     1.007825032230

  Basis Set: AUG-CC-PVTZ
    Blend: AUG-CC-PVTZ
  Basis Set: (AUG-CC-PVTZ AUX)
    Blend: AUG-CC-PVTZ-JKFIT
	 Reference Energy          =   -1327.8619472057371240 [Eh]
	 Singles Energy            =      -0.0000000000000000 [Eh]
	 Same-Spin Energy          =      -1.0144334429102866 [Eh]
	 Opposite-Spin Energy      =      -3.0757211447538380 [Eh]
	 Correlation Energy        =      -4.0901545876641245 [Eh]
	 Total Energy              =   -1331.9521017934011979 [Eh]

	 ================> DF-SCS-MP2 Energies <==================
	-----------------------------------------------------------
	 SCS Same-Spin Scale       =       0.3333333333333333 [-]
	 SCS Opposite-Spin Scale   =       1.2000000000000000 [-]
	 SCS Same-Spin Energy      =      -0.3381444809700955 [Eh]
	 SCS Opposite-Spin Energy  =      -3.6908653737046055 [Eh]
	 SCS Correlation Energy    =      -4.0290098546747011 [Eh]
	 SCS Total Energy          =   -1331.8909570604118926 [Eh]
	-----------------------------------------------------------

  Dipole Moment: [D]
     X:    -1.1134      Y:     1.8229      Z:     0.7553     Total:     2.2656

*** Psi4 exiting successfully. Buy a developer a beer!
