                               Psi4 1.3.2 release

  ==> Input File <==

--------------------------------------------------------------------------
#psi4
#
memory 32 gb

molecule  {
0 1
  P       -2.2900960    -0.9400430     0.3446780
  O       -0.9821530    -0.2015620     0.9382890
  O        1.3422500    -1.6754830     1.2308510
  O        0.0787050     2.3596040     0.4621680
  O        3.0685150    -2.1870720    -0.8085900
  O        2.8473350     2.5031130     0.3715350
  O        4.1956880     0.4353970    -0.9728740
  O       -2.8268630     0.0333510    -0.8075310
  O       -3.2591210    -0.7232820     1.6216710
  O       -2.1189930    -2.3436440    -0.0996680
  C        0.1181620     0.0300090     0.0163190
  C        0.9532920    -1.2442050    -0.0757250
  C        0.8985890     1.2026440     0.5648510
  C        2.2596600    -1.0143070    -0.8180370
  C        2.2710825     1.5516842    -0.1439473
  C        3.0258420     0.1487050    -0.2103220
  C       -3.1242130     1.4315980    -0.4888860
  C       -3.5363170     2.0851650    -1.7841190
  H       -0.2830920     0.2988010    -0.9702380
  H        0.3702690    -2.0293640    -0.5720320
  H        1.1571200     0.9978770     1.6121560
  H        2.0609340    -0.7886600    -1.8727560
  H        1.9169870     1.6362870    -1.2735830
  H        3.2958550    -0.0945320     0.8276460
  H        0.5217750    -1.8880320     1.7115100
  H        0.6655400     3.1093110     0.6831840
  H        2.9735430    -2.5473740     0.0946540
  H        3.7214290     2.5491860    -0.0588690
  H        4.6397270    -0.4238340    -1.0970870
  H       -3.8083950    -1.5223380     1.7347280
  H       -3.9305460     1.4455410     0.2493860
  H       -2.2297620     1.8928800    -0.0590960
  H       -3.8005210     3.1308820    -1.6026710
  H       -2.7171960     2.0533230    -2.5048750
  H       -4.4009440     1.5743230    -2.2127240
units angstrom
no_reorient  #important for SAPT in psi4, default
symmetry c1  #important for SAPT in psi4, default
}

set PROPERTIES_ORIGIN ["COM"]
properties('MP2/aug-cc-pvtz', properties = ['dipole'])
--------------------------------------------------------------------------

    Molecular point group: c1
  Charge       = 0
  Multiplicity = 1
  Basis Set: AUG-CC-PVTZ
    Blend: AUG-CC-PVTZ
  Basis Set: (AUG-CC-PVTZ AUX)
    Blend: AUG-CC-PVTZ-JKFIT

    Orbital Energies [Eh]
    ---------------------

    Doubly Occupied:

       1A    -80.115662     2A    -20.613592     3A    -20.605827
       4A    -20.601252     5A    -20.597376     6A    -20.579907
       7A    -20.573108     8A    -20.569854     9A    -20.569341
      10A    -20.521921    11A    -11.319328    12A    -11.304992
      13A    -11.299965    14A    -11.297886    15A    -11.296848
      16A    -11.294159    17A    -11.285842    18A    -11.228496
      19A     -7.631088    20A     -5.529593    21A     -5.529230
      22A     -5.528016    23A     -1.487013    24A     -1.458716
      25A     -1.405362    26A     -1.391082    27A     -1.385324
      28A     -1.372473    29A     -1.368326    30A     -1.355177
      31A     -1.302312    32A     -1.101766    33A     -1.038869
      34A     -1.000162    35A     -0.991219    36A     -0.883206
      37A     -0.865708    38A     -0.853795    39A     -0.829514
      40A     -0.805416    41A     -0.766875    42A     -0.745696
      43A     -0.733431    44A     -0.728301    45A     -0.718717
      46A     -0.686847    47A     -0.680873    48A     -0.673855
      49A     -0.672661    50A     -0.665331    51A     -0.652474
      52A     -0.640888    53A     -0.629601    54A     -0.623492
      55A     -0.609159    56A     -0.597744    57A     -0.584581
      58A     -0.574593    59A     -0.572807    60A     -0.566373
      61A     -0.554068    62A     -0.547978    63A     -0.539611
      64A     -0.537369    65A     -0.527200    66A     -0.517234
      67A     -0.510367    68A     -0.501261    69A     -0.493732
      70A     -0.481481    71A     -0.477923    72A     -0.475026
      73A     -0.453505    74A     -0.435252    75A     -0.424849
      76A     -0.415547

  @DF-RHF Final Energy: -1327.81619098883402

   => Energetics <=

    Nuclear Repulsion Energy =           1770.9754883019734280
    One-Electron Energy =               -5353.9725058412459475
    Two-Electron Energy =                2255.1808265504387236
    Total Energy =                      -1327.8161909888340233
  Basis Set: (AUG-CC-PVTZ AUX)
    Blend: AUG-CC-PVTZ-RI
    Molecular point group: c1

    Geometry (in Angstrom), charge = 0, multiplicity = 1:

       Center              X                  Y                   Z               Mass
    ------------   -----------------  -----------------  -----------------  -----------------
         P           -2.294012116610    -0.946508787403     0.341174828825    30.973761998420
         O           -0.986069116610    -0.208027787403     0.934785828825    15.994914619570
         O            1.338333883390    -1.681948787403     1.227347828825    15.994914619570
         O            0.074788883390     2.353138212597     0.458664828825    15.994914619570
         O            3.064598883390    -2.193537787403    -0.812093171175    15.994914619570
         O            2.843418883390     2.496647212597     0.368031828825    15.994914619570
         O            4.191771883390     0.428931212597    -0.976377171175    15.994914619570
         O           -2.830779116610     0.026885212597    -0.811034171175    15.994914619570
         O           -3.263037116610    -0.729747787403     1.618167828825    15.994914619570
         O           -2.122909116610    -2.350109787403    -0.103171171175    15.994914619570
         C            0.114245883390     0.023543212597     0.012815828825    12.000000000000
         C            0.949375883390    -1.250670787403    -0.079228171175    12.000000000000
         C            0.894672883390     1.196178212597     0.561347828825    12.000000000000
         C            2.255743883390    -1.020772787403    -0.821540171175    12.000000000000
         C            2.267166383390     1.545218412597    -0.147450471175    12.000000000000
         C            3.021925883390     0.142239212597    -0.213825171175    12.000000000000
         C           -3.128129116610     1.425132212597    -0.492389171175    12.000000000000
         C           -3.540233116610     2.078699212597    -1.787622171175    12.000000000000
         H           -0.287008116610     0.292335212597    -0.973741171175     1.007825032230
         H            0.366352883390    -2.035829787403    -0.575535171175     1.007825032230
         H            1.153203883390     0.991411212597     1.608652828825     1.007825032230
         H            2.057017883390    -0.795125787403    -1.876259171175     1.007825032230
         H            1.913070883390     1.629821212597    -1.277086171175     1.007825032230
         H            3.291938883390    -0.100997787403     0.824142828825     1.007825032230
         H            0.517858883390    -1.894497787403     1.708006828825     1.007825032230
         H            0.661623883390     3.102845212597     0.679680828825     1.007825032230
         H            2.969626883390    -2.553839787403     0.091150828825     1.007825032230
         H            3.717512883390     2.542720212597    -0.062372171175     1.007825032230
         H            4.635810883390    -0.430299787403    -1.100590171175     1.007825032230
         H           -3.812311116610    -1.528803787403     1.731224828825     1.007825032230
         H           -3.934462116610     1.439075212597     0.245882828825     1.007825032230
         H           -2.233678116610     1.886414212597    -0.062599171175     1.007825032230
         H           -3.804437116610     3.124416212597    -1.606174171175     1.007825032230
         H           -2.721112116610     2.046857212597    -2.508378171175     1.007825032230
         H           -4.404860116610     1.567857212597    -2.216227171175     1.007825032230

  Basis Set: AUG-CC-PVTZ
    Blend: AUG-CC-PVTZ
  Basis Set: (AUG-CC-PVTZ AUX)
    Blend: AUG-CC-PVTZ-JKFIT
	 Reference Energy          =   -1327.8161909888340233 [Eh]
	 Singles Energy            =      -0.0000000000000000 [Eh]
	 Same-Spin Energy          =      -1.0151105785523167 [Eh]
	 Opposite-Spin Energy      =      -3.0753434927374901 [Eh]
	 Correlation Energy        =      -4.0904540712898072 [Eh]
	 Total Energy              =   -1331.9066450601237648 [Eh]

	 ================> DF-SCS-MP2 Energies <==================
	-----------------------------------------------------------
	 SCS Same-Spin Scale       =       0.3333333333333333 [-]
	 SCS Opposite-Spin Scale   =       1.2000000000000000 [-]
	 SCS Same-Spin Energy      =      -0.3383701928507722 [Eh]
	 SCS Opposite-Spin Energy  =      -3.6904121912849881 [Eh]
	 SCS Correlation Energy    =      -4.0287823841357602 [Eh]
	 SCS Total Energy          =   -1331.8449733729698892 [Eh]
	-----------------------------------------------------------

  Dipole Moment: [D]
     X:    -0.6556      Y:     2.4970      Z:     1.0514     Total:     2.7875

*** Psi4 exiting successfully. Buy a developer a beer!
