                               Psi4 1.3.2 release

  ==> Input File <==

--------------------------------------------------------------------------
#psi4
#
memory 32 gb

molecule  {
0 1
  P       -2.2900960    -0.9400430     0.3446780
  O       -0.9821530    -0.2015620     0.9382890
  O        1.3422500    -1.6754830     1.2308510
  O        0.0787050     2.3596040     0.4621680
  O        3.0685150    -2.1870720    -0.8085900
  O        2.8473350     2.5031130     0.3715350
  O        4.1956880     0.4353970    -0.9728740
  O       -2.7907805     0.0493613    -0.8400139
  O       -3.2591210    -0.7232820     1.6216710
  O       -2.1189930    -2.3436440    -0.0996680
  C        0.1181620     0.0300090     0.0163190
  C        0.9532920    -1.2442050    -0.0757250
  C        0.8985890     1.2026440     0.5648510
  C        2.2596600    -1.0143070    -0.8180370
  C        2.1770750     1.3964720    -0.2280410
  C        3.0258420     0.1487050    -0.2103220
  C       -3.1242130     1.4315980    -0.4888860
  C       -3.5363170     2.0851650    -1.7841190
  H       -0.2830920     0.2988010    -0.9702380
  H        0.3702690    -2.0293640    -0.5720320
  H        1.1571200     0.9978770     1.6121560
  H        2.0609340    -0.7886600    -1.8727560
  H        1.9169870     1.6362870    -1.2735830
  H        3.2958550    -0.0945320     0.8276460
  H        0.5217750    -1.8880320     1.7115100
  H        0.6655400     3.1093110     0.6831840
  H        2.9735430    -2.5473740     0.0946540
  H        3.7214290     2.5491860    -0.0588690
  H        4.6397270    -0.4238340    -1.0970870
  H       -3.8083950    -1.5223380     1.7347280
  H       -3.9290631     1.4836752     0.2492991
  H       -2.2297620     1.8928800    -0.0590960
  H       -3.8005210     3.1308820    -1.6026710
  H       -2.7171960     2.0533230    -2.5048750
  H       -4.4009440     1.5743230    -2.2127240
units angstrom
no_reorient  #important for SAPT in psi4, default
symmetry c1  #important for SAPT in psi4, default
}

set PROPERTIES_ORIGIN ["COM"]
properties('MP2/aug-cc-pvtz', properties = ['dipole'])
--------------------------------------------------------------------------

    Molecular point group: c1
  Charge       = 0
  Multiplicity = 1
  Basis Set: AUG-CC-PVTZ
    Blend: AUG-CC-PVTZ
  Basis Set: (AUG-CC-PVTZ AUX)
    Blend: AUG-CC-PVTZ-JKFIT

    Orbital Energies [Eh]
    ---------------------

    Doubly Occupied:

       1A    -80.119926     2A    -20.618713     3A    -20.607064
       4A    -20.600278     5A    -20.583050     6A    -20.576524
       7A    -20.574481     8A    -20.573909     9A    -20.572949
      10A    -20.525077    11A    -11.320105    12A    -11.303368
      13A    -11.299172    14A    -11.298224    15A    -11.297723
      16A    -11.296377    17A    -11.291228    18A    -11.228099
      19A     -7.635007    20A     -5.533520    21A     -5.533064
      22A     -5.531943    23A     -1.459445    24A     -1.410675
      25A     -1.395136    26A     -1.393047    27A     -1.385296
      28A     -1.372222    29A     -1.363698    30A     -1.353613
      31A     -1.305260    32A     -1.118784    33A     -1.038206
      34A     -1.011804    35A     -1.003188    36A     -0.879703
      37A     -0.862175    38A     -0.858841    39A     -0.823512
      40A     -0.810428    41A     -0.751493    42A     -0.745259
      43A     -0.731630    44A     -0.727705    45A     -0.708357
      46A     -0.686842    47A     -0.678124    48A     -0.673176
      49A     -0.662647    50A     -0.660480    51A     -0.643278
      52A     -0.634439    53A     -0.626844    54A     -0.614672
      55A     -0.603667    56A     -0.598209    57A     -0.582142
      58A     -0.576023    59A     -0.569884    60A     -0.559435
      61A     -0.556495    62A     -0.546855    63A     -0.540725
      64A     -0.536430    65A     -0.530397    66A     -0.520772
      67A     -0.512680    68A     -0.504246    69A     -0.497589
      70A     -0.484190    71A     -0.478628    72A     -0.477343
      73A     -0.462367    74A     -0.455594    75A     -0.449964
      76A     -0.436191

  @DF-RHF Final Energy: -1327.85840939726495

   => Energetics <=

    Nuclear Repulsion Energy =           1772.0792031731818952
    One-Electron Energy =               -5356.2960265338142563
    Two-Electron Energy =                2256.3584139633676386
    Total Energy =                      -1327.8584093972649498
  Basis Set: (AUG-CC-PVTZ AUX)
    Blend: AUG-CC-PVTZ-RI
    Molecular point group: c1

    Geometry (in Angstrom), charge = 0, multiplicity = 1:

       Center              X                  Y                   Z               Mass
    ------------   -----------------  -----------------  -----------------  -----------------
         P           -2.292104677030    -0.941065390647     0.346481944646    30.973761998420
         O           -0.984161677030    -0.202584390647     0.940092944646    15.994914619570
         O            1.340241322970    -1.676505390647     1.232654944646    15.994914619570
         O            0.076696322970     2.358581609353     0.463971944646    15.994914619570
         O            3.066506322970    -2.188094390647    -0.806786055354    15.994914619570
         O            2.845326322970     2.502090609353     0.373338944646    15.994914619570
         O            4.193679322970     0.434374609353    -0.971070055354    15.994914619570
         O           -2.792789177030     0.048338909353    -0.838209955354    15.994914619570
         O           -3.261129677030    -0.724304390647     1.623474944646    15.994914619570
         O           -2.121001677030    -2.344666390647    -0.097864055354    15.994914619570
         C            0.116153322970     0.028986609353     0.018122944646    12.000000000000
         C            0.951283322970    -1.245227390647    -0.073921055354    12.000000000000
         C            0.896580322970     1.201621609353     0.566654944646    12.000000000000
         C            2.257651322970    -1.015329390647    -0.816233055354    12.000000000000
         C            2.175066322970     1.395449609353    -0.226237055354    12.000000000000
         C            3.023833322970     0.147682609353    -0.208518055354    12.000000000000
         C           -3.126221677030     1.430575609353    -0.487082055354    12.000000000000
         C           -3.538325677030     2.084142609353    -1.782315055354    12.000000000000
         H           -0.285100677030     0.297778609353    -0.968434055354     1.007825032230
         H            0.368260322970    -2.030386390647    -0.570228055354     1.007825032230
         H            1.155111322970     0.996854609353     1.613959944646     1.007825032230
         H            2.058925322970    -0.789682390647    -1.870952055354     1.007825032230
         H            1.914978322970     1.635264609353    -1.271779055354     1.007825032230
         H            3.293846322970    -0.095554390647     0.829449944646     1.007825032230
         H            0.519766322970    -1.889054390647     1.713313944646     1.007825032230
         H            0.663531322970     3.108288609353     0.684987944646     1.007825032230
         H            2.971534322970    -2.548396390647     0.096457944646     1.007825032230
         H            3.719420322970     2.548163609353    -0.057065055354     1.007825032230
         H            4.637718322970    -0.424856390647    -1.095283055354     1.007825032230
         H           -3.810403677030    -1.523360390647     1.736531944646     1.007825032230
         H           -3.931071777030     1.482652809353     0.251103044646     1.007825032230
         H           -2.231770677030     1.891857609353    -0.057292055354     1.007825032230
         H           -3.802529677030     3.129859609353    -1.600867055354     1.007825032230
         H           -2.719204677030     2.052300609353    -2.503071055354     1.007825032230
         H           -4.402952677030     1.573300609353    -2.210920055354     1.007825032230

  Basis Set: AUG-CC-PVTZ
    Blend: AUG-CC-PVTZ
  Basis Set: (AUG-CC-PVTZ AUX)
    Blend: AUG-CC-PVTZ-JKFIT
	 Reference Energy          =   -1327.8584093972649498 [Eh]
	 Singles Energy            =      -0.0000000000000000 [Eh]
	 Same-Spin Energy          =      -1.0150165194116370 [Eh]
	 Opposite-Spin Energy      =      -3.0771409580252955 [Eh]
	 Correlation Energy        =      -4.0921574774369329 [Eh]
	 Total Energy              =   -1331.9505668747019627 [Eh]

	 ================> DF-SCS-MP2 Energies <==================
	-----------------------------------------------------------
	 SCS Same-Spin Scale       =       0.3333333333333333 [-]
	 SCS Opposite-Spin Scale   =       1.2000000000000000 [-]
	 SCS Same-Spin Energy      =      -0.3383388398038790 [Eh]
	 SCS Opposite-Spin Energy  =      -3.6925691496303545 [Eh]
	 SCS Correlation Energy    =      -4.0309079894342332 [Eh]
	 SCS Total Energy          =   -1331.8893173866990765 [Eh]
	-----------------------------------------------------------

  Dipole Moment: [D]
     X:    -1.1742      Y:     1.7555      Z:     0.8414     Total:     2.2734

*** Psi4 exiting successfully. Buy a developer a beer!
