                               Psi4 1.3.2 release

  ==> Input File <==

--------------------------------------------------------------------------
#psi4
#
memory 32 gb

molecule  {
0 1
  P       -2.2900960    -0.9400430     0.3446780
  O       -0.9821530    -0.2015620     0.9382890
  O        1.3422500    -1.6754830     1.2308510
  O        0.0787050     2.3596040     0.4621680
  O        3.0685150    -2.1870720    -0.8085900
  O        2.8473350     2.5031130     0.3715350
  O        4.1956880     0.4353970    -0.9728740
  O       -2.8268630     0.0333510    -0.8075310
  O       -3.2591210    -0.7232820     1.6216710
  O       -2.1189930    -2.3436440    -0.0996680
  C        0.1181620     0.0300090     0.0163190
  C        0.9532920    -1.2442050    -0.0757250
  C        0.8985890     1.2026440     0.5648510
  C        2.2596600    -1.0143070    -0.8180370
  C        2.1770750     1.3964720    -0.2280410
  C        3.0258420     0.1487050    -0.2103220
  C       -3.1242130     1.4315980    -0.4888860
  C       -3.5363170     2.0851650    -1.7841190
  H       -0.2830920     0.2988010    -0.9702380
  H        0.3702690    -2.0293640    -0.5720320
  H        1.1571200     0.9978770     1.6121560
  H        2.0428143    -0.7680857    -1.9689245
  H        1.9169870     1.6362870    -1.2735830
  H        3.2958550    -0.0945320     0.8276460
  H        0.5217750    -1.8880320     1.7115100
  H        0.6655400     3.1093110     0.6831840
  H        2.9735430    -2.5473740     0.0946540
  H        3.7214290     2.5491860    -0.0588690
  H        4.6397270    -0.4238340    -1.0970870
  H       -3.8083950    -1.5223380     1.7347280
  H       -3.9305460     1.4455410     0.2493860
  H       -2.2297620     1.8928800    -0.0590960
  H       -3.8005210     3.1308820    -1.6026710
  H       -2.7171960     2.0533230    -2.5048750
  H       -4.4009440     1.5743230    -2.2127240
units angstrom
no_reorient  #important for SAPT in psi4, default
symmetry c1  #important for SAPT in psi4, default
}

set PROPERTIES_ORIGIN ["COM"]
properties('MP2/aug-cc-pvtz', properties = ['dipole'])
--------------------------------------------------------------------------

    Molecular point group: c1
  Charge       = 0
  Multiplicity = 1
  Basis Set: AUG-CC-PVTZ
    Blend: AUG-CC-PVTZ
  Basis Set: (AUG-CC-PVTZ AUX)
    Blend: AUG-CC-PVTZ-JKFIT

    Orbital Energies [Eh]
    ---------------------

    Doubly Occupied:

       1A    -80.116940     2A    -20.614740     3A    -20.607045
       4A    -20.598882     5A    -20.583829     6A    -20.576787
       7A    -20.576228     8A    -20.574143     9A    -20.573469
      10A    -20.523441    11A    -11.320716    12A    -11.310955
      13A    -11.304362    14A    -11.299328    15A    -11.298635
      16A    -11.296605    17A    -11.292545    18A    -11.229785
      19A     -7.632390    20A     -5.530896    21A     -5.530523
      22A     -5.529321    23A     -1.460293    24A     -1.411178
      25A     -1.394781    26A     -1.393387    27A     -1.386836
      28A     -1.372920    29A     -1.364450    30A     -1.354188
      31A     -1.303835    32A     -1.118351    33A     -1.040382
      34A     -1.011831    35A     -1.001231    36A     -0.880514
      37A     -0.864951    38A     -0.855721    39A     -0.821357
      40A     -0.806474    41A     -0.751983    42A     -0.744458
      43A     -0.731347    44A     -0.728606    45A     -0.707998
      46A     -0.686528    47A     -0.678363    48A     -0.673635
      49A     -0.662467    50A     -0.660915    51A     -0.643061
      52A     -0.634602    53A     -0.627262    54A     -0.615188
      55A     -0.603177    56A     -0.596648    57A     -0.581024
      58A     -0.575060    59A     -0.571403    60A     -0.559259
      61A     -0.554713    62A     -0.548434    63A     -0.541120
      64A     -0.535006    65A     -0.528133    66A     -0.519883
      67A     -0.511761    68A     -0.503564    69A     -0.496759
      70A     -0.483928    71A     -0.479866    72A     -0.476517
      73A     -0.462450    74A     -0.456103    75A     -0.450216
      76A     -0.436514

  @DF-RHF Final Energy: -1327.85465625519100

   => Energetics <=

    Nuclear Repulsion Energy =           1771.8491482283848200
    One-Electron Energy =               -5355.8432200182123779
    Two-Electron Energy =                2256.1394155346365551
    Total Energy =                      -1327.8546562551910029
  Basis Set: (AUG-CC-PVTZ AUX)
    Blend: AUG-CC-PVTZ-RI
    Molecular point group: c1

    Geometry (in Angstrom), charge = 0, multiplicity = 1:

       Center              X                  Y                   Z               Mass
    ------------   -----------------  -----------------  -----------------  -----------------
         P           -2.290032572656    -0.940114964625     0.345014450808    30.973761998420
         O           -0.982089572656    -0.201633964625     0.938625450808    15.994914619570
         O            1.342313427344    -1.675554964625     1.231187450808    15.994914619570
         O            0.078768427344     2.359532035375     0.462504450808    15.994914619570
         O            3.068578427344    -2.187143964625    -0.808253549192    15.994914619570
         O            2.847398427344     2.503041035375     0.371871450808    15.994914619570
         O            4.195751427344     0.435325035375    -0.972537549192    15.994914619570
         O           -2.826799572656     0.033279035375    -0.807194549192    15.994914619570
         O           -3.259057572656    -0.723353964625     1.622007450808    15.994914619570
         O           -2.118929572656    -2.343715964625    -0.099331549192    15.994914619570
         C            0.118225427344     0.029937035375     0.016655450808    12.000000000000
         C            0.953355427344    -1.244276964625    -0.075388549192    12.000000000000
         C            0.898652427344     1.202572035375     0.565187450808    12.000000000000
         C            2.259723427344    -1.014378964625    -0.817700549192    12.000000000000
         C            2.177138427344     1.396400035375    -0.227704549192    12.000000000000
         C            3.025905427344     0.148633035375    -0.209985549192    12.000000000000
         C           -3.124149572656     1.431526035375    -0.488549549192    12.000000000000
         C           -3.536253572656     2.085093035375    -1.783782549192    12.000000000000
         H           -0.283028572656     0.298729035375    -0.969901549192     1.007825032230
         H            0.370332427344    -2.029435964625    -0.571695549192     1.007825032230
         H            1.157183427344     0.997805035375     1.612492450808     1.007825032230
         H            2.042877727344    -0.768157664625    -1.968588049192     1.007825032230
         H            1.917050427344     1.636215035375    -1.273246549192     1.007825032230
         H            3.295918427344    -0.094603964625     0.827982450808     1.007825032230
         H            0.521838427344    -1.888103964625     1.711846450808     1.007825032230
         H            0.665603427344     3.109239035375     0.683520450808     1.007825032230
         H            2.973606427344    -2.547445964625     0.094990450808     1.007825032230
         H            3.721492427344     2.549114035375    -0.058532549192     1.007825032230
         H            4.639790427344    -0.423905964625    -1.096750549192     1.007825032230
         H           -3.808331572656    -1.522409964625     1.735064450808     1.007825032230
         H           -3.930482572656     1.445469035375     0.249722450808     1.007825032230
         H           -2.229698572656     1.892808035375    -0.058759549192     1.007825032230
         H           -3.800457572656     3.130810035375    -1.602334549192     1.007825032230
         H           -2.717132572656     2.053251035375    -2.504538549192     1.007825032230
         H           -4.400880572656     1.574251035375    -2.212387549192     1.007825032230

  Basis Set: AUG-CC-PVTZ
    Blend: AUG-CC-PVTZ
  Basis Set: (AUG-CC-PVTZ AUX)
    Blend: AUG-CC-PVTZ-JKFIT
	 Reference Energy          =   -1327.8546562551910029 [Eh]
	 Singles Energy            =      -0.0000000000000000 [Eh]
	 Same-Spin Energy          =      -1.0147964484665388 [Eh]
	 Opposite-Spin Energy      =      -3.0770007616980779 [Eh]
	 Correlation Energy        =      -4.0917972101646169 [Eh]
	 Total Energy              =   -1331.9464534653557166 [Eh]

	 ================> DF-SCS-MP2 Energies <==================
	-----------------------------------------------------------
	 SCS Same-Spin Scale       =       0.3333333333333333 [-]
	 SCS Opposite-Spin Scale   =       1.2000000000000000 [-]
	 SCS Same-Spin Energy      =      -0.3382654828221796 [Eh]
	 SCS Opposite-Spin Energy  =      -3.6924009140376932 [Eh]
	 SCS Correlation Energy    =      -4.0306663968598730 [Eh]
	 SCS Total Energy          =   -1331.8853226520509452 [Eh]
	-----------------------------------------------------------

  Dipole Moment: [D]
     X:    -1.0936      Y:     1.8406      Z:     0.7551     Total:     2.2703

*** Psi4 exiting successfully. Buy a developer a beer!
