                               Psi4 1.3.2 release

  ==> Input File <==

--------------------------------------------------------------------------
#psi4
#
memory 32 gb

molecule  {
0 1
  P       -2.2900960    -0.9400430     0.3446780
  O       -0.9821530    -0.2015620     0.9382890
  O        1.3422500    -1.6754830     1.2308510
  O        0.0787050     2.3596040     0.4621680
  O        3.0685150    -2.1870720    -0.8085900
  O        2.8473350     2.5031130     0.3715350
  O        4.1956880     0.4353970    -0.9728740
  O       -2.8268630     0.0333510    -0.8075310
  O       -3.2591210    -0.7232820     1.6216710
  O       -2.1189930    -2.3436440    -0.0996680
  C        0.1181620     0.0300090     0.0163190
  C        0.9532920    -1.2442050    -0.0757250
  C        0.8985890     1.2026440     0.5648510
  C        2.2596600    -1.0143070    -0.8180370
  C        2.2179925     1.3840317    -0.1611287
  C        3.0258420     0.1487050    -0.2103220
  C       -3.1242130     1.4315980    -0.4888860
  C       -3.5363170     2.0851650    -1.7841190
  H       -0.2830920     0.2988010    -0.9702380
  H        0.3702690    -2.0293640    -0.5720320
  H        1.2125956     1.0022497     1.5977390
  H        2.0609340    -0.7886600    -1.8727560
  H        1.9169870     1.6362870    -1.2735830
  H        3.2958550    -0.0945320     0.8276460
  H        0.5217750    -1.8880320     1.7115100
  H        0.6655400     3.1093110     0.6831840
  H        2.9735430    -2.5473740     0.0946540
  H        3.7214290     2.5491860    -0.0588690
  H        4.6397270    -0.4238340    -1.0970870
  H       -3.8083950    -1.5223380     1.7347280
  H       -3.9305460     1.4455410     0.2493860
  H       -2.2297620     1.8928800    -0.0590960
  H       -3.8005210     3.1308820    -1.6026710
  H       -2.7171960     2.0533230    -2.5048750
  H       -4.4009440     1.5743230    -2.2127240
units angstrom
no_reorient  #important for SAPT in psi4, default
symmetry c1  #important for SAPT in psi4, default
}

set PROPERTIES_ORIGIN ["COM"]
properties('MP2/aug-cc-pvtz', properties = ['dipole'])
--------------------------------------------------------------------------

    Molecular point group: c1
  Charge       = 0
  Multiplicity = 1
  Basis Set: AUG-CC-PVTZ
    Blend: AUG-CC-PVTZ
  Basis Set: (AUG-CC-PVTZ AUX)
    Blend: AUG-CC-PVTZ-JKFIT

    Orbital Energies [Eh]
    ---------------------

    Doubly Occupied:

       1A    -80.116781     2A    -20.614596     3A    -20.606882
       4A    -20.598750     5A    -20.583055     6A    -20.581797
       7A    -20.575666     8A    -20.575349     9A    -20.574935
      10A    -20.523286    11A    -11.321482    12A    -11.303554
      13A    -11.300422    14A    -11.299693    15A    -11.299246
      16A    -11.298772    17A    -11.290766    18A    -11.229590
      19A     -7.632234    20A     -5.530739    21A     -5.530369
      22A     -5.529165    23A     -1.460124    24A     -1.414082
      25A     -1.401523    26A     -1.393725    27A     -1.386720
      28A     -1.373516    29A     -1.367995    30A     -1.356876
      31A     -1.303683    32A     -1.120233    33A     -1.040290
      34A     -1.015130    35A     -1.003929    36A     -0.881493
      37A     -0.865407    38A     -0.860506    39A     -0.822731
      40A     -0.806733    41A     -0.753019    42A     -0.746221
      43A     -0.730674    44A     -0.728328    45A     -0.712226
      46A     -0.686935    47A     -0.678453    48A     -0.673727
      49A     -0.667953    50A     -0.662279    51A     -0.646373
      52A     -0.635046    53A     -0.627003    54A     -0.615809
      55A     -0.604034    56A     -0.598296    57A     -0.581582
      58A     -0.575530    59A     -0.571447    60A     -0.560935
      61A     -0.557411    62A     -0.548333    63A     -0.540983
      64A     -0.538291    65A     -0.529438    66A     -0.524241
      67A     -0.512343    68A     -0.504667    69A     -0.498030
      70A     -0.486032    71A     -0.479744    72A     -0.476578
      73A     -0.460686    74A     -0.453378    75A     -0.440269
      76A     -0.437108

  @DF-RHF Final Energy: -1327.85372965606803

   => Energetics <=

    Nuclear Repulsion Energy =           1772.8308939145292698
    One-Electron Energy =               -5357.6987893054420056
    Two-Electron Energy =                2257.0141657348449371
    Total Energy =                      -1327.8537296560680261
  Basis Set: (AUG-CC-PVTZ AUX)
    Blend: AUG-CC-PVTZ-RI
    Molecular point group: c1

    Geometry (in Angstrom), charge = 0, multiplicity = 1:

       Center              X                  Y                   Z               Mass
    ------------   -----------------  -----------------  -----------------  -----------------
         P           -2.291994591631    -0.939540044844     0.341941008901    30.973761998420
         O           -0.984051591631    -0.201059044844     0.935552008901    15.994914619570
         O            1.340351408369    -1.674980044844     1.228114008901    15.994914619570
         O            0.076806408369     2.360106955156     0.459431008901    15.994914619570
         O            3.066616408369    -2.186569044844    -0.811326991099    15.994914619570
         O            2.845436408369     2.503615955156     0.368798008901    15.994914619570
         O            4.193789408369     0.435899955156    -0.975610991099    15.994914619570
         O           -2.828761591631     0.033853955156    -0.810267991099    15.994914619570
         O           -3.261019591631    -0.722779044844     1.618934008901    15.994914619570
         O           -2.120891591631    -2.343141044844    -0.102404991099    15.994914619570
         C            0.116263408369     0.030511955156     0.013582008901    12.000000000000
         C            0.951393408369    -1.243702044844    -0.078461991099    12.000000000000
         C            0.896690408369     1.203146955156     0.562114008901    12.000000000000
         C            2.257761408369    -1.013804044844    -0.820773991099    12.000000000000
         C            2.216093908369     1.384534655156    -0.163865691099    12.000000000000
         C            3.023943408369     0.149207955156    -0.213058991099    12.000000000000
         C           -3.126111591631     1.432100955156    -0.491622991099    12.000000000000
         C           -3.538215591631     2.085667955156    -1.786855991099    12.000000000000
         H           -0.284990591631     0.299303955156    -0.972974991099     1.007825032230
         H            0.368370408369    -2.028861044844    -0.574768991099     1.007825032230
         H            1.210697008369     1.002752655156     1.595002008901     1.007825032230
         H            2.059035408369    -0.788157044844    -1.875492991099     1.007825032230
         H            1.915088408369     1.636789955156    -1.276319991099     1.007825032230
         H            3.293956408369    -0.094029044844     0.824909008901     1.007825032230
         H            0.519876408369    -1.887529044844     1.708773008901     1.007825032230
         H            0.663641408369     3.109813955156     0.680447008901     1.007825032230
         H            2.971644408369    -2.546871044844     0.091917008901     1.007825032230
         H            3.719530408369     2.549688955156    -0.061605991099     1.007825032230
         H            4.637828408369    -0.423331044844    -1.099823991099     1.007825032230
         H           -3.810293591631    -1.521835044844     1.731991008901     1.007825032230
         H           -3.932444591631     1.446043955156     0.246649008901     1.007825032230
         H           -2.231660591631     1.893382955156    -0.061832991099     1.007825032230
         H           -3.802419591631     3.131384955156    -1.605407991099     1.007825032230
         H           -2.719094591631     2.053825955156    -2.507611991099     1.007825032230
         H           -4.402842591631     1.574825955156    -2.215460991099     1.007825032230

  Basis Set: AUG-CC-PVTZ
    Blend: AUG-CC-PVTZ
  Basis Set: (AUG-CC-PVTZ AUX)
    Blend: AUG-CC-PVTZ-JKFIT
	 Reference Energy          =   -1327.8537296560680261 [Eh]
	 Singles Energy            =      -0.0000000000000000 [Eh]
	 Same-Spin Energy          =      -1.0151304416832010 [Eh]
	 Opposite-Spin Energy      =      -3.0763939787543872 [Eh]
	 Correlation Energy        =      -4.0915244204375885 [Eh]
	 Total Energy              =   -1331.9452540765055346 [Eh]

	 ================> DF-SCS-MP2 Energies <==================
	-----------------------------------------------------------
	 SCS Same-Spin Scale       =       0.3333333333333333 [-]
	 SCS Opposite-Spin Scale   =       1.2000000000000000 [-]
	 SCS Same-Spin Energy      =      -0.3383768138944003 [Eh]
	 SCS Opposite-Spin Energy  =      -3.6916727745052644 [Eh]
	 SCS Correlation Energy    =      -4.0300495883996650 [Eh]
	 SCS Total Energy          =   -1331.8837792444676325 [Eh]
	-----------------------------------------------------------

  Dipole Moment: [D]
     X:    -1.0131      Y:     1.9151      Z:     0.8408     Total:     2.3240

*** Psi4 exiting successfully. Buy a developer a beer!
