                               Psi4 1.3.2 release

  ==> Input File <==

--------------------------------------------------------------------------
#psi4
#
memory 32 gb

molecule  {
0 1
  P       -2.2900960    -0.9400430     0.3446780
  O       -0.9821530    -0.2015620     0.9382890
  O        1.3422500    -1.6754830     1.2308510
  O        0.0787050     2.3596040     0.4621680
  O        3.0685150    -2.1870720    -0.8085900
  O        2.8473350     2.5031130     0.3715350
  O        4.1956880     0.4353970    -0.9728740
  O       -2.8268630     0.0333510    -0.8075310
  O       -3.2591210    -0.7232820     1.6216710
  O       -2.1189930    -2.3436440    -0.0996680
  C        0.2695038     0.0618602    -0.1104925
  C        0.9532920    -1.2442050    -0.0757250
  C        0.8985890     1.2026440     0.5648510
  C        2.2596600    -1.0143070    -0.8180370
  C        2.1770750     1.3964720    -0.2280410
  C        3.0258420     0.1487050    -0.2103220
  C       -3.1242130     1.4315980    -0.4888860
  C       -3.5363170     2.0851650    -1.7841190
  H       -0.2830920     0.2988010    -0.9702380
  H        0.3702690    -2.0293640    -0.5720320
  H        1.1571200     0.9978770     1.6121560
  H        2.0609340    -0.7886600    -1.8727560
  H        1.9169870     1.6362870    -1.2735830
  H        3.2958550    -0.0945320     0.8276460
  H        0.5217750    -1.8880320     1.7115100
  H        0.6655400     3.1093110     0.6831840
  H        2.9735430    -2.5473740     0.0946540
  H        3.7214290     2.5491860    -0.0588690
  H        4.6397270    -0.4238340    -1.0970870
  H       -3.8083950    -1.5223380     1.7347280
  H       -3.9305460     1.4455410     0.2493860
  H       -2.2297620     1.8928800    -0.0590960
  H       -3.8005210     3.1308820    -1.6026710
  H       -2.7171960     2.0533230    -2.5048750
  H       -4.4009440     1.5743230    -2.2127240
units angstrom
no_reorient  #important for SAPT in psi4, default
symmetry c1  #important for SAPT in psi4, default
}

set PROPERTIES_ORIGIN ["COM"]
properties('MP2/aug-cc-pvtz', properties = ['dipole'])
--------------------------------------------------------------------------

    Molecular point group: c1
  Charge       = 0
  Multiplicity = 1
  Basis Set: AUG-CC-PVTZ
    Blend: AUG-CC-PVTZ
  Basis Set: (AUG-CC-PVTZ AUX)
    Blend: AUG-CC-PVTZ-JKFIT

    Orbital Energies [Eh]
    ---------------------

    Doubly Occupied:

       1A    -80.101485     2A    -20.603500     3A    -20.590581
       4A    -20.589856     5A    -20.581257     6A    -20.579962
       7A    -20.579624     8A    -20.578036     9A    -20.577669
      10A    -20.513037    11A    -11.333856    12A    -11.312251
      13A    -11.306965    14A    -11.304638    15A    -11.302719
      16A    -11.297969    17A    -11.294420    18A    -11.227050
      19A     -7.616940    20A     -5.515503    21A     -5.514986
      22A     -5.513973    23A     -1.439144    24A     -1.413387
      25A     -1.398981    26A     -1.387290    27A     -1.378039
      28A     -1.368719    29A     -1.360525    30A     -1.338840
      31A     -1.291654    32A     -1.144871    33A     -1.036059
      34A     -1.021685    35A     -1.017736    36A     -0.873015
      37A     -0.865161    38A     -0.861618    39A     -0.822249
      40A     -0.811542    41A     -0.755996    42A     -0.747779
      43A     -0.733428    44A     -0.717277    45A     -0.700556
      46A     -0.689647    47A     -0.678736    48A     -0.669547
      49A     -0.666465    50A     -0.658994    51A     -0.641037
      52A     -0.636862    53A     -0.624662    54A     -0.615096
      55A     -0.605836    56A     -0.592362    57A     -0.580814
      58A     -0.566928    59A     -0.565058    60A     -0.560769
      61A     -0.551070    62A     -0.549149    63A     -0.543981
      64A     -0.536540    65A     -0.530121    66A     -0.516877
      67A     -0.513153    68A     -0.501499    69A     -0.496459
      70A     -0.487563    71A     -0.475377    72A     -0.468817
      73A     -0.462711    74A     -0.461340    75A     -0.455566
      76A     -0.441605

  @DF-RHF Final Energy: -1327.82938121413054

   => Energetics <=

    Nuclear Repulsion Energy =           1771.1635570112100595
    One-Electron Energy =               -5354.6529460646424923
    Two-Electron Energy =                2255.6600078393016702
    Total Energy =                      -1327.8293812141305352
  Basis Set: (AUG-CC-PVTZ AUX)
    Blend: AUG-CC-PVTZ-RI
    Molecular point group: c1

    Geometry (in Angstrom), charge = 0, multiplicity = 1:

       Center              X                  Y                   Z               Mass
    ------------   -----------------  -----------------  -----------------  -----------------
         P           -2.296400539737    -0.941369834536     0.349960684015    30.973761998420
         O           -0.988457539737    -0.202888834536     0.943571684015    15.994914619570
         O            1.335945460263    -1.676809834536     1.236133684015    15.994914619570
         O            0.072400460263     2.358277165464     0.467450684015    15.994914619570
         O            3.062210460263    -2.188398834536    -0.803307315985    15.994914619570
         O            2.841030460263     2.501786165464     0.376817684015    15.994914619570
         O            4.189383460263     0.434070165464    -0.967591315985    15.994914619570
         O           -2.833167539737     0.032024165464    -0.802248315985    15.994914619570
         O           -3.265425539737    -0.724608834536     1.626953684015    15.994914619570
         O           -2.125297539737    -2.344970834536    -0.094385315985    15.994914619570
         C            0.263199260263     0.060533365464    -0.105209815985    12.000000000000
         C            0.946987460263    -1.245531834536    -0.070442315985    12.000000000000
         C            0.892284460263     1.201317165464     0.570133684015    12.000000000000
         C            2.253355460263    -1.015633834536    -0.812754315985    12.000000000000
         C            2.170770460263     1.395145165464    -0.222758315985    12.000000000000
         C            3.019537460263     0.147378165464    -0.205039315985    12.000000000000
         C           -3.130517539737     1.430271165464    -0.483603315985    12.000000000000
         C           -3.542621539737     2.083838165464    -1.778836315985    12.000000000000
         H           -0.289396539737     0.297474165464    -0.964955315985     1.007825032230
         H            0.363964460263    -2.030690834536    -0.566749315985     1.007825032230
         H            1.150815460263     0.996550165464     1.617438684015     1.007825032230
         H            2.054629460263    -0.789986834536    -1.867473315985     1.007825032230
         H            1.910682460263     1.634960165464    -1.268300315985     1.007825032230
         H            3.289550460263    -0.095858834536     0.832928684015     1.007825032230
         H            0.515470460263    -1.889358834536     1.716792684015     1.007825032230
         H            0.659235460263     3.107984165464     0.688466684015     1.007825032230
         H            2.967238460263    -2.548700834536     0.099936684015     1.007825032230
         H            3.715124460263     2.547859165464    -0.053586315985     1.007825032230
         H            4.633422460263    -0.425160834536    -1.091804315985     1.007825032230
         H           -3.814699539737    -1.523664834536     1.740010684015     1.007825032230
         H           -3.936850539737     1.444214165464     0.254668684015     1.007825032230
         H           -2.236066539737     1.891553165464    -0.053813315985     1.007825032230
         H           -3.806825539737     3.129555165464    -1.597388315985     1.007825032230
         H           -2.723500539737     2.051996165464    -2.499592315985     1.007825032230
         H           -4.407248539737     1.572996165464    -2.207441315985     1.007825032230

  Basis Set: AUG-CC-PVTZ
    Blend: AUG-CC-PVTZ
  Basis Set: (AUG-CC-PVTZ AUX)
    Blend: AUG-CC-PVTZ-JKFIT
	 Reference Energy          =   -1327.8293812141305352 [Eh]
	 Singles Energy            =      -0.0000000000000000 [Eh]
	 Same-Spin Energy          =      -1.0168380178641931 [Eh]
	 Opposite-Spin Energy      =      -3.0803736208468280 [Eh]
	 Correlation Energy        =      -4.0972116387110216 [Eh]
	 Total Energy              =   -1331.9265928528416225 [Eh]

	 ================> DF-SCS-MP2 Energies <==================
	-----------------------------------------------------------
	 SCS Same-Spin Scale       =       0.3333333333333333 [-]
	 SCS Opposite-Spin Scale   =       1.2000000000000000 [-]
	 SCS Same-Spin Energy      =      -0.3389460059547310 [Eh]
	 SCS Opposite-Spin Energy  =      -3.6964483450161936 [Eh]
	 SCS Correlation Energy    =      -4.0353943509709245 [Eh]
	 SCS Total Energy          =   -1331.8647755651013540 [Eh]
	-----------------------------------------------------------

  Dipole Moment: [D]
     X:    -0.1691      Y:     2.0643      Z:     0.5053     Total:     2.1320

*** Psi4 exiting successfully. Buy a developer a beer!
