                               Psi4 1.3.2 release

  ==> Input File <==

--------------------------------------------------------------------------
#psi4
#
memory 32 gb

molecule  {
0 1
  P       -2.2900960    -0.9400430     0.3446780
  O       -0.9752234    -0.2043653     0.9263406
  O        1.3422500    -1.6754830     1.2308510
  O        0.0787050     2.3596040     0.4621680
  O        3.0685150    -2.1870720    -0.8085900
  O        2.8473350     2.5031130     0.3715350
  O        4.1956880     0.4353970    -0.9728740
  O       -2.8268630     0.0333510    -0.8075310
  O       -3.2694787    -0.7300585     1.6148835
  O       -2.1189930    -2.3436440    -0.0996680
  C        0.1181620     0.0300090     0.0163190
  C        0.9532920    -1.2442050    -0.0757250
  C        0.8985890     1.2026440     0.5648510
  C        2.2596600    -1.0143070    -0.8180370
  C        2.1770750     1.3964720    -0.2280410
  C        3.0258420     0.1487050    -0.2103220
  C       -3.1242130     1.4315980    -0.4888860
  C       -3.5363170     2.0851650    -1.7841190
  H       -0.2830920     0.2988010    -0.9702380
  H        0.3702690    -2.0293640    -0.5720320
  H        1.1571200     0.9978770     1.6121560
  H        2.0609340    -0.7886600    -1.8727560
  H        1.9169870     1.6362870    -1.2735830
  H        3.2958550    -0.0945320     0.8276460
  H        0.5217750    -1.8880320     1.7115100
  H        0.6655400     3.1093110     0.6831840
  H        2.9735430    -2.5473740     0.0946540
  H        3.7214290     2.5491860    -0.0588690
  H        4.6397270    -0.4238340    -1.0970870
  H       -3.8083950    -1.5223380     1.7347280
  H       -3.9305460     1.4455410     0.2493860
  H       -2.2297620     1.8928800    -0.0590960
  H       -3.8005210     3.1308820    -1.6026710
  H       -2.7171960     2.0533230    -2.5048750
  H       -4.4009440     1.5743230    -2.2127240
units angstrom
no_reorient  #important for SAPT in psi4, default
symmetry c1  #important for SAPT in psi4, default
}

set PROPERTIES_ORIGIN ["COM"]
properties('MP2/aug-cc-pvtz', properties = ['dipole'])
--------------------------------------------------------------------------

    Molecular point group: c1
  Charge       = 0
  Multiplicity = 1
  Basis Set: AUG-CC-PVTZ
    Blend: AUG-CC-PVTZ
  Basis Set: (AUG-CC-PVTZ AUX)
    Blend: AUG-CC-PVTZ-JKFIT

    Orbital Energies [Eh]
    ---------------------

    Doubly Occupied:

       1A    -80.117951     2A    -20.614799     3A    -20.607516
       4A    -20.598934     5A    -20.583051     6A    -20.576657
       7A    -20.574314     8A    -20.573924     9A    -20.573472
      10A    -20.522995    11A    -11.319884    12A    -11.302942
      13A    -11.299555    14A    -11.298961    15A    -11.298357
      16A    -11.296488    17A    -11.291235    18A    -11.229936
      19A     -7.633305    20A     -5.531774    21A     -5.531477
      22A     -5.530249    23A     -1.462206    24A     -1.411901
      25A     -1.396462    26A     -1.393284    27A     -1.387815
      28A     -1.373335    29A     -1.363828    30A     -1.353750
      31A     -1.303754    32A     -1.118730    33A     -1.040624
      34A     -1.012067    35A     -1.003246    36A     -0.881667
      37A     -0.865077    38A     -0.859208    39A     -0.824020
      40A     -0.810614    41A     -0.752285    42A     -0.746345
      43A     -0.732708    44A     -0.729721    45A     -0.709250
      46A     -0.687276    47A     -0.677999    48A     -0.673795
      49A     -0.662555    50A     -0.661158    51A     -0.643823
      52A     -0.635579    53A     -0.627764    54A     -0.615356
      55A     -0.604397    56A     -0.598291    57A     -0.581582
      58A     -0.576566    59A     -0.571512    60A     -0.559294
      61A     -0.556326    62A     -0.548576    63A     -0.541375
      64A     -0.536354    65A     -0.530149    66A     -0.521617
      67A     -0.513149    68A     -0.504115    69A     -0.497108
      70A     -0.484185    71A     -0.479796    72A     -0.476443
      73A     -0.461962    74A     -0.455728    75A     -0.449623
      76A     -0.436045

  @DF-RHF Final Energy: -1327.86265891912649

   => Energetics <=

    Nuclear Repulsion Energy =           1772.7298629599047217
    One-Electron Energy =               -5357.5667051049613292
    Two-Electron Energy =                2256.9741832259305738
    Total Energy =                      -1327.8626589191262610
  Basis Set: (AUG-CC-PVTZ AUX)
    Blend: AUG-CC-PVTZ-RI
    Molecular point group: c1

    Geometry (in Angstrom), charge = 0, multiplicity = 1:

       Center              X                  Y                   Z               Mass
    ------------   -----------------  -----------------  -----------------  -----------------
         P           -2.289905618027    -0.939511053072     0.345718322855    30.973761998420
         O           -0.975033018027    -0.203833353072     0.927380922855    15.994914619570
         O            1.342440381973    -1.674951053072     1.231891322855    15.994914619570
         O            0.078895381973     2.360135946928     0.463208322855    15.994914619570
         O            3.068705381973    -2.186540053072    -0.807549677145    15.994914619570
         O            2.847525381973     2.503644946928     0.372575322855    15.994914619570
         O            4.195878381973     0.435928946928    -0.971833677145    15.994914619570
         O           -2.826672618027     0.033882946928    -0.806490677145    15.994914619570
         O           -3.269288318027    -0.729526553072     1.615923822855    15.994914619570
         O           -2.118802618027    -2.343112053072    -0.098627677145    15.994914619570
         C            0.118352381973     0.030540946928     0.017359322855    12.000000000000
         C            0.953482381973    -1.243673053072    -0.074684677145    12.000000000000
         C            0.898779381973     1.203175946928     0.565891322855    12.000000000000
         C            2.259850381973    -1.013775053072    -0.816996677145    12.000000000000
         C            2.177265381973     1.397003946928    -0.227000677145    12.000000000000
         C            3.026032381973     0.149236946928    -0.209281677145    12.000000000000
         C           -3.124022618027     1.432129946928    -0.487845677145    12.000000000000
         C           -3.536126618027     2.085696946928    -1.783078677145    12.000000000000
         H           -0.282901618027     0.299332946928    -0.969197677145     1.007825032230
         H            0.370459381973    -2.028832053072    -0.570991677145     1.007825032230
         H            1.157310381973     0.998408946928     1.613196322855     1.007825032230
         H            2.061124381973    -0.788128053072    -1.871715677145     1.007825032230
         H            1.917177381973     1.636818946928    -1.272542677145     1.007825032230
         H            3.296045381973    -0.094000053072     0.828686322855     1.007825032230
         H            0.521965381973    -1.887500053072     1.712550322855     1.007825032230
         H            0.665730381973     3.109842946928     0.684224322855     1.007825032230
         H            2.973733381973    -2.546842053072     0.095694322855     1.007825032230
         H            3.721619381973     2.549717946928    -0.057828677145     1.007825032230
         H            4.639917381973    -0.423302053072    -1.096046677145     1.007825032230
         H           -3.808204618027    -1.521806053072     1.735768322855     1.007825032230
         H           -3.930355618027     1.446072946928     0.250426322855     1.007825032230
         H           -2.229571618027     1.893411946928    -0.058055677145     1.007825032230
         H           -3.800330618027     3.131413946928    -1.601630677145     1.007825032230
         H           -2.717005618027     2.053854946928    -2.503834677145     1.007825032230
         H           -4.400753618027     1.574854946928    -2.211683677145     1.007825032230

  Basis Set: AUG-CC-PVTZ
    Blend: AUG-CC-PVTZ
  Basis Set: (AUG-CC-PVTZ AUX)
    Blend: AUG-CC-PVTZ-JKFIT
	 Reference Energy          =   -1327.8626589191264884 [Eh]
	 Singles Energy            =      -0.0000000000000000 [Eh]
	 Same-Spin Energy          =      -1.0143388886279241 [Eh]
	 Opposite-Spin Energy      =      -3.0753325934015487 [Eh]
	 Correlation Energy        =      -4.0896714820294733 [Eh]
	 Total Energy              =   -1331.9523304011559048 [Eh]

	 ================> DF-SCS-MP2 Energies <==================
	-----------------------------------------------------------
	 SCS Same-Spin Scale       =       0.3333333333333333 [-]
	 SCS Opposite-Spin Scale   =       1.2000000000000000 [-]
	 SCS Same-Spin Energy      =      -0.3381129628759747 [Eh]
	 SCS Opposite-Spin Energy  =      -3.6903991120818582 [Eh]
	 SCS Correlation Energy    =      -4.0285120749578329 [Eh]
	 SCS Total Energy          =   -1331.8911709940844048 [Eh]
	-----------------------------------------------------------

  Dipole Moment: [D]
     X:    -1.1373      Y:     1.8764      Z:     0.7623     Total:     2.3228

*** Psi4 exiting successfully. Buy a developer a beer!
