                               Psi4 1.3.2 release

  ==> Input File <==

--------------------------------------------------------------------------
#psi4
#
memory 32 gb

molecule  {
0 1
  P       -2.2900960    -0.9400430     0.3446780
  O       -0.9821530    -0.2015620     0.9382890
  O        1.3422500    -1.6754830     1.2308510
  O        0.0787050     2.3596040     0.4621680
  O        3.0685150    -2.1870720    -0.8085900
  O        2.8473350     2.5031130     0.3715350
  O        4.1956880     0.4353970    -0.9728740
  O       -2.8268630     0.0333510    -0.8075310
  O       -3.2591210    -0.7232820     1.6216710
  O       -2.1189930    -2.3436440    -0.0996680
  C        0.1181620     0.0300090     0.0163190
  C        0.9532920    -1.2442050    -0.0757250
  C        0.9553841     1.2469504     0.5835999
  C        2.2596600    -1.0143070    -0.8180370
  C        2.1770750     1.3964720    -0.2280410
  C        3.0258420     0.1487050    -0.2103220
  C       -3.1242130     1.4315980    -0.4888860
  C       -3.5363170     2.0851650    -1.7841190
  H       -0.2830920     0.2988010    -0.9702380
  H        0.3702690    -2.0293640    -0.5720320
  H        1.1571200     0.9978770     1.6121560
  H        2.0609340    -0.7886600    -1.8727560
  H        1.9169870     1.6362870    -1.2735830
  H        3.2958550    -0.0945320     0.8276460
  H        0.5217750    -1.8880320     1.7115100
  H        0.7036242     3.0757908     0.6898443
  H        2.9735430    -2.5473740     0.0946540
  H        3.7214290     2.5491860    -0.0588690
  H        4.6397270    -0.4238340    -1.0970870
  H       -3.8083950    -1.5223380     1.7347280
  H       -3.9305460     1.4455410     0.2493860
  H       -2.2297620     1.8928800    -0.0590960
  H       -3.8005210     3.1308820    -1.6026710
  H       -2.7171960     2.0533230    -2.5048750
  H       -4.4009440     1.5743230    -2.2127240
units angstrom
no_reorient  #important for SAPT in psi4, default
symmetry c1  #important for SAPT in psi4, default
}

set PROPERTIES_ORIGIN ["COM"]
properties('MP2/aug-cc-pvtz', properties = ['dipole'])
--------------------------------------------------------------------------

    Molecular point group: c1
  Charge       = 0
  Multiplicity = 1
  Basis Set: AUG-CC-PVTZ
    Blend: AUG-CC-PVTZ
  Basis Set: (AUG-CC-PVTZ AUX)
    Blend: AUG-CC-PVTZ-JKFIT

    Orbital Energies [Eh]
    ---------------------

    Doubly Occupied:

       1A    -80.116482     2A    -20.614352     3A    -20.606449
       4A    -20.598494     5A    -20.582339     6A    -20.577550
       7A    -20.576442     8A    -20.575469     9A    -20.574570
      10A    -20.522866    11A    -11.320819    12A    -11.301457
      13A    -11.299263    14A    -11.299234    15A    -11.298580
      16A    -11.296102    17A    -11.293145    18A    -11.229651
      19A     -7.631910    20A     -5.530415    21A     -5.530048
      22A     -5.528840    23A     -1.459272    24A     -1.411235
      25A     -1.396772    26A     -1.393359    27A     -1.386485
      28A     -1.373937    29A     -1.365228    30A     -1.354968
      31A     -1.303219    32A     -1.116584    33A     -1.040176
      34A     -1.011254    35A     -1.001520    36A     -0.882045
      37A     -0.865276    38A     -0.857111    39A     -0.821981
      40A     -0.811409    41A     -0.751851    42A     -0.745633
      43A     -0.730851    44A     -0.726865    45A     -0.706634
      46A     -0.686697    47A     -0.677463    48A     -0.673913
      49A     -0.664902    50A     -0.660763    51A     -0.643617
      52A     -0.635246    53A     -0.627155    54A     -0.615571
      55A     -0.606100    56A     -0.598586    57A     -0.579647
      58A     -0.575352    59A     -0.571234    60A     -0.561256
      61A     -0.556965    62A     -0.548275    63A     -0.540968
      64A     -0.537159    65A     -0.529741    66A     -0.518250
      67A     -0.513639    68A     -0.504547    69A     -0.495134
      70A     -0.483687    71A     -0.479137    72A     -0.476039
      73A     -0.470122    74A     -0.457701    75A     -0.447918
      76A     -0.434703

  @DF-RHF Final Energy: -1327.85395701688458

   => Energetics <=

    Nuclear Repulsion Energy =           1771.7124701647394431
    One-Electron Energy =               -5355.5535873559247193
    Two-Electron Energy =                2255.9871601743006977
    Total Energy =                      -1327.8539570168845785
  Basis Set: (AUG-CC-PVTZ AUX)
    Blend: AUG-CC-PVTZ-RI
    Molecular point group: c1

    Geometry (in Angstrom), charge = 0, multiplicity = 1:

       Center              X                  Y                   Z               Mass
    ------------   -----------------  -----------------  -----------------  -----------------
         P           -2.292595171717    -0.941771415784     0.343873650017    30.973761998420
         O           -0.984652171717    -0.203290415784     0.937484650017    15.994914619570
         O            1.339750828283    -1.677211415784     1.230046650017    15.994914619570
         O            0.076205828283     2.357875584216     0.461363650017    15.994914619570
         O            3.066015828283    -2.188800415784    -0.809394349983    15.994914619570
         O            2.844835828283     2.501384584216     0.370730650017    15.994914619570
         O            4.193188828283     0.433668584216    -0.973678349983    15.994914619570
         O           -2.829362171717     0.031622584216    -0.808335349983    15.994914619570
         O           -3.261620171717    -0.725010415784     1.620866650017    15.994914619570
         O           -2.121492171717    -2.345372415784    -0.100472349983    15.994914619570
         C            0.115662828283     0.028280584216     0.015514650017    12.000000000000
         C            0.950792828283    -1.245933415784    -0.076529349983    12.000000000000
         C            0.952884928283     1.245221984216     0.582795550017    12.000000000000
         C            2.257160828283    -1.016035415784    -0.818841349983    12.000000000000
         C            2.174575828283     1.394743584216    -0.228845349983    12.000000000000
         C            3.023342828283     0.146976584216    -0.211126349983    12.000000000000
         C           -3.126712171717     1.429869584216    -0.489690349983    12.000000000000
         C           -3.538816171717     2.083436584216    -1.784923349983    12.000000000000
         H           -0.285591171717     0.297072584216    -0.971042349983     1.007825032230
         H            0.367769828283    -2.031092415784    -0.572836349983     1.007825032230
         H            1.154620828283     0.996148584216     1.611351650017     1.007825032230
         H            2.058434828283    -0.790388415784    -1.873560349983     1.007825032230
         H            1.914487828283     1.634558584216    -1.274387349983     1.007825032230
         H            3.293355828283    -0.096260415784     0.826841650017     1.007825032230
         H            0.519275828283    -1.889760415784     1.710705650017     1.007825032230
         H            0.701125028283     3.074062384216     0.689039950017     1.007825032230
         H            2.971043828283    -2.549102415784     0.093849650017     1.007825032230
         H            3.718929828283     2.547457584216    -0.059673349983     1.007825032230
         H            4.637227828283    -0.425562415784    -1.097891349983     1.007825032230
         H           -3.810894171717    -1.524066415784     1.733923650017     1.007825032230
         H           -3.933045171717     1.443812584216     0.248581650017     1.007825032230
         H           -2.232261171717     1.891151584216    -0.059900349983     1.007825032230
         H           -3.803020171717     3.129153584216    -1.603475349983     1.007825032230
         H           -2.719695171717     2.051594584216    -2.505679349983     1.007825032230
         H           -4.403443171717     1.572594584216    -2.213528349983     1.007825032230

  Basis Set: AUG-CC-PVTZ
    Blend: AUG-CC-PVTZ
  Basis Set: (AUG-CC-PVTZ AUX)
    Blend: AUG-CC-PVTZ-JKFIT
	 Reference Energy          =   -1327.8539570168845785 [Eh]
	 Singles Energy            =      -0.0000000000000000 [Eh]
	 Same-Spin Energy          =      -1.0150033799096316 [Eh]
	 Opposite-Spin Energy      =      -3.0770803630495434 [Eh]
	 Correlation Energy        =      -4.0920837429591748 [Eh]
	 Total Energy              =   -1331.9460407598437541 [Eh]

	 ================> DF-SCS-MP2 Energies <==================
	-----------------------------------------------------------
	 SCS Same-Spin Scale       =       0.3333333333333333 [-]
	 SCS Opposite-Spin Scale   =       1.2000000000000000 [-]
	 SCS Same-Spin Energy      =      -0.3383344599698772 [Eh]
	 SCS Opposite-Spin Energy  =      -3.6924964356594518 [Eh]
	 SCS Correlation Energy    =      -4.0308308956293288 [Eh]
	 SCS Total Energy          =   -1331.8847879125139571 [Eh]
	-----------------------------------------------------------

  Dipole Moment: [D]
     X:    -1.0224      Y:     1.8665      Z:     0.7250     Total:     2.2483

*** Psi4 exiting successfully. Buy a developer a beer!
