                               Psi4 1.3.2 release

  ==> Input File <==

--------------------------------------------------------------------------
#psi4
#
memory 32 gb

molecule  {
0 1
  P       -2.2900960    -0.9400430     0.3446780
  O       -0.9821530    -0.2015620     0.9382890
  O        1.3778542    -1.7331546     1.1990711
  O        0.0787050     2.3596040     0.4621680
  O        3.0685150    -2.1870720    -0.8085900
  O        2.8473350     2.5031130     0.3715350
  O        4.1956880     0.4353970    -0.9728740
  O       -2.8268630     0.0333510    -0.8075310
  O       -3.2591210    -0.7232820     1.6216710
  O       -2.1189930    -2.3436440    -0.0996680
  C        0.1122451     0.0293816    -0.0633660
  C        0.9532920    -1.2442050    -0.0757250
  C        0.8985890     1.2026440     0.5648510
  C        2.2596600    -1.0143070    -0.8180370
  C        2.1770750     1.3964720    -0.2280410
  C        3.0258420     0.1487050    -0.2103220
  C       -3.1242130     1.4315980    -0.4888860
  C       -3.5363170     2.0851650    -1.7841190
  H       -0.2830920     0.2988010    -0.9702380
  H        0.3702690    -2.0293640    -0.5720320
  H        1.1571200     0.9978770     1.6121560
  H        2.0609340    -0.7886600    -1.8727560
  H        1.9169870     1.6362870    -1.2735830
  H        3.2958550    -0.0945320     0.8276460
  H        0.5217750    -1.8880320     1.7115100
  H        0.6655400     3.1093110     0.6831840
  H        2.9735430    -2.5473740     0.0946540
  H        3.7214290     2.5491860    -0.0588690
  H        4.6397270    -0.4238340    -1.0970870
  H       -3.8083950    -1.5223380     1.7347280
  H       -3.9305460     1.4455410     0.2493860
  H       -2.2297620     1.8928800    -0.0590960
  H       -3.8005210     3.1308820    -1.6026710
  H       -2.7171960     2.0533230    -2.5048750
  H       -4.4009440     1.5743230    -2.2127240
units angstrom
no_reorient  #important for SAPT in psi4, default
symmetry c1  #important for SAPT in psi4, default
}

set PROPERTIES_ORIGIN ["COM"]
properties('MP2/aug-cc-pvtz', properties = ['dipole'])
--------------------------------------------------------------------------

    Molecular point group: c1
  Charge       = 0
  Multiplicity = 1
  Basis Set: AUG-CC-PVTZ
    Blend: AUG-CC-PVTZ
  Basis Set: (AUG-CC-PVTZ AUX)
    Blend: AUG-CC-PVTZ-JKFIT

    Orbital Energies [Eh]
    ---------------------

    Doubly Occupied:

       1A    -80.114180     2A    -20.613066     3A    -20.605031
       4A    -20.598589     5A    -20.590005     6A    -20.577222
       7A    -20.574572     8A    -20.574167     9A    -20.572471
      10A    -20.522030    11A    -11.322885    12A    -11.304495
      13A    -11.302848    14A    -11.299583    15A    -11.298222
      16A    -11.296787    17A    -11.291624    18A    -11.230280
      19A     -7.629806    20A     -5.528338    21A     -5.527887
      22A     -5.526728    23A     -1.455750    24A     -1.408489
      25A     -1.393319    26A     -1.389461    27A     -1.385860
      28A     -1.369776    29A     -1.362399    30A     -1.352384
      31A     -1.302163    32A     -1.119658    33A     -1.040626
      34A     -1.013749    35A     -1.001411    36A     -0.877249
      37A     -0.865750    38A     -0.857402    39A     -0.823400
      40A     -0.813522    41A     -0.751366    42A     -0.747395
      43A     -0.730931    44A     -0.724637    45A     -0.707048
      46A     -0.687934    47A     -0.675404    48A     -0.671907
      49A     -0.661604    50A     -0.659610    51A     -0.641391
      52A     -0.633303    53A     -0.625254    54A     -0.616164
      55A     -0.602479    56A     -0.596454    57A     -0.582228
      58A     -0.573905    59A     -0.572420    60A     -0.560929
      61A     -0.557055    62A     -0.551420    63A     -0.541057
      64A     -0.536946    65A     -0.533462    66A     -0.519769
      67A     -0.513172    68A     -0.506054    69A     -0.494632
      70A     -0.488327    71A     -0.479306    72A     -0.475914
      73A     -0.461280    74A     -0.456448    75A     -0.450969
      76A     -0.434667

  @DF-RHF Final Energy: -1327.84799276678950

   => Energetics <=

    Nuclear Repulsion Energy =           1770.7385584102958092
    One-Electron Energy =               -5353.6610567192601593
    Two-Electron Energy =                2255.0745055421748475
    Total Energy =                      -1327.8479927667895026
  Basis Set: (AUG-CC-PVTZ AUX)
    Blend: AUG-CC-PVTZ-RI
    Molecular point group: c1

    Geometry (in Angstrom), charge = 0, multiplicity = 1:

       Center              X                  Y                   Z               Mass
    ------------   -----------------  -----------------  -----------------  -----------------
         P           -2.291826445453    -0.936814565233     0.349762110765    30.973761998420
         O           -0.983883445453    -0.198333565233     0.943373110765    15.994914619570
         O            1.376123754547    -1.729926165233     1.204155210765    15.994914619570
         O            0.076974554547     2.362832434767     0.467252110765    15.994914619570
         O            3.066784554547    -2.183843565233    -0.803505889235    15.994914619570
         O            2.845604554547     2.506341434767     0.376619110765    15.994914619570
         O            4.193957554547     0.438625434767    -0.967789889235    15.994914619570
         O           -2.828593445453     0.036579434767    -0.802446889235    15.994914619570
         O           -3.260851445453    -0.720053565233     1.626755110765    15.994914619570
         O           -2.120723445453    -2.340415565233    -0.094583889235    15.994914619570
         C            0.110514654547     0.032610034767    -0.058281889235    12.000000000000
         C            0.951561554547    -1.240976565233    -0.070640889235    12.000000000000
         C            0.896858554547     1.205872434767     0.569935110765    12.000000000000
         C            2.257929554547    -1.011078565233    -0.812952889235    12.000000000000
         C            2.175344554547     1.399700434767    -0.222956889235    12.000000000000
         C            3.024111554547     0.151933434767    -0.205237889235    12.000000000000
         C           -3.125943445453     1.434826434767    -0.483801889235    12.000000000000
         C           -3.538047445453     2.088393434767    -1.779034889235    12.000000000000
         H           -0.284822445453     0.302029434767    -0.965153889235     1.007825032230
         H            0.368538554547    -2.026135565233    -0.566947889235     1.007825032230
         H            1.155389554547     1.001105434767     1.617240110765     1.007825032230
         H            2.059203554547    -0.785431565233    -1.867671889235     1.007825032230
         H            1.915256554547     1.639515434767    -1.268498889235     1.007825032230
         H            3.294124554547    -0.091303565233     0.832730110765     1.007825032230
         H            0.520044554547    -1.884803565233     1.716594110765     1.007825032230
         H            0.663809554547     3.112539434767     0.688268110765     1.007825032230
         H            2.971812554547    -2.544145565233     0.099738110765     1.007825032230
         H            3.719698554547     2.552414434767    -0.053784889235     1.007825032230
         H            4.637996554547    -0.420605565233    -1.092002889235     1.007825032230
         H           -3.810125445453    -1.519109565233     1.739812110765     1.007825032230
         H           -3.932276445453     1.448769434767     0.254470110765     1.007825032230
         H           -2.231492445453     1.896108434767    -0.054011889235     1.007825032230
         H           -3.802251445453     3.134110434767    -1.597586889235     1.007825032230
         H           -2.718926445453     2.056551434767    -2.499790889235     1.007825032230
         H           -4.402674445453     1.577551434767    -2.207639889235     1.007825032230

  Basis Set: AUG-CC-PVTZ
    Blend: AUG-CC-PVTZ
  Basis Set: (AUG-CC-PVTZ AUX)
    Blend: AUG-CC-PVTZ-JKFIT
	 Reference Energy          =   -1327.8479927667895026 [Eh]
	 Singles Energy            =      -0.0000000000000000 [Eh]
	 Same-Spin Energy          =      -1.0153701964478188 [Eh]
	 Opposite-Spin Energy      =      -3.0784777523653570 [Eh]
	 Correlation Energy        =      -4.0938479488131758 [Eh]
	 Total Energy              =   -1331.9418407156026660 [Eh]

	 ================> DF-SCS-MP2 Energies <==================
	-----------------------------------------------------------
	 SCS Same-Spin Scale       =       0.3333333333333333 [-]
	 SCS Opposite-Spin Scale   =       1.2000000000000000 [-]
	 SCS Same-Spin Energy      =      -0.3384567321492729 [Eh]
	 SCS Opposite-Spin Energy  =      -3.6941733028384283 [Eh]
	 SCS Correlation Energy    =      -4.0326300349877009 [Eh]
	 SCS Total Energy          =   -1331.8806228017772355 [Eh]
	-----------------------------------------------------------

  Dipole Moment: [D]
     X:    -1.0938      Y:     2.0335      Z:     0.7250     Total:     2.4201

*** Psi4 exiting successfully. Buy a developer a beer!
