                               Psi4 1.3.2 release

  ==> Input File <==

--------------------------------------------------------------------------
#psi4
#
memory 32 gb

molecule  {
0 1
  P       -2.2900960    -0.9400430     0.3446780
  O       -0.9821530    -0.2015620     0.9382890
  O        1.3422500    -1.6754830     1.2308510
  O        0.0787050     2.3596040     0.4621680
  O        3.0685150    -2.1870720    -0.8085900
  O        2.8473350     2.5031130     0.3715350
  O        4.2231524     0.4271980    -0.9321994
  O       -2.8268630     0.0333510    -0.8075310
  O       -3.2591210    -0.7232820     1.6216710
  O       -2.1189930    -2.3436440    -0.0996680
  C        0.1181620     0.0300090     0.0163190
  C        0.9532920    -1.2442050    -0.0757250
  C        0.8985890     1.2026440     0.5648510
  C        2.2596600    -1.0143070    -0.8180370
  C        2.1770750     1.3964720    -0.2280410
  C        3.0258420     0.1487050    -0.2103220
  C       -3.1242130     1.4315980    -0.4888860
  C       -3.5363170     2.0851650    -1.7841190
  H       -0.2830920     0.2988010    -0.9702380
  H        0.3702690    -2.0293640    -0.5720320
  H        1.1571200     0.9978770     1.6121560
  H        2.0609340    -0.7886600    -1.8727560
  H        1.9169870     1.6362870    -1.2735830
  H        3.3327811    -0.0893006     0.8185563
  H        0.5217750    -1.8880320     1.7115100
  H        0.6655400     3.1093110     0.6831840
  H        2.9735430    -2.5473740     0.0946540
  H        3.7214290     2.5491860    -0.0588690
  H        4.6397270    -0.4238340    -1.0970870
  H       -3.8083950    -1.5223380     1.7347280
  H       -3.9305460     1.4455410     0.2493860
  H       -2.2297620     1.8928800    -0.0590960
  H       -3.8005210     3.1308820    -1.6026710
  H       -2.7171960     2.0533230    -2.5048750
  H       -4.4009440     1.5743230    -2.2127240
units angstrom
no_reorient  #important for SAPT in psi4, default
symmetry c1  #important for SAPT in psi4, default
}

set PROPERTIES_ORIGIN ["COM"]
properties('MP2/aug-cc-pvtz', properties = ['dipole'])
--------------------------------------------------------------------------

    Molecular point group: c1
  Charge       = 0
  Multiplicity = 1
  Basis Set: AUG-CC-PVTZ
    Blend: AUG-CC-PVTZ
  Basis Set: (AUG-CC-PVTZ AUX)
    Blend: AUG-CC-PVTZ-JKFIT

    Orbital Energies [Eh]
    ---------------------

    Doubly Occupied:

       1A    -80.117145     2A    -20.614891     3A    -20.607292
       4A    -20.599137     5A    -20.583134     6A    -20.576928
       7A    -20.574764     8A    -20.573828     9A    -20.571018
      10A    -20.523637    11A    -11.321131    12A    -11.304166
      13A    -11.300561    14A    -11.299570    15A    -11.299112
      16A    -11.297547    17A    -11.291326    18A    -11.230039
      19A     -7.632595    20A     -5.531101    21A     -5.530729
      22A     -5.529527    23A     -1.460497    24A     -1.411026
      25A     -1.395053    26A     -1.393247    27A     -1.387061
      28A     -1.373352    29A     -1.364165    30A     -1.354586
      31A     -1.304032    32A     -1.119522    33A     -1.040646
      34A     -1.012504    35A     -1.003925    36A     -0.880847
      37A     -0.865242    38A     -0.859642    39A     -0.822837
      40A     -0.810897    41A     -0.751691    42A     -0.745104
      43A     -0.732755    44A     -0.728807    45A     -0.708768
      46A     -0.687513    47A     -0.678455    48A     -0.674384
      49A     -0.662039    50A     -0.659792    51A     -0.643584
      52A     -0.637204    53A     -0.627527    54A     -0.615723
      55A     -0.603982    56A     -0.598993    57A     -0.582133
      58A     -0.575741    59A     -0.571195    60A     -0.559602
      61A     -0.555969    62A     -0.548624    63A     -0.541387
      64A     -0.537310    65A     -0.530309    66A     -0.522201
      67A     -0.513360    68A     -0.502830    69A     -0.497277
      70A     -0.484857    71A     -0.480036    72A     -0.476753
      73A     -0.462682    74A     -0.454643    75A     -0.450504
      76A     -0.437364

  @DF-RHF Final Energy: -1327.86183814916399

   => Energetics <=

    Nuclear Repulsion Energy =           1772.0807049190523230
    One-Electron Energy =               -5356.2663727207082047
    Two-Electron Energy =                2256.3238296524918951
    Total Energy =                      -1327.8618381491637592
  Basis Set: (AUG-CC-PVTZ AUX)
    Blend: AUG-CC-PVTZ-RI
    Molecular point group: c1

    Geometry (in Angstrom), charge = 0, multiplicity = 1:

       Center              X                  Y                   Z               Mass
    ------------   -----------------  -----------------  -----------------  -----------------
         P           -2.291750150653    -0.939606026401     0.342451289188    30.973761998420
         O           -0.983807150653    -0.201125026401     0.936062289188    15.994914619570
         O            1.340595849347    -1.675046026401     1.228624289188    15.994914619570
         O            0.077050849347     2.360040973599     0.459941289188    15.994914619570
         O            3.066860849347    -2.186635026401    -0.810816710812    15.994914619570
         O            2.845680849347     2.503549973599     0.369308289188    15.994914619570
         O            4.221498249347     0.427634973599    -0.934426110812    15.994914619570
         O           -2.828517150653     0.033787973599    -0.809757710812    15.994914619570
         O           -3.260775150653    -0.722845026401     1.619444289188    15.994914619570
         O           -2.120647150653    -2.343207026401    -0.101894710812    15.994914619570
         C            0.116507849347     0.030445973599     0.014092289188    12.000000000000
         C            0.951637849347    -1.243768026401    -0.077951710812    12.000000000000
         C            0.896934849347     1.203080973599     0.562624289188    12.000000000000
         C            2.258005849347    -1.013870026401    -0.820263710812    12.000000000000
         C            2.175420849347     1.396908973599    -0.230267710812    12.000000000000
         C            3.024187849347     0.149141973599    -0.212548710812    12.000000000000
         C           -3.125867150653     1.432034973599    -0.491112710812    12.000000000000
         C           -3.537971150653     2.085601973599    -1.786345710812    12.000000000000
         H           -0.284746150653     0.299237973599    -0.972464710812     1.007825032230
         H            0.368614849347    -2.028927026401    -0.574258710812     1.007825032230
         H            1.155465849347     0.998313973599     1.609929289188     1.007825032230
         H            2.059279849347    -0.788223026401    -1.874982710812     1.007825032230
         H            1.915332849347     1.636723973599    -1.275809710812     1.007825032230
         H            3.331126949347    -0.088863626401     0.816329589188     1.007825032230
         H            0.520120849347    -1.887595026401     1.709283289188     1.007825032230
         H            0.663885849347     3.109747973599     0.680957289188     1.007825032230
         H            2.971888849347    -2.546937026401     0.092427289188     1.007825032230
         H            3.719774849347     2.549622973599    -0.061095710812     1.007825032230
         H            4.638072849347    -0.423397026401    -1.099313710812     1.007825032230
         H           -3.810049150653    -1.521901026401     1.732501289188     1.007825032230
         H           -3.932200150653     1.445977973599     0.247159289188     1.007825032230
         H           -2.231416150653     1.893316973599    -0.061322710812     1.007825032230
         H           -3.802175150653     3.131318973599    -1.604897710812     1.007825032230
         H           -2.718850150653     2.053759973599    -2.507101710812     1.007825032230
         H           -4.402598150653     1.574759973599    -2.214950710812     1.007825032230

  Basis Set: AUG-CC-PVTZ
    Blend: AUG-CC-PVTZ
  Basis Set: (AUG-CC-PVTZ AUX)
    Blend: AUG-CC-PVTZ-JKFIT
	 Reference Energy          =   -1327.8618381491639866 [Eh]
	 Singles Energy            =      -0.0000000000000000 [Eh]
	 Same-Spin Energy          =      -1.0142947071033148 [Eh]
	 Opposite-Spin Energy      =      -3.0754608548428664 [Eh]
	 Correlation Energy        =      -4.0897555619461814 [Eh]
	 Total Energy              =   -1331.9515937111102630 [Eh]

	 ================> DF-SCS-MP2 Energies <==================
	-----------------------------------------------------------
	 SCS Same-Spin Scale       =       0.3333333333333333 [-]
	 SCS Opposite-Spin Scale   =       1.2000000000000000 [-]
	 SCS Same-Spin Energy      =      -0.3380982357011049 [Eh]
	 SCS Opposite-Spin Energy  =      -3.6905530258114396 [Eh]
	 SCS Correlation Energy    =      -4.0286512615125449 [Eh]
	 SCS Total Energy          =   -1331.8904894106765369 [Eh]
	-----------------------------------------------------------

  Dipole Moment: [D]
     X:    -1.1938      Y:     1.8688      Z:     0.6518     Total:     2.3114

*** Psi4 exiting successfully. Buy a developer a beer!
