                               Psi4 1.3.2 release

  ==> Input File <==

--------------------------------------------------------------------------
#psi4
#
memory 32 gb

molecule  {
0 1
  P       -2.2900960    -0.9400430     0.3446780
  O       -0.9821530    -0.2015620     0.9382890
  O        1.3422500    -1.6754830     1.2308510
  O        0.0787050     2.3596040     0.4621680
  O        3.0685150    -2.1870720    -0.8085900
  O        2.8473350     2.5031130     0.3715350
  O        4.1956880     0.4353970    -0.9728740
  O       -2.7728889     0.0579992    -0.8560973
  O       -3.2591210    -0.7232820     1.6216710
  O       -2.1189930    -2.3436440    -0.0996680
  C        0.1181620     0.0300090     0.0163190
  C        0.9532920    -1.2442050    -0.0757250
  C        0.8985890     1.2026440     0.5648510
  C        2.2596600    -1.0143070    -0.8180370
  C        2.1770750     1.3964720    -0.2280410
  C        3.0258420     0.1487050    -0.2103220
  C       -3.1242130     1.4315980    -0.4888860
  C       -3.5363170     2.0851650    -1.7841190
  H       -0.2830920     0.2988010    -0.9702380
  H        0.3702690    -2.0293640    -0.5720320
  H        1.1571200     0.9978770     1.6121560
  H        2.0609340    -0.7886600    -1.8727560
  H        1.9169870     1.6362870    -1.2735830
  H        3.2958550    -0.0945320     0.8276460
  H        0.5217750    -1.8880320     1.7115100
  H        0.6655400     3.1093110     0.6831840
  H        2.9735430    -2.5473740     0.0946540
  H        3.7214290     2.5491860    -0.0588690
  H        4.6397270    -0.4238340    -1.0970870
  H       -3.8083950    -1.5223380     1.7347280
  H       -3.9279537     1.5027215     0.2489183
  H       -2.2297620     1.8928800    -0.0590960
  H       -3.8005210     3.1308820    -1.6026710
  H       -2.7171960     2.0533230    -2.5048750
  H       -4.4009440     1.5743230    -2.2127240
units angstrom
no_reorient  #important for SAPT in psi4, default
symmetry c1  #important for SAPT in psi4, default
}

set PROPERTIES_ORIGIN ["COM"]
properties('MP2/aug-cc-pvtz', properties = ['dipole'])
--------------------------------------------------------------------------

    Molecular point group: c1
  Charge       = 0
  Multiplicity = 1
  Basis Set: AUG-CC-PVTZ
    Blend: AUG-CC-PVTZ
  Basis Set: (AUG-CC-PVTZ AUX)
    Blend: AUG-CC-PVTZ-JKFIT

    Orbital Energies [Eh]
    ---------------------

    Doubly Occupied:

       1A    -80.121451     2A    -20.620666     3A    -20.607124
       4A    -20.600906     5A    -20.583012     6A    -20.576380
       7A    -20.574416     8A    -20.573810     9A    -20.572678
      10A    -20.525955    11A    -11.319776    12A    -11.303286
      13A    -11.299080    14A    -11.298018    15A    -11.296840
      16A    -11.296213    17A    -11.291117    18A    -11.227183
      19A     -7.636353    20A     -5.534869    21A     -5.534370
      22A     -5.533289    23A     -1.459124    24A     -1.410696
      25A     -1.395543    26A     -1.392993    27A     -1.384193
      28A     -1.371877    29A     -1.363562    30A     -1.353490
      31A     -1.306021    32A     -1.118641    33A     -1.037018
      34A     -1.011694    35A     -1.003052    36A     -0.879527
      37A     -0.860742    38A     -0.858699    39A     -0.824089
      40A     -0.810307    41A     -0.751372    42A     -0.745273
      43A     -0.731705    44A     -0.727159    45A     -0.708567
      46A     -0.686680    47A     -0.678213    48A     -0.672981
      49A     -0.662728    50A     -0.660117    51A     -0.643308
      52A     -0.634178    53A     -0.626568    54A     -0.614343
      55A     -0.603697    56A     -0.598063    57A     -0.582505
      58A     -0.576159    59A     -0.569312    60A     -0.559489
      61A     -0.556420    62A     -0.546016    63A     -0.540359
      64A     -0.536344    65A     -0.530678    66A     -0.520394
      67A     -0.512303    68A     -0.504215    69A     -0.497759
      70A     -0.483832    71A     -0.479187    72A     -0.476266
      73A     -0.462359    74A     -0.455442    75A     -0.449888
      76A     -0.436139

  @DF-RHF Final Energy: -1327.85602269789024

   => Energetics <=

    Nuclear Repulsion Energy =           1771.8799501420489833
    One-Electron Energy =               -5355.8957871731090563
    Two-Electron Energy =                2256.1598143331698338
    Total Energy =                      -1327.8560226978902392
  Basis Set: (AUG-CC-PVTZ AUX)
    Blend: AUG-CC-PVTZ-RI
    Molecular point group: c1

    Geometry (in Angstrom), charge = 0, multiplicity = 1:

       Center              X                  Y                   Z               Mass
    ------------   -----------------  -----------------  -----------------  -----------------
         P           -2.293102009804    -0.941611656196     0.347376325949    30.973761998420
         O           -0.985159009804    -0.203130656196     0.940987325949    15.994914619570
         O            1.339243990196    -1.677051656196     1.233549325949    15.994914619570
         O            0.075698990196     2.358035343804     0.464866325949    15.994914619570
         O            3.065508990196    -2.188640656196    -0.805891674051    15.994914619570
         O            2.844328990196     2.501544343804     0.374233325949    15.994914619570
         O            4.192681990196     0.433828343804    -0.970175674051    15.994914619570
         O           -2.775894909804     0.056430543804    -0.853398974051    15.994914619570
         O           -3.262127009804    -0.724850656196     1.624369325949    15.994914619570
         O           -2.121999009804    -2.345212656196    -0.096969674051    15.994914619570
         C            0.115155990196     0.028440343804     0.019017325949    12.000000000000
         C            0.950285990196    -1.245773656196    -0.073026674051    12.000000000000
         C            0.895582990196     1.201075343804     0.567549325949    12.000000000000
         C            2.256653990196    -1.015875656196    -0.815338674051    12.000000000000
         C            2.174068990196     1.394903343804    -0.225342674051    12.000000000000
         C            3.022835990196     0.147136343804    -0.207623674051    12.000000000000
         C           -3.127219009804     1.430029343804    -0.486187674051    12.000000000000
         C           -3.539323009804     2.083596343804    -1.781420674051    12.000000000000
         H           -0.286098009804     0.297232343804    -0.967539674051     1.007825032230
         H            0.367262990196    -2.030932656196    -0.569333674051     1.007825032230
         H            1.154113990196     0.996308343804     1.614854325949     1.007825032230
         H            2.057927990196    -0.790228656196    -1.870057674051     1.007825032230
         H            1.913980990196     1.634718343804    -1.270884674051     1.007825032230
         H            3.292848990196    -0.096100656196     0.830344325949     1.007825032230
         H            0.518768990196    -1.889600656196     1.714208325949     1.007825032230
         H            0.662533990196     3.107742343804     0.685882325949     1.007825032230
         H            2.970536990196    -2.548942656196     0.097352325949     1.007825032230
         H            3.718422990196     2.547617343804    -0.056170674051     1.007825032230
         H            4.636720990196    -0.425402656196    -1.094388674051     1.007825032230
         H           -3.811401009804    -1.523906656196     1.737426325949     1.007825032230
         H           -3.930959709804     1.501152843804     0.251616625949     1.007825032230
         H           -2.232768009804     1.891311343804    -0.056397674051     1.007825032230
         H           -3.803527009804     3.129313343804    -1.599972674051     1.007825032230
         H           -2.720202009804     2.051754343804    -2.502176674051     1.007825032230
         H           -4.403950009804     1.572754343804    -2.210025674051     1.007825032230

  Basis Set: AUG-CC-PVTZ
    Blend: AUG-CC-PVTZ
  Basis Set: (AUG-CC-PVTZ AUX)
    Blend: AUG-CC-PVTZ-JKFIT
	 Reference Energy          =   -1327.8560226978902392 [Eh]
	 Singles Energy            =      -0.0000000000000000 [Eh]
	 Same-Spin Energy          =      -1.0152641535573508 [Eh]
	 Opposite-Spin Energy      =      -3.0777518153691368 [Eh]
	 Correlation Energy        =      -4.0930159689264878 [Eh]
	 Total Energy              =   -1331.9490386668167048 [Eh]

	 ================> DF-SCS-MP2 Energies <==================
	-----------------------------------------------------------
	 SCS Same-Spin Scale       =       0.3333333333333333 [-]
	 SCS Opposite-Spin Scale   =       1.2000000000000000 [-]
	 SCS Same-Spin Energy      =      -0.3384213845191169 [Eh]
	 SCS Opposite-Spin Energy  =      -3.6933021784429640 [Eh]
	 SCS Correlation Energy    =      -4.0317235629620809 [Eh]
	 SCS Total Energy          =   -1331.8877462608522819 [Eh]
	-----------------------------------------------------------

  Dipole Moment: [D]
     X:    -1.2019      Y:     1.6988      Z:     0.9009     Total:     2.2676

*** Psi4 exiting successfully. Buy a developer a beer!
