                               Psi4 1.4a3.dev225

  ==> Input File <==

--------------------------------------------------------------------------
#psi4
#
memory 32 gb

molecule  {
0 1
  P       -2.3219140    -1.0563120    -0.0968450
  O       -1.0285840    -0.5623410     0.7549430
  O        1.3695440    -1.8069540     1.2202350
  O       -0.1592450     2.1412630     0.5207450
  O        3.3269040    -2.0858120    -0.6453880
  O        2.5724350     2.5270130     0.6374560
  O        4.2203020     0.6406430    -0.6358120
  O       -2.8737010     0.2643620    -0.8096810
  O       -3.3065970    -1.3497020     1.1531960
  O       -2.1044560    -2.1814480    -1.0350500
  C        0.1200290    -0.1583450    -0.0432010
  C        1.0698050    -1.3527180    -0.1046720
  C        0.7441670     1.0454510     0.6308160
  C        2.4193320    -0.9866070    -0.7068450
  C        2.0169768     1.3741497    -0.0246897
  C        3.0180900     0.2181970     0.0056710
  C       -3.2473180     1.4231610     0.0025120
  C       -3.2076300     2.6262440    -0.9075720
  H       -0.2047330     0.1313700    -1.0514980
  H        0.5965010    -2.1549610    -0.6866410
  H        0.9371260     0.8063110     1.6860210
  H        2.3054700    -0.7437210    -1.7704410
  H        1.8633300     1.6367370    -1.1028410
  H        3.2142070    -0.0417910     1.0561650
  H        0.5126160    -2.0057500     1.6426110
  H        0.3598300     2.9232990     0.7925780
  H        3.1793900    -2.4823080     0.2360710
  H        3.4672560     2.6739710     0.2770410
  H        4.7639490    -0.1654590    -0.7244900
  H       -3.7873380    -2.1826420     0.9908450
  H       -4.2474700     1.2335250     0.4005830
  H       -2.5352900     1.5309660     0.8217280
  H       -3.5402110     3.5125760    -0.3587690
  H       -2.1856630     2.7912820    -1.2511950
  H       -3.8637180     2.4807570    -1.7684970
units angstrom
no_reorient  #important for SAPT in psi4, default
symmetry c1  #important for SAPT in psi4, default
}

set PROPERTIES_ORIGIN ["COM"]
properties('MP2/aug-cc-pvtz', properties = ['dipole'])
--------------------------------------------------------------------------

    Molecular point group: c1
  Charge       = 0
  Multiplicity = 1
  Basis Set: AUG-CC-PVTZ
    Blend: AUG-CC-PVTZ
  Basis Set: (AUG-CC-PVTZ AUX)
    Blend: AUG-CC-PVTZ-JKFIT

    Orbital Energies [Eh]
    ---------------------

    Doubly Occupied:

       1A    -80.117378     2A    -20.615451     3A    -20.608984
       4A    -20.596462     5A    -20.584552     6A    -20.576296
       7A    -20.575735     8A    -20.575323     9A    -20.574722
      10A    -20.523013    11A    -11.322914    12A    -11.305776
      13A    -11.300304    14A    -11.299915    15A    -11.299495
      16A    -11.296495    17A    -11.294542    18A    -11.223144
      19A     -7.632639    20A     -5.531174    21A     -5.530674
      22A     -5.529608    23A     -1.459136    24A     -1.411000
      25A     -1.393586    26A     -1.393104    27A     -1.385632
      28A     -1.373428    29A     -1.362650    30A     -1.352359
      31A     -1.303196    32A     -1.122790    33A     -1.035821
      34A     -1.010016    35A     -1.009207    36A     -0.880600
      37A     -0.863180    38A     -0.857892    39A     -0.823391
      40A     -0.810091    41A     -0.755197    42A     -0.744735
      43A     -0.729460    44A     -0.726614    45A     -0.706135
      46A     -0.687385    47A     -0.679803    48A     -0.674257
      49A     -0.661978    50A     -0.660450    51A     -0.641585
      52A     -0.639968    53A     -0.623484    54A     -0.612859
      55A     -0.604621    56A     -0.597031    57A     -0.580999
      58A     -0.578369    59A     -0.570709    60A     -0.556517
      61A     -0.555427    62A     -0.548979    63A     -0.538398
      64A     -0.536257    65A     -0.530629    66A     -0.518978
      67A     -0.508898    68A     -0.503815    69A     -0.496893
      70A     -0.487927    71A     -0.479085    72A     -0.475914
      73A     -0.467106    74A     -0.455085    75A     -0.450152
      76A     -0.436042

  @DF-RHF Final Energy: -1327.85801135323982

   => Energetics <=

    Nuclear Repulsion Energy =           1775.2479655273289154
    One-Electron Energy =               -5362.6451241421873419
    Two-Electron Energy =                2259.5391472616183819
    Total Energy =                      -1327.8580113532398173
  Basis Set: (AUG-CC-PVTZ AUX)
    Blend: AUG-CC-PVTZ-RI
    Molecular point group: c1

    Geometry (in Angstrom), charge = 0, multiplicity = 1:

       Center              X                  Y                   Z               Mass
    ------------   -----------------  -----------------  -----------------  -----------------
         P           -2.309347824464    -1.018066860729    -0.100218959883    30.973761998420
         O           -1.016017824464    -0.524095860729     0.751569040117    15.994914619570
         O            1.382110175536    -1.768708860729     1.216861040117    15.994914619570
         O           -0.146678824464     2.179508139271     0.517371040117    15.994914619570
         O            3.339470175536    -2.047566860729    -0.648761959883    15.994914619570
         O            2.585001175536     2.565258139271     0.634082040117    15.994914619570
         O            4.232868175536     0.678888139271    -0.639185959883    15.994914619570
         O           -2.861134824464     0.302607139271    -0.813054959883    15.994914619570
         O           -3.294030824464    -1.311456860729     1.149822040117    15.994914619570
         O           -2.091889824464    -2.143202860729    -1.038423959883    15.994914619570
         C            0.132595175536    -0.120099860729    -0.046574959883    12.000000000000
         C            1.082371175536    -1.314472860729    -0.108045959883    12.000000000000
         C            0.756733175536     1.083696139271     0.627442040117    12.000000000000
         C            2.431898175536    -0.948361860729    -0.710218959883    12.000000000000
         C            2.029542975536     1.412394839271    -0.028063659883    12.000000000000
         C            3.030656175536     0.256442139271     0.002297040117    12.000000000000
         C           -3.234751824464     1.461406139271    -0.000861959883    12.000000000000
         C           -3.195063824464     2.664489139271    -0.910945959883    12.000000000000
         H           -0.192166824464     0.169615139271    -1.054871959883     1.007825032230
         H            0.609067175536    -2.116715860729    -0.690014959883     1.007825032230
         H            0.949692175536     0.844556139271     1.682647040117     1.007825032230
         H            2.318036175536    -0.705475860729    -1.773814959883     1.007825032230
         H            1.875896175536     1.674982139271    -1.106214959883     1.007825032230
         H            3.226773175536    -0.003545860729     1.052791040117     1.007825032230
         H            0.525182175536    -1.967504860729     1.639237040117     1.007825032230
         H            0.372396175536     2.961544139271     0.789204040117     1.007825032230
         H            3.191956175536    -2.444062860729     0.232697040117     1.007825032230
         H            3.479822175536     2.712216139271     0.273667040117     1.007825032230
         H            4.776515175536    -0.127213860729    -0.727863959883     1.007825032230
         H           -3.774771824464    -2.144396860729     0.987471040117     1.007825032230
         H           -4.234903824464     1.271770139271     0.397209040117     1.007825032230
         H           -2.522723824464     1.569211139271     0.818354040117     1.007825032230
         H           -3.527644824464     3.550821139271    -0.362142959883     1.007825032230
         H           -2.173096824464     2.829527139271    -1.254568959883     1.007825032230
         H           -3.851151824464     2.519002139271    -1.771870959883     1.007825032230

  Basis Set: AUG-CC-PVTZ
    Blend: AUG-CC-PVTZ
  Basis Set: (AUG-CC-PVTZ AUX)
    Blend: AUG-CC-PVTZ-JKFIT
	 Reference Energy          =   -1327.8580113532398173 [Eh]
	 Singles Energy            =      -0.0000000000000000 [Eh]
	 Same-Spin Energy          =      -1.0149309971280980 [Eh]
	 Opposite-Spin Energy      =      -3.0768709640009293 [Eh]
	 Correlation Energy        =      -4.0918019611290273 [Eh]
	 Total Energy              =   -1331.9498133143688392 [Eh]

	 ================> DF-SCS-MP2 Energies <==================
	-----------------------------------------------------------
	 SCS Same-Spin Scale       =       0.3333333333333333 [-]
	 SCS Opposite-Spin Scale   =       1.2000000000000000 [-]
	 SCS Same-Spin Energy      =      -0.3383103323760326 [Eh]
	 SCS Opposite-Spin Energy  =      -3.6922451568011150 [Eh]
	 SCS Correlation Energy    =      -4.0305554891771473 [Eh]
	 SCS Total Energy          =   -1331.8885668424170490 [Eh]
	-----------------------------------------------------------

  Dipole Moment: [D]
     X:    -0.9264      Y:     1.3592      Z:     1.8768     Total:     2.4957

*** Psi4 exiting successfully. Buy a developer a beer!
