                               Psi4 1.3.2 release

  ==> Input File <==

--------------------------------------------------------------------------
#psi4
#
memory 32 gb

molecule  {
0 1
  P       -2.2900960    -0.9400430     0.3446780
  O       -0.9821530    -0.2015620     0.9382890
  O        1.3422500    -1.6754830     1.2308510
  O        0.0787050     2.3596040     0.4621680
  O        3.0685150    -2.1870720    -0.8085900
  O        2.8473350     2.5031130     0.3715350
  O        4.1956880     0.4353970    -0.9728740
  O       -2.8268630     0.0333510    -0.8075310
  O       -3.2591210    -0.7232820     1.6216710
  O       -2.1189930    -2.3436440    -0.0996680
  C        0.1181620     0.0300090     0.0163190
  C        0.9532920    -1.2442050    -0.0757250
  C        0.8985890     1.2026440     0.5648510
  C        2.2596600    -1.0143070    -0.8180370
  C        2.1770750     1.3964720    -0.2280410
  C        3.0258420     0.1487050    -0.2103220
  C       -3.1242130     1.4315980    -0.4888860
  C       -3.5363170     2.0851650    -1.7841190
  H       -0.2830920     0.2988010    -0.9702380
  H        0.3702690    -2.0293640    -0.5720320
  H        1.1571200     0.9978770     1.6121560
  H        2.0609340    -0.7886600    -1.8727560
  H        1.9169870     1.6362870    -1.2735830
  H        3.2958550    -0.0945320     0.8276460
  H        0.5217750    -1.8880320     1.7115100
  H        0.6655400     3.1093110     0.6831840
  H        2.9735430    -2.5473740     0.0946540
  H        3.7214290     2.5491860    -0.0588690
  H        4.5941906    -0.3357194    -1.0843489
  H       -3.8083950    -1.5223380     1.7347280
  H       -3.9305460     1.4455410     0.2493860
  H       -2.2297620     1.8928800    -0.0590960
  H       -3.8005210     3.1308820    -1.6026710
  H       -2.7171960     2.0533230    -2.5048750
  H       -4.4009440     1.5743230    -2.2127240
units angstrom
no_reorient  #important for SAPT in psi4, default
symmetry c1  #important for SAPT in psi4, default
}

set PROPERTIES_ORIGIN ["COM"]
properties('MP2/aug-cc-pvtz', properties = ['dipole'])
--------------------------------------------------------------------------

    Molecular point group: c1
  Charge       = 0
  Multiplicity = 1
  Basis Set: AUG-CC-PVTZ
    Blend: AUG-CC-PVTZ
  Basis Set: (AUG-CC-PVTZ AUX)
    Blend: AUG-CC-PVTZ-JKFIT

    Orbital Energies [Eh]
    ---------------------

    Doubly Occupied:

       1A    -80.117146     2A    -20.614905     3A    -20.607309
       4A    -20.599131     5A    -20.583433     6A    -20.577464
       7A    -20.574008     8A    -20.573876     9A    -20.565990
      10A    -20.523622    11A    -11.321118    12A    -11.303957
      13A    -11.299964    14A    -11.299570    15A    -11.299087
      16A    -11.297404    17A    -11.292889    18A    -11.230025
      19A     -7.632596    20A     -5.531102    21A     -5.530730
      22A     -5.529527    23A     -1.460515    24A     -1.416786
      25A     -1.402819    26A     -1.393403    27A     -1.387412
      28A     -1.380081    29A     -1.364156    30A     -1.359010
      31A     -1.304018    32A     -1.121018    33A     -1.040695
      34A     -1.016250    35A     -1.003904    36A     -0.883188
      37A     -0.865964    38A     -0.861140    39A     -0.823540
      40A     -0.811211    41A     -0.755505    42A     -0.749797
      43A     -0.734042    44A     -0.728907    45A     -0.708618
      46A     -0.690222    47A     -0.680416    48A     -0.675745
      49A     -0.666282    50A     -0.661318    51A     -0.644014
      52A     -0.637029    53A     -0.627658    54A     -0.616080
      55A     -0.604585    56A     -0.599494    57A     -0.582821
      58A     -0.575790    59A     -0.571840    60A     -0.559888
      61A     -0.558247    62A     -0.548873    63A     -0.541697
      64A     -0.539637    65A     -0.530406    66A     -0.522450
      67A     -0.513772    68A     -0.505481    69A     -0.497373
      70A     -0.485278    71A     -0.480043    72A     -0.476848
      73A     -0.462793    74A     -0.457909    75A     -0.450518
      76A     -0.437517

  @DF-RHF Final Energy: -1327.85652193599640

   => Energetics <=

    Nuclear Repulsion Energy =           1773.1368377547096316
    One-Electron Energy =               -5358.2289986543455598
    Two-Electron Energy =                2257.2356389636397580
    Total Energy =                      -1327.8565219359961702
  Basis Set: (AUG-CC-PVTZ AUX)
    Blend: AUG-CC-PVTZ-RI
    Molecular point group: c1

    Geometry (in Angstrom), charge = 0, multiplicity = 1:

       Center              X                  Y                   Z               Mass
    ------------   -----------------  -----------------  -----------------  -----------------
         P           -2.289936651185    -0.940351264577     0.344633424601    30.973761998420
         O           -0.981993651185    -0.201870264577     0.938244424601    15.994914619570
         O            1.342409348815    -1.675791264577     1.230806424601    15.994914619570
         O            0.078864348815     2.359295735423     0.462123424601    15.994914619570
         O            3.068674348815    -2.187380264577    -0.808634575399    15.994914619570
         O            2.847494348815     2.502804735423     0.371490424601    15.994914619570
         O            4.195847348815     0.435088735423    -0.972918575399    15.994914619570
         O           -2.826703651185     0.033042735423    -0.807575575399    15.994914619570
         O           -3.258961651185    -0.723590264577     1.621626424601    15.994914619570
         O           -2.118833651185    -2.343952264577    -0.099712575399    15.994914619570
         C            0.118321348815     0.029700735423     0.016274424601    12.000000000000
         C            0.953451348815    -1.244513264577    -0.075769575399    12.000000000000
         C            0.898748348815     1.202335735423     0.564806424601    12.000000000000
         C            2.259819348815    -1.014615264577    -0.818081575399    12.000000000000
         C            2.177234348815     1.396163735423    -0.228085575399    12.000000000000
         C            3.026001348815     0.148396735423    -0.210366575399    12.000000000000
         C           -3.124053651185     1.431289735423    -0.488930575399    12.000000000000
         C           -3.536157651185     2.084856735423    -1.784163575399    12.000000000000
         H           -0.282932651185     0.298492735423    -0.970282575399     1.007825032230
         H            0.370428348815    -2.029672264577    -0.572076575399     1.007825032230
         H            1.157279348815     0.997568735423     1.612111424601     1.007825032230
         H            2.061093348815    -0.788968264577    -1.872800575399     1.007825032230
         H            1.917146348815     1.635978735423    -1.273627575399     1.007825032230
         H            3.296014348815    -0.094840264577     0.827601424601     1.007825032230
         H            0.521934348815    -1.888340264577     1.711465424601     1.007825032230
         H            0.665699348815     3.109002735423     0.683139424601     1.007825032230
         H            2.973702348815    -2.547682264577     0.094609424601     1.007825032230
         H            3.721588348815     2.548877735423    -0.058913575399     1.007825032230
         H            4.594349948815    -0.336027664577    -1.084393475399     1.007825032230
         H           -3.808235651185    -1.522646264577     1.734683424601     1.007825032230
         H           -3.930386651185     1.445232735423     0.249341424601     1.007825032230
         H           -2.229602651185     1.892571735423    -0.059140575399     1.007825032230
         H           -3.800361651185     3.130573735423    -1.602715575399     1.007825032230
         H           -2.717036651185     2.053014735423    -2.504919575399     1.007825032230
         H           -4.400784651185     1.574014735423    -2.212768575399     1.007825032230

  Basis Set: AUG-CC-PVTZ
    Blend: AUG-CC-PVTZ
  Basis Set: (AUG-CC-PVTZ AUX)
    Blend: AUG-CC-PVTZ-JKFIT
	 Reference Energy          =   -1327.8565219359963976 [Eh]
	 Singles Energy            =      -0.0000000000000000 [Eh]
	 Same-Spin Energy          =      -1.0132867614971270 [Eh]
	 Opposite-Spin Energy      =      -3.0730844640456199 [Eh]
	 Correlation Energy        =      -4.0863712255427469 [Eh]
	 Total Energy              =   -1331.9428931615391321 [Eh]

	 ================> DF-SCS-MP2 Energies <==================
	-----------------------------------------------------------
	 SCS Same-Spin Scale       =       0.3333333333333333 [-]
	 SCS Opposite-Spin Scale   =       1.2000000000000000 [-]
	 SCS Same-Spin Energy      =      -0.3377622538323757 [Eh]
	 SCS Opposite-Spin Energy  =      -3.6877013568547437 [Eh]
	 SCS Correlation Energy    =      -4.0254636106871189 [Eh]
	 SCS Total Energy          =   -1331.8819855466836088 [Eh]
	-----------------------------------------------------------

  Dipole Moment: [D]
     X:    -1.1794      Y:     1.9530      Z:     0.7470     Total:     2.4006

*** Psi4 exiting successfully. Buy a developer a beer!
