                               Psi4 1.3.2 release

  ==> Input File <==

--------------------------------------------------------------------------
#psi4
#
memory 32 gb

molecule  {
0 1
  P       -2.2900960    -0.9400430     0.3446780
  O       -0.9821530    -0.2015620     0.9382890
  O        1.3422500    -1.6754830     1.2308510
  O        0.0787050     2.3596040     0.4621680
  O        3.0685150    -2.1870720    -0.8085900
  O        2.8473350     2.5031130     0.3715350
  O        4.1956880     0.4353970    -0.9728740
  O       -2.8265648     0.0440478    -0.7985485
  O       -3.2591210    -0.7232820     1.6216710
  O       -2.1149201    -2.3468403    -0.0878151
  C        0.1181620     0.0300090     0.0163190
  C        0.9532920    -1.2442050    -0.0757250
  C        0.8985890     1.2026440     0.5648510
  C        2.2596600    -1.0143070    -0.8180370
  C        2.1770750     1.3964720    -0.2280410
  C        3.0258420     0.1487050    -0.2103220
  C       -3.1242130     1.4315980    -0.4888860
  C       -3.5363170     2.0851650    -1.7841190
  H       -0.2830920     0.2988010    -0.9702380
  H        0.3702690    -2.0293640    -0.5720320
  H        1.1571200     0.9978770     1.6121560
  H        2.0609340    -0.7886600    -1.8727560
  H        1.9169870     1.6362870    -1.2735830
  H        3.2958550    -0.0945320     0.8276460
  H        0.5217750    -1.8880320     1.7115100
  H        0.6655400     3.1093110     0.6831840
  H        2.9735430    -2.5473740     0.0946540
  H        3.7214290     2.5491860    -0.0588690
  H        4.6397270    -0.4238340    -1.0970870
  H       -3.8083950    -1.5223380     1.7347280
  H       -3.9305460     1.4455410     0.2493860
  H       -2.2297620     1.8928800    -0.0590960
  H       -3.8005210     3.1308820    -1.6026710
  H       -2.7171960     2.0533230    -2.5048750
  H       -4.4009440     1.5743230    -2.2127240
units angstrom
no_reorient  #important for SAPT in psi4, default
symmetry c1  #important for SAPT in psi4, default
}

set PROPERTIES_ORIGIN ["COM"]
properties('MP2/aug-cc-pvtz', properties = ['dipole'])
--------------------------------------------------------------------------

    Molecular point group: c1
  Charge       = 0
  Multiplicity = 1
  Basis Set: AUG-CC-PVTZ
    Blend: AUG-CC-PVTZ
  Basis Set: (AUG-CC-PVTZ AUX)
    Blend: AUG-CC-PVTZ-JKFIT

    Orbital Energies [Eh]
    ---------------------

    Doubly Occupied:

       1A    -80.117768     2A    -20.614281     3A    -20.606593
       4A    -20.599262     5A    -20.583090     6A    -20.576755
       7A    -20.574638     8A    -20.574100     9A    -20.573313
      10A    -20.524831    11A    -11.320738    12A    -11.303574
      13A    -11.299381    14A    -11.298544    15A    -11.298253
      16A    -11.296647    17A    -11.291435    18A    -11.229496
      19A     -7.633160    20A     -5.531673    21A     -5.531334
      22A     -5.530070    23A     -1.461046    24A     -1.410947
      25A     -1.394666    26A     -1.392922    27A     -1.388894
      28A     -1.372801    29A     -1.363909    30A     -1.353829
      31A     -1.305104    32A     -1.119041    33A     -1.040420
      34A     -1.011959    35A     -1.003437    36A     -0.880853
      37A     -0.865646    38A     -0.859053    39A     -0.822234
      40A     -0.810661    41A     -0.751700    42A     -0.745412
      43A     -0.731791    44A     -0.729435    45A     -0.707927
      46A     -0.687348    47A     -0.678408    48A     -0.674297
      49A     -0.662332    50A     -0.661226    51A     -0.643103
      52A     -0.634947    53A     -0.627866    54A     -0.616047
      55A     -0.603515    56A     -0.598495    57A     -0.582103
      58A     -0.575854    59A     -0.571181    60A     -0.559453
      61A     -0.556728    62A     -0.548618    63A     -0.541555
      64A     -0.536642    65A     -0.529872    66A     -0.521620
      67A     -0.512303    68A     -0.504108    69A     -0.496741
      70A     -0.484679    71A     -0.480052    72A     -0.477175
      73A     -0.462498    74A     -0.455844    75A     -0.450112
      76A     -0.436344

  @DF-RHF Final Energy: -1327.86169049428463

   => Energetics <=

    Nuclear Repulsion Energy =           1772.7287994266152964
    One-Electron Energy =               -5357.5736036273556238
    Two-Electron Energy =                2256.9831137064556970
    Total Energy =                      -1327.8616904942846304
  Basis Set: (AUG-CC-PVTZ AUX)
    Blend: AUG-CC-PVTZ-RI
    Molecular point group: c1

    Geometry (in Angstrom), charge = 0, multiplicity = 1:

       Center              X                  Y                   Z               Mass
    ------------   -----------------  -----------------  -----------------  -----------------
         P           -2.290338677448    -0.940459456091     0.343521081567    30.973761998420
         O           -0.982395677448    -0.201978456091     0.937132081567    15.994914619570
         O            1.342007322552    -1.675899456091     1.229694081567    15.994914619570
         O            0.078462322552     2.359187543909     0.461011081567    15.994914619570
         O            3.068272322552    -2.187488456091    -0.809746918433    15.994914619570
         O            2.847092322552     2.502696543909     0.370378081567    15.994914619570
         O            4.195445322552     0.434980543909    -0.974030918433    15.994914619570
         O           -2.826807477448     0.043631343909    -0.799705418433    15.994914619570
         O           -3.259363677448    -0.723698456091     1.620514081567    15.994914619570
         O           -2.115162777448    -2.347256756091    -0.088972018433    15.994914619570
         C            0.117919322552     0.029592543909     0.015162081567    12.000000000000
         C            0.953049322552    -1.244621456091    -0.076881918433    12.000000000000
         C            0.898346322552     1.202227543909     0.563694081567    12.000000000000
         C            2.259417322552    -1.014723456091    -0.819193918433    12.000000000000
         C            2.176832322552     1.396055543909    -0.229197918433    12.000000000000
         C            3.025599322552     0.148288543909    -0.211478918433    12.000000000000
         C           -3.124455677448     1.431181543909    -0.490042918433    12.000000000000
         C           -3.536559677448     2.084748543909    -1.785275918433    12.000000000000
         H           -0.283334677448     0.298384543909    -0.971394918433     1.007825032230
         H            0.370026322552    -2.029780456091    -0.573188918433     1.007825032230
         H            1.156877322552     0.997460543909     1.610999081567     1.007825032230
         H            2.060691322552    -0.789076456091    -1.873912918433     1.007825032230
         H            1.916744322552     1.635870543909    -1.274739918433     1.007825032230
         H            3.295612322552    -0.094948456091     0.826489081567     1.007825032230
         H            0.521532322552    -1.888448456091     1.710353081567     1.007825032230
         H            0.665297322552     3.108894543909     0.682027081567     1.007825032230
         H            2.973300322552    -2.547790456091     0.093497081567     1.007825032230
         H            3.721186322552     2.548769543909    -0.060025918433     1.007825032230
         H            4.639484322552    -0.424250456091    -1.098243918433     1.007825032230
         H           -3.808637677448    -1.522754456091     1.733571081567     1.007825032230
         H           -3.930788677448     1.445124543909     0.248229081567     1.007825032230
         H           -2.230004677448     1.892463543909    -0.060252918433     1.007825032230
         H           -3.800763677448     3.130465543909    -1.603827918433     1.007825032230
         H           -2.717438677448     2.052906543909    -2.506031918433     1.007825032230
         H           -4.401186677448     1.573906543909    -2.213880918433     1.007825032230

  Basis Set: AUG-CC-PVTZ
    Blend: AUG-CC-PVTZ
  Basis Set: (AUG-CC-PVTZ AUX)
    Blend: AUG-CC-PVTZ-JKFIT
	 Reference Energy          =   -1327.8616904942846304 [Eh]
	 Singles Energy            =      -0.0000000000000000 [Eh]
	 Same-Spin Energy          =      -1.0145671133030365 [Eh]
	 Opposite-Spin Energy      =      -3.0758463121835562 [Eh]
	 Correlation Energy        =      -4.0904134254865925 [Eh]
	 Total Energy              =   -1331.9521039197711616 [Eh]

	 ================> DF-SCS-MP2 Energies <==================
	-----------------------------------------------------------
	 SCS Same-Spin Scale       =       0.3333333333333333 [-]
	 SCS Opposite-Spin Scale   =       1.2000000000000000 [-]
	 SCS Same-Spin Energy      =      -0.3381890377676788 [Eh]
	 SCS Opposite-Spin Energy  =      -3.6910155746202671 [Eh]
	 SCS Correlation Energy    =      -4.0292046123879457 [Eh]
	 SCS Total Energy          =   -1331.8908951066725876 [Eh]
	-----------------------------------------------------------

  Dipole Moment: [D]
     X:    -1.1186      Y:     1.8154      Z:     0.6803     Total:     2.2382

*** Psi4 exiting successfully. Buy a developer a beer!
