                               Psi4 1.3.2 release

  ==> Input File <==

--------------------------------------------------------------------------
#psi4
#
memory 32 gb

molecule  {
0 1
  P       -2.2900960    -0.9400430     0.3446780
  O       -0.9821530    -0.2015620     0.9382890
  O        1.3422500    -1.6754830     1.2308510
  O        0.0787050     2.3596040     0.4621680
  O        3.0685150    -2.1870720    -0.8085900
  O        2.8473350     2.5031130     0.3715350
  O        4.1870567     0.4583501    -0.9770800
  O       -2.8268630     0.0333510    -0.8075310
  O       -3.2591210    -0.7232820     1.6216710
  O       -2.1189930    -2.3436440    -0.0996680
  C        0.1181620     0.0300090     0.0163190
  C        0.9532920    -1.2442050    -0.0757250
  C        0.8985890     1.2026440     0.5648510
  C        2.2596600    -1.0143070    -0.8180370
  C        2.1953106     1.4083881    -0.2428485
  C        3.0258420     0.1487050    -0.2103220
  C       -3.1242130     1.4315980    -0.4888860
  C       -3.5363170     2.0851650    -1.7841190
  H       -0.2830920     0.2988010    -0.9702380
  H        0.3702690    -2.0293640    -0.5720320
  H        1.1571200     0.9978770     1.6121560
  H        2.0609340    -0.7886600    -1.8727560
  H        1.9169870     1.6362870    -1.2735830
  H        3.2958550    -0.0945320     0.8276460
  H        0.5217750    -1.8880320     1.7115100
  H        0.6655400     3.1093110     0.6831840
  H        2.9735430    -2.5473740     0.0946540
  H        3.7214290     2.5491860    -0.0588690
  H        4.6397270    -0.4238340    -1.0970870
  H       -3.8083950    -1.5223380     1.7347280
  H       -3.9305460     1.4455410     0.2493860
  H       -2.2297620     1.8928800    -0.0590960
  H       -3.8005210     3.1308820    -1.6026710
  H       -2.7171960     2.0533230    -2.5048750
  H       -4.4009440     1.5743230    -2.2127240
units angstrom
no_reorient  #important for SAPT in psi4, default
symmetry c1  #important for SAPT in psi4, default
}

set PROPERTIES_ORIGIN ["COM"]
properties('MP2/aug-cc-pvtz', properties = ['dipole'])
--------------------------------------------------------------------------

    Molecular point group: c1
  Charge       = 0
  Multiplicity = 1
  Basis Set: AUG-CC-PVTZ
    Blend: AUG-CC-PVTZ
  Basis Set: (AUG-CC-PVTZ AUX)
    Blend: AUG-CC-PVTZ-JKFIT

    Orbital Energies [Eh]
    ---------------------

    Doubly Occupied:

       1A    -80.116638     2A    -20.614481     3A    -20.606559
       4A    -20.598658     5A    -20.582966     6A    -20.578081
       7A    -20.576338     8A    -20.575143     9A    -20.572435
      10A    -20.523189    11A    -11.319962    12A    -11.303372
      13A    -11.299607    14A    -11.299117    15A    -11.298017
      16A    -11.295284    17A    -11.290588    18A    -11.229674
      19A     -7.632089    20A     -5.530595    21A     -5.530221
      22A     -5.529021    23A     -1.459929    24A     -1.410744
      25A     -1.395970    26A     -1.392649    27A     -1.386528
      28A     -1.371156    29A     -1.364787    30A     -1.353369
      31A     -1.303583    32A     -1.116113    33A     -1.040212
      34A     -1.010711    35A     -1.000679    36A     -0.878626
      37A     -0.864363    38A     -0.858764    39A     -0.821954
      40A     -0.810637    41A     -0.751761    42A     -0.744851
      43A     -0.730508    44A     -0.728362    45A     -0.707822
      46A     -0.686745    47A     -0.677958    48A     -0.672897
      49A     -0.660902    50A     -0.659490    51A     -0.643340
      52A     -0.632638    53A     -0.627335    54A     -0.615662
      55A     -0.603598    56A     -0.598548    57A     -0.581714
      58A     -0.575326    59A     -0.570984    60A     -0.561017
      61A     -0.556844    62A     -0.547996    63A     -0.541077
      64A     -0.537747    65A     -0.529586    66A     -0.520638
      67A     -0.513096    68A     -0.504364    69A     -0.496199
      70A     -0.484037    71A     -0.479483    72A     -0.476384
      73A     -0.460922    74A     -0.455091    75A     -0.448256
      76A     -0.436535

  @DF-RHF Final Energy: -1327.85846966652207

   => Energetics <=

    Nuclear Repulsion Energy =           1772.0677231182301057
    One-Electron Energy =               -5356.3273441083047146
    Two-Electron Energy =                2256.4011513235527673
    Total Energy =                      -1327.8584696665220690
  Basis Set: (AUG-CC-PVTZ AUX)
    Blend: AUG-CC-PVTZ-RI
    Molecular point group: c1

    Geometry (in Angstrom), charge = 0, multiplicity = 1:

       Center              X                  Y                   Z               Mass
    ------------   -----------------  -----------------  -----------------  -----------------
         P           -2.290376360166    -0.941813878216     0.345528382161    30.973761998420
         O           -0.982433360166    -0.203332878216     0.939139382161    15.994914619570
         O            1.341969639834    -1.677253878216     1.231701382161    15.994914619570
         O            0.078424639834     2.357833121784     0.463018382161    15.994914619570
         O            3.068234639834    -2.188842878216    -0.807739617839    15.994914619570
         O            2.847054639834     2.501342121784     0.372385382161    15.994914619570
         O            4.186776339834     0.456579221784    -0.976229617839    15.994914619570
         O           -2.827143360166     0.031580121784    -0.806680617839    15.994914619570
         O           -3.259401360166    -0.725052878216     1.622521382161    15.994914619570
         O           -2.119273360166    -2.345414878216    -0.098817617839    15.994914619570
         C            0.117881639834     0.028238121784     0.017169382161    12.000000000000
         C            0.953011639834    -1.245975878216    -0.074874617839    12.000000000000
         C            0.898308639834     1.200873121784     0.565701382161    12.000000000000
         C            2.259379639834    -1.016077878216    -0.817186617839    12.000000000000
         C            2.195030239834     1.406617221784    -0.241998117839    12.000000000000
         C            3.025561639834     0.146934121784    -0.209471617839    12.000000000000
         C           -3.124493360166     1.429827121784    -0.488035617839    12.000000000000
         C           -3.536597360166     2.083394121784    -1.783268617839    12.000000000000
         H           -0.283372360166     0.297030121784    -0.969387617839     1.007825032230
         H            0.369988639834    -2.031134878216    -0.571181617839     1.007825032230
         H            1.156839639834     0.996106121784     1.613006382161     1.007825032230
         H            2.060653639834    -0.790430878216    -1.871905617839     1.007825032230
         H            1.916706639834     1.634516121784    -1.272732617839     1.007825032230
         H            3.295574639834    -0.096302878216     0.828496382161     1.007825032230
         H            0.521494639834    -1.889802878216     1.712360382161     1.007825032230
         H            0.665259639834     3.107540121784     0.684034382161     1.007825032230
         H            2.973262639834    -2.549144878216     0.095504382161     1.007825032230
         H            3.721148639834     2.547415121784    -0.058018617839     1.007825032230
         H            4.639446639834    -0.425604878216    -1.096236617839     1.007825032230
         H           -3.808675360166    -1.524108878216     1.735578382161     1.007825032230
         H           -3.930826360166     1.443770121784     0.250236382161     1.007825032230
         H           -2.230042360166     1.891109121784    -0.058245617839     1.007825032230
         H           -3.800801360166     3.129111121784    -1.601820617839     1.007825032230
         H           -2.717476360166     2.051552121784    -2.504024617839     1.007825032230
         H           -4.401224360166     1.572552121784    -2.211873617839     1.007825032230

  Basis Set: AUG-CC-PVTZ
    Blend: AUG-CC-PVTZ
  Basis Set: (AUG-CC-PVTZ AUX)
    Blend: AUG-CC-PVTZ-JKFIT
	 Reference Energy          =   -1327.8584696665220690 [Eh]
	 Singles Energy            =      -0.0000000000000000 [Eh]
	 Same-Spin Energy          =      -1.0149324304864833 [Eh]
	 Opposite-Spin Energy      =      -3.0769457054976703 [Eh]
	 Correlation Energy        =      -4.0918781359841532 [Eh]
	 Total Energy              =   -1331.9503478025062577 [Eh]

	 ================> DF-SCS-MP2 Energies <==================
	-----------------------------------------------------------
	 SCS Same-Spin Scale       =       0.3333333333333333 [-]
	 SCS Opposite-Spin Scale   =       1.2000000000000000 [-]
	 SCS Same-Spin Energy      =      -0.3383108101621611 [Eh]
	 SCS Opposite-Spin Energy  =      -3.6923348465972041 [Eh]
	 SCS Correlation Energy    =      -4.0306456567593649 [Eh]
	 SCS Total Energy          =   -1331.8891153232814304 [Eh]
	-----------------------------------------------------------

  Dipole Moment: [D]
     X:    -1.0488      Y:     1.8654      Z:     0.7182     Total:     2.2573

*** Psi4 exiting successfully. Buy a developer a beer!
