                               Psi4 1.3.2 release

  ==> Input File <==

--------------------------------------------------------------------------
#psi4
#
memory 32 gb

molecule  {
0 1
  P       -2.2900960    -0.9400430     0.3446780
  O       -0.9821530    -0.2015620     0.9382890
  O        1.3422500    -1.6754830     1.2308510
  O        0.0787050     2.3596040     0.4621680
  O        3.0685150    -2.1870720    -0.8085900
  O        2.8473350     2.5031130     0.3715350
  O        4.1956880     0.4353970    -0.9728740
  O       -2.8268630     0.0333510    -0.8075310
  O       -3.2591210    -0.7232820     1.6216710
  O       -2.1189930    -2.3436440    -0.0996680
  C        0.1181620     0.0300090     0.0163190
  C        0.9532920    -1.2442050    -0.0757250
  C        0.8985890     1.2026440     0.5648510
  C        2.2596600    -1.0143070    -0.8180370
  C        2.2613617     1.4092505    -0.2803140
  C        3.0258420     0.1487050    -0.2103220
  C       -3.1242130     1.4315980    -0.4888860
  C       -3.5363170     2.0851650    -1.7841190
  H       -0.2830920     0.2988010    -0.9702380
  H        0.3702690    -2.0293640    -0.5720320
  H        1.1571200     0.9978770     1.6121560
  H        2.0609340    -0.7886600    -1.8727560
  H        1.9169870     1.6362870    -1.2735830
  H        3.2958550    -0.0945320     0.8276460
  H        0.5217750    -1.8880320     1.7115100
  H        0.6655400     3.1093110     0.6831840
  H        2.9735430    -2.5473740     0.0946540
  H        3.7214290     2.5491860    -0.0588690
  H        4.6397270    -0.4238340    -1.0970870
  H       -3.8083950    -1.5223380     1.7347280
  H       -3.9305460     1.4455410     0.2493860
  H       -2.2297620     1.8928800    -0.0590960
  H       -3.8005210     3.1308820    -1.6026710
  H       -2.7171960     2.0533230    -2.5048750
  H       -4.4009440     1.5743230    -2.2127240
units angstrom
no_reorient  #important for SAPT in psi4, default
symmetry c1  #important for SAPT in psi4, default
}

set PROPERTIES_ORIGIN ["COM"]
properties('MP2/aug-cc-pvtz', properties = ['dipole'])
--------------------------------------------------------------------------

    Molecular point group: c1
  Charge       = 0
  Multiplicity = 1
  Basis Set: AUG-CC-PVTZ
    Blend: AUG-CC-PVTZ
  Basis Set: (AUG-CC-PVTZ AUX)
    Blend: AUG-CC-PVTZ-JKFIT

    Orbital Energies [Eh]
    ---------------------

    Doubly Occupied:

       1A    -80.115859     2A    -20.613876     3A    -20.605271
       4A    -20.598087     5A    -20.582345     6A    -20.582338
       7A    -20.575664     8A    -20.572422     9A    -20.572265
      10A    -20.522553    11A    -11.318029    12A    -11.302624
      13A    -11.300312    14A    -11.298715    15A    -11.298485
      16A    -11.295631    17A    -11.289512    18A    -11.229414
      19A     -7.631319    20A     -5.529825    21A     -5.529446
      22A     -5.528253    23A     -1.459069    24A     -1.412057
      25A     -1.399599    26A     -1.392533    27A     -1.386014
      28A     -1.372219    29A     -1.365790    30A     -1.356170
      31A     -1.302949    32A     -1.113177    33A     -1.039911
      34A     -1.014786    35A     -0.994299    36A     -0.876037
      37A     -0.863822    38A     -0.860767    39A     -0.821886
      40A     -0.810412    41A     -0.751980    42A     -0.746290
      43A     -0.731198    44A     -0.727512    45A     -0.707438
      46A     -0.686510    47A     -0.678182    48A     -0.673185
      49A     -0.662996    50A     -0.659615    51A     -0.643539
      52A     -0.632021    53A     -0.628190    54A     -0.617081
      55A     -0.602972    56A     -0.598488    57A     -0.581368
      58A     -0.574938    59A     -0.570819    60A     -0.565048
      61A     -0.556129    62A     -0.547040    63A     -0.541319
      64A     -0.539460    65A     -0.529018    66A     -0.519378
      67A     -0.512347    68A     -0.504157    69A     -0.494455
      70A     -0.483209    71A     -0.478666    72A     -0.475845
      73A     -0.465212    74A     -0.454139    75A     -0.439361
      76A     -0.435542

  @DF-RHF Final Energy: -1327.85127835116691

   => Energetics <=

    Nuclear Repulsion Energy =           1771.2432972046638042
    One-Electron Energy =               -5354.6923739956664576
    Two-Electron Energy =                2255.5977984398359695
    Total Energy =                      -1327.8512783511669113
  Basis Set: (AUG-CC-PVTZ AUX)
    Blend: AUG-CC-PVTZ-RI
    Molecular point group: c1

    Geometry (in Angstrom), charge = 0, multiplicity = 1:

       Center              X                  Y                   Z               Mass
    ------------   -----------------  -----------------  -----------------  -----------------
         P           -2.293607169074    -0.940575307041     0.346855571068    30.973761998420
         O           -0.985664169074    -0.202094307041     0.940466571068    15.994914619570
         O            1.338738830926    -1.676015307041     1.233028571068    15.994914619570
         O            0.075193830926     2.359071692959     0.464345571068    15.994914619570
         O            3.065003830926    -2.187604307041    -0.806412428932    15.994914619570
         O            2.843823830926     2.502580692959     0.373712571068    15.994914619570
         O            4.192176830926     0.434864692959    -0.970696428932    15.994914619570
         O           -2.830374169074     0.032818692959    -0.805353428932    15.994914619570
         O           -3.262632169074    -0.723814307041     1.623848571068    15.994914619570
         O           -2.122504169074    -2.344176307041    -0.097490428932    15.994914619570
         C            0.114650830926     0.029476692959     0.018496571068    12.000000000000
         C            0.949780830926    -1.244737307041    -0.073547428932    12.000000000000
         C            0.895077830926     1.202111692959     0.567028571068    12.000000000000
         C            2.256148830926    -1.014839307041    -0.815859428932    12.000000000000
         C            2.257850530926     1.408718192959    -0.278136428932    12.000000000000
         C            3.022330830926     0.148172692959    -0.208144428932    12.000000000000
         C           -3.127724169074     1.431065692959    -0.486708428932    12.000000000000
         C           -3.539828169074     2.084632692959    -1.781941428932    12.000000000000
         H           -0.286603169074     0.298268692959    -0.968060428932     1.007825032230
         H            0.366757830926    -2.029896307041    -0.569854428932     1.007825032230
         H            1.153608830926     0.997344692959     1.614333571068     1.007825032230
         H            2.057422830926    -0.789192307041    -1.870578428932     1.007825032230
         H            1.913475830926     1.635754692959    -1.271405428932     1.007825032230
         H            3.292343830926    -0.095064307041     0.829823571068     1.007825032230
         H            0.518263830926    -1.888564307041     1.713687571068     1.007825032230
         H            0.662028830926     3.108778692959     0.685361571068     1.007825032230
         H            2.970031830926    -2.547906307041     0.096831571068     1.007825032230
         H            3.717917830926     2.548653692959    -0.056691428932     1.007825032230
         H            4.636215830926    -0.424366307041    -1.094909428932     1.007825032230
         H           -3.811906169074    -1.522870307041     1.736905571068     1.007825032230
         H           -3.934057169074     1.445008692959     0.251563571068     1.007825032230
         H           -2.233273169074     1.892347692959    -0.056918428932     1.007825032230
         H           -3.804032169074     3.130349692959    -1.600493428932     1.007825032230
         H           -2.720707169074     2.052790692959    -2.502697428932     1.007825032230
         H           -4.404455169074     1.573790692959    -2.210546428932     1.007825032230

  Basis Set: AUG-CC-PVTZ
    Blend: AUG-CC-PVTZ
  Basis Set: (AUG-CC-PVTZ AUX)
    Blend: AUG-CC-PVTZ-JKFIT
	 Reference Energy          =   -1327.8512783511669113 [Eh]
	 Singles Energy            =      -0.0000000000000000 [Eh]
	 Same-Spin Energy          =      -1.0149980971937504 [Eh]
	 Opposite-Spin Energy      =      -3.0770206386031700 [Eh]
	 Correlation Energy        =      -4.0920187357969207 [Eh]
	 Total Energy              =   -1331.9432970869638666 [Eh]

	 ================> DF-SCS-MP2 Energies <==================
	-----------------------------------------------------------
	 SCS Same-Spin Scale       =       0.3333333333333333 [-]
	 SCS Opposite-Spin Scale   =       1.2000000000000000 [-]
	 SCS Same-Spin Energy      =      -0.3383326990645835 [Eh]
	 SCS Opposite-Spin Energy  =      -3.6924247663238039 [Eh]
	 SCS Correlation Energy    =      -4.0307574653883878 [Eh]
	 SCS Total Energy          =   -1331.8820358165553444 [Eh]
	-----------------------------------------------------------

  Dipole Moment: [D]
     X:    -0.9828      Y:     1.9645      Z:     0.7106     Total:     2.3087

*** Psi4 exiting successfully. Buy a developer a beer!
