                               Psi4 1.4a3.dev225

  ==> Input File <==

--------------------------------------------------------------------------
#psi4
#
memory 32 gb

molecule  {
0 1
  P       -2.3219140    -1.0563120    -0.0968450
  O       -1.0285840    -0.5623410     0.7549430
  O        1.3695440    -1.8069540     1.2202350
  O       -0.1592450     2.1412630     0.5207450
  O        3.3269040    -2.0858120    -0.6453880
  O        2.5724350     2.5270130     0.6374560
  O        4.2203020     0.6406430    -0.6358120
  O       -2.8737010     0.2643620    -0.8096810
  O       -3.3065970    -1.3497020     1.1531960
  O       -2.1044560    -2.1814480    -1.0350500
  C        0.1200290    -0.1583450    -0.0432010
  C        1.0698050    -1.3527180    -0.1046720
  C        0.7441670     1.0454510     0.6308160
  C        2.4370603    -0.9817975    -0.7147555
  C        2.0603010     1.3853380    -0.0470020
  C        3.0180900     0.2181970     0.0056710
  C       -3.2473180     1.4231610     0.0025120
  C       -3.2076300     2.6262440    -0.9075720
  H       -0.2047330     0.1313700    -1.0514980
  H        0.5965010    -2.1549610    -0.6866410
  H        0.9371260     0.8063110     1.6860210
  H        2.3054700    -0.7437210    -1.7704410
  H        1.8633300     1.6367370    -1.1028410
  H        3.2142070    -0.0417910     1.0561650
  H        0.5126160    -2.0057500     1.6426110
  H        0.3598300     2.9232990     0.7925780
  H        3.1793900    -2.4823080     0.2360710
  H        3.4672560     2.6739710     0.2770410
  H        4.7639490    -0.1654590    -0.7244900
  H       -3.7873380    -2.1826420     0.9908450
  H       -4.2474700     1.2335250     0.4005830
  H       -2.5352900     1.5309660     0.8217280
  H       -3.5402110     3.5125760    -0.3587690
  H       -2.1856630     2.7912820    -1.2511950
  H       -3.8637180     2.4807570    -1.7684970
units angstrom
no_reorient  #important for SAPT in psi4, default
symmetry c1  #important for SAPT in psi4, default
}

set PROPERTIES_ORIGIN ["COM"]
properties('MP2/aug-cc-pvtz', properties = ['dipole'])
--------------------------------------------------------------------------

    Molecular point group: c1
  Charge       = 0
  Multiplicity = 1
  Basis Set: AUG-CC-PVTZ
    Blend: AUG-CC-PVTZ
  Basis Set: (AUG-CC-PVTZ AUX)
    Blend: AUG-CC-PVTZ-JKFIT

    Orbital Energies [Eh]
    ---------------------

    Doubly Occupied:

       1A    -80.116624     2A    -20.614842     3A    -20.607740
       4A    -20.595871     5A    -20.583757     6A    -20.578807
       7A    -20.575538     8A    -20.574943     9A    -20.574555
      10A    -20.522346    11A    -11.320886    12A    -11.305292
      13A    -11.300483    14A    -11.300244    15A    -11.298666
      16A    -11.296042    17A    -11.292722    18A    -11.222823
      19A     -7.631887    20A     -5.530422    21A     -5.529919
      22A     -5.528858    23A     -1.458260    24A     -1.410953
      25A     -1.395438    26A     -1.393198    27A     -1.385093
      28A     -1.372564    29A     -1.364990    30A     -1.354866
      31A     -1.302530    32A     -1.117632    33A     -1.035421
      34A     -1.011874    35A     -1.001307    36A     -0.877254
      37A     -0.862171    38A     -0.860484    39A     -0.823015
      40A     -0.810193    41A     -0.753952    42A     -0.746065
      43A     -0.728792    44A     -0.725861    45A     -0.705567
      46A     -0.687142    47A     -0.679236    48A     -0.674628
      49A     -0.663407    50A     -0.659604    51A     -0.641735
      52A     -0.637686    53A     -0.624212    54A     -0.613137
      55A     -0.604312    56A     -0.597904    57A     -0.580816
      58A     -0.577366    59A     -0.570351    60A     -0.560246
      61A     -0.555437    62A     -0.548116    63A     -0.538958
      64A     -0.537858    65A     -0.529566    66A     -0.517849
      67A     -0.508622    68A     -0.502361    69A     -0.494247
      70A     -0.486232    71A     -0.478287    72A     -0.475295
      73A     -0.462230    74A     -0.457506    75A     -0.450603
      76A     -0.436981

  @DF-RHF Final Energy: -1327.86098347501047

   => Energetics <=

    Nuclear Repulsion Energy =           1774.3813472237081896
    One-Electron Energy =               -5360.9793121679967953
    Two-Electron Energy =                2258.7369814692783621
    Total Energy =                      -1327.8609834750104710
  Basis Set: (AUG-CC-PVTZ AUX)
    Blend: AUG-CC-PVTZ-RI
    Molecular point group: c1

    Geometry (in Angstrom), charge = 0, multiplicity = 1:

       Center              X                  Y                   Z               Mass
    ------------   -----------------  -----------------  -----------------  -----------------
         P           -2.311891139774    -1.018733294530    -0.098959943300    30.973761998420
         O           -1.018561139774    -0.524762294530     0.752828056700    15.994914619570
         O            1.379566860226    -1.769375294530     1.218120056700    15.994914619570
         O           -0.149222139774     2.178841705470     0.518630056700    15.994914619570
         O            3.336926860226    -2.048233294530    -0.647502943300    15.994914619570
         O            2.582457860226     2.564591705470     0.635341056700    15.994914619570
         O            4.230324860226     0.678221705470    -0.637926943300    15.994914619570
         O           -2.863678139774     0.301940705470    -0.811795943300    15.994914619570
         O           -3.296574139774    -1.312123294530     1.151081056700    15.994914619570
         O           -2.094433139774    -2.143869294530    -1.037164943300    15.994914619570
         C            0.130051860226    -0.120766294530    -0.045315943300    12.000000000000
         C            1.079827860226    -1.315139294530    -0.106786943300    12.000000000000
         C            0.754189860226     1.083029705470     0.628701056700    12.000000000000
         C            2.447083160226    -0.944218794530    -0.716870443300    12.000000000000
         C            2.070323860226     1.422916705470    -0.049116943300    12.000000000000
         C            3.028112860226     0.255775705470     0.003556056700    12.000000000000
         C           -3.237295139774     1.460739705470     0.000397056700    12.000000000000
         C           -3.197607139774     2.663822705470    -0.909686943300    12.000000000000
         H           -0.194710139774     0.168948705470    -1.053612943300     1.007825032230
         H            0.606523860226    -2.117382294530    -0.688755943300     1.007825032230
         H            0.947148860226     0.843889705470     1.683906056700     1.007825032230
         H            2.315492860226    -0.706142294530    -1.772555943300     1.007825032230
         H            1.873352860226     1.674315705470    -1.104955943300     1.007825032230
         H            3.224229860226    -0.004212294530     1.054050056700     1.007825032230
         H            0.522638860226    -1.968171294530     1.640496056700     1.007825032230
         H            0.369852860226     2.960877705470     0.790463056700     1.007825032230
         H            3.189412860226    -2.444729294530     0.233956056700     1.007825032230
         H            3.477278860226     2.711549705470     0.274926056700     1.007825032230
         H            4.773971860226    -0.127880294530    -0.726604943300     1.007825032230
         H           -3.777315139774    -2.145063294530     0.988730056700     1.007825032230
         H           -4.237447139774     1.271103705470     0.398468056700     1.007825032230
         H           -2.525267139774     1.568544705470     0.819613056700     1.007825032230
         H           -3.530188139774     3.550154705470    -0.360883943300     1.007825032230
         H           -2.175640139774     2.828860705470    -1.253309943300     1.007825032230
         H           -3.853695139774     2.518335705470    -1.770611943300     1.007825032230

  Basis Set: AUG-CC-PVTZ
    Blend: AUG-CC-PVTZ
  Basis Set: (AUG-CC-PVTZ AUX)
    Blend: AUG-CC-PVTZ-JKFIT
	 Reference Energy          =   -1327.8609834750104710 [Eh]
	 Singles Energy            =      -0.0000000000000000 [Eh]
	 Same-Spin Energy          =      -1.0145831885974905 [Eh]
	 Opposite-Spin Energy      =      -3.0763159516608516 [Eh]
	 Correlation Energy        =      -4.0908991402583421 [Eh]
	 Total Energy              =   -1331.9518826152689144 [Eh]

	 ================> DF-SCS-MP2 Energies <==================
	-----------------------------------------------------------
	 SCS Same-Spin Scale       =       0.3333333333333333 [-]
	 SCS Opposite-Spin Scale   =       1.2000000000000000 [-]
	 SCS Same-Spin Energy      =      -0.3381943961991635 [Eh]
	 SCS Opposite-Spin Energy  =      -3.6915791419930217 [Eh]
	 SCS Correlation Energy    =      -4.0297735381921855 [Eh]
	 SCS Total Energy          =   -1331.8907570132025739 [Eh]
	-----------------------------------------------------------

  Dipole Moment: [D]
     X:    -0.8315      Y:     1.4158      Z:     1.8717     Total:     2.4898

*** Psi4 exiting successfully. Buy a developer a beer!
