                               Psi4 1.3.2 release

  ==> Input File <==

--------------------------------------------------------------------------
#psi4
#
memory 32 gb

molecule  {
0 1
  P       -2.2900960    -0.9400430     0.3446780
  O       -0.9821530    -0.2015620     0.9382890
  O        1.3422500    -1.6754830     1.2308510
  O        0.0776162     2.3533994     0.4129443
  O        3.0685150    -2.1870720    -0.8085900
  O        2.8473350     2.5031130     0.3715350
  O        4.1956880     0.4353970    -0.9728740
  O       -2.8268630     0.0333510    -0.8075310
  O       -3.2591210    -0.7232820     1.6216710
  O       -2.1189930    -2.3436440    -0.0996680
  C        0.1181620     0.0300090     0.0163190
  C        0.9532920    -1.2442050    -0.0757250
  C        0.8985890     1.2026440     0.5648510
  C        2.2596600    -1.0143070    -0.8180370
  C        2.1770750     1.3964720    -0.2280410
  C        3.0258420     0.1487050    -0.2103220
  C       -3.1242130     1.4315980    -0.4888860
  C       -3.5363170     2.0851650    -1.7841190
  H       -0.2830920     0.2988010    -0.9702380
  H        0.3702690    -2.0293640    -0.5720320
  H        1.1771723     0.9673523     1.6005367
  H        2.0609340    -0.7886600    -1.8727560
  H        1.9169870     1.6362870    -1.2735830
  H        3.2958550    -0.0945320     0.8276460
  H        0.5217750    -1.8880320     1.7115100
  H        0.6655400     3.1093110     0.6831840
  H        2.9735430    -2.5473740     0.0946540
  H        3.7214290     2.5491860    -0.0588690
  H        4.6397270    -0.4238340    -1.0970870
  H       -3.8083950    -1.5223380     1.7347280
  H       -3.9305460     1.4455410     0.2493860
  H       -2.2297620     1.8928800    -0.0590960
  H       -3.8005210     3.1308820    -1.6026710
  H       -2.7171960     2.0533230    -2.5048750
  H       -4.4009440     1.5743230    -2.2127240
units angstrom
no_reorient  #important for SAPT in psi4, default
symmetry c1  #important for SAPT in psi4, default
}

set PROPERTIES_ORIGIN ["COM"]
properties('MP2/aug-cc-pvtz', properties = ['dipole'])
--------------------------------------------------------------------------

    Molecular point group: c1
  Charge       = 0
  Multiplicity = 1
  Basis Set: AUG-CC-PVTZ
    Blend: AUG-CC-PVTZ
  Basis Set: (AUG-CC-PVTZ AUX)
    Blend: AUG-CC-PVTZ-JKFIT

    Orbital Energies [Eh]
    ---------------------

    Doubly Occupied:

       1A    -80.116863     2A    -20.614718     3A    -20.606916
       4A    -20.598790     5A    -20.583158     6A    -20.577112
       7A    -20.576560     8A    -20.574341     9A    -20.573726
      10A    -20.523336    11A    -11.319866    12A    -11.303041
      13A    -11.299218    14A    -11.298980    15A    -11.298782
      16A    -11.295533    17A    -11.290869    18A    -11.229684
      19A     -7.632311    20A     -5.530818    21A     -5.530443
      22A     -5.529241    23A     -1.460200    24A     -1.410666
      25A     -1.394450    26A     -1.392620    27A     -1.386728
      28A     -1.372262    29A     -1.363280    30A     -1.353354
      31A     -1.303723    32A     -1.118528    33A     -1.040291
      34A     -1.011544    35A     -1.002947    36A     -0.880162
      37A     -0.864755    38A     -0.858025    39A     -0.822201
      40A     -0.810479    41A     -0.751752    42A     -0.744654
      43A     -0.730086    44A     -0.728500    45A     -0.707783
      46A     -0.687223    47A     -0.677987    48A     -0.673480
      49A     -0.662237    50A     -0.660429    51A     -0.642828
      52A     -0.632611    53A     -0.627152    54A     -0.614969
      55A     -0.604003    56A     -0.598160    57A     -0.581491
      58A     -0.575473    59A     -0.571194    60A     -0.559387
      61A     -0.555963    62A     -0.548456    63A     -0.540975
      64A     -0.536386    65A     -0.529650    66A     -0.522136
      67A     -0.513018    68A     -0.504727    69A     -0.496931
      70A     -0.485383    71A     -0.479610    72A     -0.476496
      73A     -0.462011    74A     -0.454923    75A     -0.450231
      76A     -0.435927

  @DF-RHF Final Energy: -1327.85875672022325

   => Energetics <=

    Nuclear Repulsion Energy =           1772.8671215541619404
    One-Electron Energy =               -5357.9022653548599919
    Two-Electron Energy =                2257.1763870804747967
    Total Energy =                      -1327.8587567202234823
  Basis Set: (AUG-CC-PVTZ AUX)
    Blend: AUG-CC-PVTZ-RI
    Molecular point group: c1

    Geometry (in Angstrom), charge = 0, multiplicity = 1:

       Center              X                  Y                   Z               Mass
    ------------   -----------------  -----------------  -----------------  -----------------
         P           -2.290105666315    -0.939591669599     0.347451844388    30.973761998420
         O           -0.982162666315    -0.201110669599     0.941062844388    15.994914619570
         O            1.342240333685    -1.675031669599     1.233624844388    15.994914619570
         O            0.077606533685     2.353850730401     0.415718144388    15.994914619570
         O            3.068505333685    -2.186620669599    -0.805816155612    15.994914619570
         O            2.847325333685     2.503564330401     0.374308844388    15.994914619570
         O            4.195678333685     0.435848330401    -0.970100155612    15.994914619570
         O           -2.826872666315     0.033802330401    -0.804757155612    15.994914619570
         O           -3.259130666315    -0.722830669599     1.624444844388    15.994914619570
         O           -2.119002666315    -2.343192669599    -0.096894155612    15.994914619570
         C            0.118152333685     0.030460330401     0.019092844388    12.000000000000
         C            0.953282333685    -1.243753669599    -0.072951155612    12.000000000000
         C            0.898579333685     1.203095330401     0.567624844388    12.000000000000
         C            2.259650333685    -1.013855669599    -0.815263155612    12.000000000000
         C            2.177065333685     1.396923330401    -0.225267155612    12.000000000000
         C            3.025832333685     0.149156330401    -0.207548155612    12.000000000000
         C           -3.124222666315     1.432049330401    -0.486112155612    12.000000000000
         C           -3.536326666315     2.085616330401    -1.781345155612    12.000000000000
         H           -0.283101666315     0.299252330401    -0.967464155612     1.007825032230
         H            0.370259333685    -2.028912669599    -0.569258155612     1.007825032230
         H            1.177162633685     0.967803630401     1.603310544388     1.007825032230
         H            2.060924333685    -0.788208669599    -1.869982155612     1.007825032230
         H            1.916977333685     1.636738330401    -1.270809155612     1.007825032230
         H            3.295845333685    -0.094080669599     0.830419844388     1.007825032230
         H            0.521765333685    -1.887580669599     1.714283844388     1.007825032230
         H            0.665530333685     3.109762330401     0.685957844388     1.007825032230
         H            2.973533333685    -2.546922669599     0.097427844388     1.007825032230
         H            3.721419333685     2.549637330401    -0.056095155612     1.007825032230
         H            4.639717333685    -0.423382669599    -1.094313155612     1.007825032230
         H           -3.808404666315    -1.521886669599     1.737501844388     1.007825032230
         H           -3.930555666315     1.445992330401     0.252159844388     1.007825032230
         H           -2.229771666315     1.893331330401    -0.056322155612     1.007825032230
         H           -3.800530666315     3.131333330401    -1.599897155612     1.007825032230
         H           -2.717205666315     2.053774330401    -2.502101155612     1.007825032230
         H           -4.400953666315     1.574774330401    -2.209950155612     1.007825032230

  Basis Set: AUG-CC-PVTZ
    Blend: AUG-CC-PVTZ
  Basis Set: (AUG-CC-PVTZ AUX)
    Blend: AUG-CC-PVTZ-JKFIT
	 Reference Energy          =   -1327.8587567202232549 [Eh]
	 Singles Energy            =      -0.0000000000000000 [Eh]
	 Same-Spin Energy          =      -1.0150456025118717 [Eh]
	 Opposite-Spin Energy      =      -3.0769986160267013 [Eh]
	 Correlation Energy        =      -4.0920442185385735 [Eh]
	 Total Energy              =   -1331.9508009387618586 [Eh]

	 ================> DF-SCS-MP2 Energies <==================
	-----------------------------------------------------------
	 SCS Same-Spin Scale       =       0.3333333333333333 [-]
	 SCS Opposite-Spin Scale   =       1.2000000000000000 [-]
	 SCS Same-Spin Energy      =      -0.3383485341706239 [Eh]
	 SCS Opposite-Spin Energy  =      -3.6923983392320414 [Eh]
	 SCS Correlation Energy    =      -4.0307468734026655 [Eh]
	 SCS Total Energy          =   -1331.8895035936259319 [Eh]
	-----------------------------------------------------------

  Dipole Moment: [D]
     X:    -1.1326      Y:     1.8932      Z:     0.8128     Total:     2.3511

*** Psi4 exiting successfully. Buy a developer a beer!
