                               Psi4 1.3.2 release

  ==> Input File <==

--------------------------------------------------------------------------
#psi4
#
memory 32 gb

molecule  {
0 1
  P       -2.2900960    -0.9400430     0.3446780
  O       -0.8201854    -0.1101131     1.0117981
  O        1.3422500    -1.6754830     1.2308510
  O        0.0787050     2.3596040     0.4621680
  O        3.0685150    -2.1870720    -0.8085900
  O        2.8473350     2.5031130     0.3715350
  O        4.1956880     0.4353970    -0.9728740
  O       -2.8268630     0.0333510    -0.8075310
  O       -3.2591210    -0.7232820     1.6216710
  O       -2.1189930    -2.3436440    -0.0996680
  C        0.1181620     0.0300090     0.0163190
  C        0.9532920    -1.2442050    -0.0757250
  C        0.8985890     1.2026440     0.5648510
  C        2.2596600    -1.0143070    -0.8180370
  C        2.1770750     1.3964720    -0.2280410
  C        3.0258420     0.1487050    -0.2103220
  C       -3.1242130     1.4315980    -0.4888860
  C       -3.5363170     2.0851650    -1.7841190
  H       -0.2830920     0.2988010    -0.9702380
  H        0.3702690    -2.0293640    -0.5720320
  H        1.1571200     0.9978770     1.6121560
  H        2.0609340    -0.7886600    -1.8727560
  H        1.9169870     1.6362870    -1.2735830
  H        3.2958550    -0.0945320     0.8276460
  H        0.5217750    -1.8880320     1.7115100
  H        0.6655400     3.1093110     0.6831840
  H        2.9735430    -2.5473740     0.0946540
  H        3.7214290     2.5491860    -0.0588690
  H        4.6397270    -0.4238340    -1.0970870
  H       -3.8083950    -1.5223380     1.7347280
  H       -3.9305460     1.4455410     0.2493860
  H       -2.2297620     1.8928800    -0.0590960
  H       -3.8005210     3.1308820    -1.6026710
  H       -2.7171960     2.0533230    -2.5048750
  H       -4.4009440     1.5743230    -2.2127240
units angstrom
no_reorient  #important for SAPT in psi4, default
symmetry c1  #important for SAPT in psi4, default
}

set PROPERTIES_ORIGIN ["COM"]
properties('MP2/aug-cc-pvtz', properties = ['dipole'])
--------------------------------------------------------------------------

    Molecular point group: c1
  Charge       = 0
  Multiplicity = 1
  Basis Set: AUG-CC-PVTZ
    Blend: AUG-CC-PVTZ
  Basis Set: (AUG-CC-PVTZ AUX)
    Blend: AUG-CC-PVTZ-JKFIT

    Orbital Energies [Eh]
    ---------------------

    Doubly Occupied:

       1A    -80.139541     2A    -20.629127     3A    -20.615283
       4A    -20.603659     5A    -20.576461     6A    -20.569102
       7A    -20.568842     8A    -20.568542     9A    -20.566178
      10A    -20.542117    11A    -11.305951    12A    -11.299828
      13A    -11.293863    14A    -11.292457    15A    -11.286502
      16A    -11.285002    17A    -11.284650    18A    -11.234391
      19A     -7.653058    20A     -5.551419    21A     -5.550788
      22A     -5.549846    23A     -1.457090    24A     -1.412373
      25A     -1.399870    26A     -1.390627    27A     -1.386337
      28A     -1.363767    29A     -1.357246    30A     -1.346413
      31A     -1.319775    32A     -1.105089    33A     -1.046719
      34A     -0.996375    35A     -0.992752    36A     -0.878960
      37A     -0.863150    38A     -0.851718    39A     -0.828507
      40A     -0.804837    41A     -0.747288    42A     -0.741904
      43A     -0.731736    44A     -0.724743    45A     -0.701537
      46A     -0.684072    47A     -0.679861    48A     -0.674353
      49A     -0.659779    50A     -0.655641    51A     -0.637907
      52A     -0.630902    53A     -0.627359    54A     -0.615047
      55A     -0.598908    56A     -0.593233    57A     -0.586500
      58A     -0.584090    59A     -0.565190    60A     -0.556262
      61A     -0.551301    62A     -0.550612    63A     -0.542489
      64A     -0.530743    65A     -0.526324    66A     -0.517312
      67A     -0.513214    68A     -0.501727    69A     -0.499423
      70A     -0.491733    71A     -0.486898    72A     -0.469971
      73A     -0.449711    74A     -0.448562    75A     -0.440024
      76A     -0.429075

  @DF-RHF Final Energy: -1327.82456823194048

   => Energetics <=

    Nuclear Repulsion Energy =           1769.6634022211567299
    One-Electron Energy =               -5351.5486503570982677
    Two-Electron Energy =                2254.0606799040010628
    Total Energy =                      -1327.8245682319407024
  Basis Set: (AUG-CC-PVTZ AUX)
    Blend: AUG-CC-PVTZ-RI
    Molecular point group: c1

    Geometry (in Angstrom), charge = 0, multiplicity = 1:

       Center              X                  Y                   Z               Mass
    ------------   -----------------  -----------------  -----------------  -----------------
         P           -2.299089401755    -0.945120786161     0.340596314666    30.973761998420
         O           -0.829178801755    -0.115190886161     1.007716414666    15.994914619570
         O            1.333256598245    -1.680560786161     1.226769314666    15.994914619570
         O            0.069711598245     2.354526213839     0.458086314666    15.994914619570
         O            3.059521598245    -2.192149786161    -0.812671685334    15.994914619570
         O            2.838341598245     2.498035213839     0.367453314666    15.994914619570
         O            4.186694598245     0.430319213839    -0.976955685334    15.994914619570
         O           -2.835856401755     0.028273213839    -0.811612685334    15.994914619570
         O           -3.268114401755    -0.728359786161     1.617589314666    15.994914619570
         O           -2.127986401755    -2.348721786161    -0.103749685334    15.994914619570
         C            0.109168598245     0.024931213839     0.012237314666    12.000000000000
         C            0.944298598245    -1.249282786161    -0.079806685334    12.000000000000
         C            0.889595598245     1.197566213839     0.560769314666    12.000000000000
         C            2.250666598245    -1.019384786161    -0.822118685334    12.000000000000
         C            2.168081598245     1.391394213839    -0.232122685334    12.000000000000
         C            3.016848598245     0.143627213839    -0.214403685334    12.000000000000
         C           -3.133206401755     1.426520213839    -0.492967685334    12.000000000000
         C           -3.545310401755     2.080087213839    -1.788200685334    12.000000000000
         H           -0.292085401755     0.293723213839    -0.974319685334     1.007825032230
         H            0.361275598245    -2.034441786161    -0.576113685334     1.007825032230
         H            1.148126598245     0.992799213839     1.608074314666     1.007825032230
         H            2.051940598245    -0.793737786161    -1.876837685334     1.007825032230
         H            1.907993598245     1.631209213839    -1.277664685334     1.007825032230
         H            3.286861598245    -0.099609786161     0.823564314666     1.007825032230
         H            0.512781598245    -1.893109786161     1.707428314666     1.007825032230
         H            0.656546598245     3.104233213839     0.679102314666     1.007825032230
         H            2.964549598245    -2.552451786161     0.090572314666     1.007825032230
         H            3.712435598245     2.544108213839    -0.062950685334     1.007825032230
         H            4.630733598245    -0.428911786161    -1.101168685334     1.007825032230
         H           -3.817388401755    -1.527415786161     1.730646314666     1.007825032230
         H           -3.939539401755     1.440463213839     0.245304314666     1.007825032230
         H           -2.238755401755     1.887802213839    -0.063177685334     1.007825032230
         H           -3.809514401755     3.125804213839    -1.606752685334     1.007825032230
         H           -2.726189401755     2.048245213839    -2.508956685334     1.007825032230
         H           -4.409937401755     1.569245213839    -2.216805685334     1.007825032230

  Basis Set: AUG-CC-PVTZ
    Blend: AUG-CC-PVTZ
  Basis Set: (AUG-CC-PVTZ AUX)
    Blend: AUG-CC-PVTZ-JKFIT
	 Reference Energy          =   -1327.8245682319404750 [Eh]
	 Singles Energy            =      -0.0000000000000000 [Eh]
	 Same-Spin Energy          =      -1.0182176283340967 [Eh]
	 Opposite-Spin Energy      =      -3.0838354393257865 [Eh]
	 Correlation Energy        =      -4.1020530676598828 [Eh]
	 Total Energy              =   -1331.9266212996003560 [Eh]

	 ================> DF-SCS-MP2 Energies <==================
	-----------------------------------------------------------
	 SCS Same-Spin Scale       =       0.3333333333333333 [-]
	 SCS Opposite-Spin Scale   =       1.2000000000000000 [-]
	 SCS Same-Spin Energy      =      -0.3394058761113655 [Eh]
	 SCS Opposite-Spin Energy  =      -3.7006025271909437 [Eh]
	 SCS Correlation Energy    =      -4.0400084033023091 [Eh]
	 SCS Total Energy          =   -1331.8645766352428836 [Eh]
	-----------------------------------------------------------

  Dipole Moment: [D]
     X:    -2.5152      Y:     1.4612      Z:     0.5824     Total:     2.9666

*** Psi4 exiting successfully. Buy a developer a beer!
