                               Psi4 1.3.2 release

  ==> Input File <==

--------------------------------------------------------------------------
#psi4
#
memory 32 gb

molecule  {
0 1
  P       -2.2900960    -0.9400430     0.3446780
  O       -0.9821530    -0.2015620     0.9382890
  O        1.3422500    -1.6754830     1.2308510
  O        0.0787050     2.3596040     0.4621680
  O        3.0685150    -2.1870720    -0.8085900
  O        2.8473350     2.5031130     0.3715350
  O        4.1956880     0.4353970    -0.9728740
  O       -2.8268630     0.0333510    -0.8075310
  O       -3.2591210    -0.7232820     1.6216710
  O       -2.1189930    -2.3436440    -0.0996680
  C        0.1181620     0.0300090     0.0163190
  C        0.9532920    -1.2442050    -0.0757250
  C        0.8985890     1.2026440     0.5648510
  C        2.2596600    -1.0143070    -0.8180370
  C        2.2240788     1.4740781    -0.1859942
  C        3.0258420     0.1487050    -0.2103220
  C       -3.1242130     1.4315980    -0.4888860
  C       -3.5363170     2.0851650    -1.7841190
  H       -0.2830920     0.2988010    -0.9702380
  H        0.3702690    -2.0293640    -0.5720320
  H        1.1571200     0.9978770     1.6121560
  H        2.0609340    -0.7886600    -1.8727560
  H        1.9169870     1.6362870    -1.2735830
  H        3.2958550    -0.0945320     0.8276460
  H        0.5217750    -1.8880320     1.7115100
  H        0.6655400     3.1093110     0.6831840
  H        2.9735430    -2.5473740     0.0946540
  H        3.7214290     2.5491860    -0.0588690
  H        4.6397270    -0.4238340    -1.0970870
  H       -3.8083950    -1.5223380     1.7347280
  H       -3.9305460     1.4455410     0.2493860
  H       -2.2297620     1.8928800    -0.0590960
  H       -3.8005210     3.1308820    -1.6026710
  H       -2.7171960     2.0533230    -2.5048750
  H       -4.4009440     1.5743230    -2.2127240
units angstrom
no_reorient  #important for SAPT in psi4, default
symmetry c1  #important for SAPT in psi4, default
}

set PROPERTIES_ORIGIN ["COM"]
properties('MP2/aug-cc-pvtz', properties = ['dipole'])
--------------------------------------------------------------------------

    Molecular point group: c1
  Charge       = 0
  Multiplicity = 1
  Basis Set: AUG-CC-PVTZ
    Blend: AUG-CC-PVTZ
  Basis Set: (AUG-CC-PVTZ AUX)
    Blend: AUG-CC-PVTZ-JKFIT

    Orbital Energies [Eh]
    ---------------------

    Doubly Occupied:

       1A    -80.116381     2A    -20.614221     3A    -20.606536
       4A    -20.598224     5A    -20.588196     6A    -20.581589
       7A    -20.574016     8A    -20.572020     9A    -20.571370
      10A    -20.522744    11A    -11.320119    12A    -11.301815
      13A    -11.299117    14A    -11.298692    15A    -11.298209
      16A    -11.296328    17A    -11.288983    18A    -11.229241
      19A     -7.631818    20A     -5.530323    21A     -5.529956
      22A     -5.528747    23A     -1.459650    24A     -1.431859
      25A     -1.405758    26A     -1.392371    27A     -1.386161
      28A     -1.372790    29A     -1.369011    30A     -1.356236
      31A     -1.303137    32A     -1.109845    33A     -1.039716
      34A     -1.005613    35A     -0.998135    36A     -0.880095
      37A     -0.864875    38A     -0.856489    39A     -0.824446
      40A     -0.807098    41A     -0.756385    42A     -0.746121
      43A     -0.729586    44A     -0.729507    45A     -0.714843
      46A     -0.685858    47A     -0.677269    48A     -0.673378
      49A     -0.666217    50A     -0.663325    51A     -0.649836
      52A     -0.635685    53A     -0.626812    54A     -0.618642
      55A     -0.608702    56A     -0.597804    57A     -0.582219
      58A     -0.575151    59A     -0.571783    60A     -0.565642
      61A     -0.555595    62A     -0.548172    63A     -0.540528
      64A     -0.537930    65A     -0.528574    66A     -0.520119
      67A     -0.512364    68A     -0.503200    69A     -0.495651
      70A     -0.483296    71A     -0.478971    72A     -0.475912
      73A     -0.456718    74A     -0.441272    75A     -0.438822
      76A     -0.436251

  @DF-RHF Final Energy: -1327.85294746986642

   => Energetics <=

    Nuclear Repulsion Energy =           1771.6321545577879988
    One-Electron Energy =               -5355.3900666442059446
    Two-Electron Energy =                2255.9049646165517515
    Total Energy =                      -1327.8529474698661943
  Basis Set: (AUG-CC-PVTZ AUX)
    Blend: AUG-CC-PVTZ-RI
    Molecular point group: c1

    Geometry (in Angstrom), charge = 0, multiplicity = 1:

       Center              X                  Y                   Z               Mass
    ------------   -----------------  -----------------  -----------------  -----------------
         P           -2.292054043971    -0.943275884864     0.342926411880    30.973761998420
         O           -0.984111043971    -0.204794884864     0.936537411880    15.994914619570
         O            1.340291956029    -1.678715884864     1.229099411880    15.994914619570
         O            0.076746956029     2.356371115136     0.460416411880    15.994914619570
         O            3.066556956029    -2.190304884864    -0.810341588120    15.994914619570
         O            2.845376956029     2.499880115136     0.369783411880    15.994914619570
         O            4.193729956029     0.432164115136    -0.974625588120    15.994914619570
         O           -2.828821043971     0.030118115136    -0.809282588120    15.994914619570
         O           -3.261079043971    -0.726514884864     1.619919411880    15.994914619570
         O           -2.120951043971    -2.346876884864    -0.101419588120    15.994914619570
         C            0.116203956029     0.026776115136     0.014567411880    12.000000000000
         C            0.951333956029    -1.247437884864    -0.077476588120    12.000000000000
         C            0.896630956029     1.199411115136     0.563099411880    12.000000000000
         C            2.257701956029    -1.017539884864    -0.819788588120    12.000000000000
         C            2.222120756029     1.470845215136    -0.187745788120    12.000000000000
         C            3.023883956029     0.145472115136    -0.212073588120    12.000000000000
         C           -3.126171043971     1.428365115136    -0.490637588120    12.000000000000
         C           -3.538275043971     2.081932115136    -1.785870588120    12.000000000000
         H           -0.285050043971     0.295568115136    -0.971989588120     1.007825032230
         H            0.368310956029    -2.032596884864    -0.573783588120     1.007825032230
         H            1.155161956029     0.994644115136     1.610404411880     1.007825032230
         H            2.058975956029    -0.791892884864    -1.874507588120     1.007825032230
         H            1.915028956029     1.633054115136    -1.275334588120     1.007825032230
         H            3.293896956029    -0.097764884864     0.825894411880     1.007825032230
         H            0.519816956029    -1.891264884864     1.709758411880     1.007825032230
         H            0.663581956029     3.106078115136     0.681432411880     1.007825032230
         H            2.971584956029    -2.550606884864     0.092902411880     1.007825032230
         H            3.719470956029     2.545953115136    -0.060620588120     1.007825032230
         H            4.637768956029    -0.427066884864    -1.098838588120     1.007825032230
         H           -3.810353043971    -1.525570884864     1.732976411880     1.007825032230
         H           -3.932504043971     1.442308115136     0.247634411880     1.007825032230
         H           -2.231720043971     1.889647115136    -0.060847588120     1.007825032230
         H           -3.802479043971     3.127649115136    -1.604422588120     1.007825032230
         H           -2.719154043971     2.050090115136    -2.506626588120     1.007825032230
         H           -4.402902043971     1.571090115136    -2.214475588120     1.007825032230

  Basis Set: AUG-CC-PVTZ
    Blend: AUG-CC-PVTZ
  Basis Set: (AUG-CC-PVTZ AUX)
    Blend: AUG-CC-PVTZ-JKFIT
	 Reference Energy          =   -1327.8529474698664217 [Eh]
	 Singles Energy            =      -0.0000000000000000 [Eh]
	 Same-Spin Energy          =      -1.0144022167531692 [Eh]
	 Opposite-Spin Energy      =      -3.0749535106422394 [Eh]
	 Correlation Energy        =      -4.0893557273954091 [Eh]
	 Total Energy              =   -1331.9423031972619356 [Eh]

	 ================> DF-SCS-MP2 Energies <==================
	-----------------------------------------------------------
	 SCS Same-Spin Scale       =       0.3333333333333333 [-]
	 SCS Opposite-Spin Scale   =       1.2000000000000000 [-]
	 SCS Same-Spin Energy      =      -0.3381340722510564 [Eh]
	 SCS Opposite-Spin Energy  =      -3.6899442127706870 [Eh]
	 SCS Correlation Energy    =      -4.0280782850217438 [Eh]
	 SCS Total Energy          =   -1331.8810257548882419 [Eh]
	-----------------------------------------------------------

  Dipole Moment: [D]
     X:    -0.9075      Y:     2.1500      Z:     0.8587     Total:     2.4867

*** Psi4 exiting successfully. Buy a developer a beer!
