                               Psi4 1.3.2 release

  ==> Input File <==

--------------------------------------------------------------------------
#psi4
#
memory 32 gb

molecule  {
0 1
  P       -2.2900960    -0.9400430     0.3446780
  O       -0.9821530    -0.2015620     0.9382890
  O        1.3422500    -1.6754830     1.2308510
  O        0.0787050     2.3596040     0.4621680
  O        3.0685150    -2.1870720    -0.8085900
  O        2.8473350     2.5031130     0.3715350
  O        4.1956880     0.4353970    -0.9728740
  O       -2.8268630     0.0333510    -0.8075310
  O       -3.2591210    -0.7232820     1.6216710
  O       -2.1189930    -2.3436440    -0.0996680
  C        0.1181620     0.0300090     0.0163190
  C        0.9532920    -1.2442050    -0.0757250
  C        0.8985890     1.2026440     0.5648510
  C        2.2596600    -1.0143070    -0.8180370
  C        2.1770750     1.3964720    -0.2280410
  C        3.0258420     0.1487050    -0.2103220
  C       -3.1242130     1.4315980    -0.4888860
  C       -3.5363170     2.0851650    -1.7841190
  H       -0.2830920     0.2988010    -0.9702380
  H        0.3702690    -2.0293640    -0.5720320
  H        1.1571200     0.9978770     1.6121560
  H        2.0609340    -0.7886600    -1.8727560
  H        1.9169870     1.6362870    -1.2735830
  H        3.2958550    -0.0945320     0.8276460
  H        0.5217750    -1.8880320     1.7115100
  H        0.6655400     3.1093110     0.6831840
  H        2.9735430    -2.5473740     0.0946540
  H        3.7214290     2.5491860    -0.0588690
  H        4.6397270    -0.4238340    -1.0970870
  H       -3.8083950    -1.5223380     1.7347280
  H       -3.9305460     1.4455410     0.2493860
  H       -2.2297620     1.8928800    -0.0590960
  H       -3.8005210     3.1308820    -1.6026710
  H       -2.7171960     2.0533230    -2.5048750
  H       -4.4009440     1.5743230    -2.2127240
units angstrom
no_reorient  #important for SAPT in psi4, default
symmetry c1  #important for SAPT in psi4, default
}

set PROPERTIES_ORIGIN ["COM"]
properties('MP2/aug-cc-pvtz', properties = ['dipole'])
--------------------------------------------------------------------------

    Molecular point group: c1
  Charge       = 0
  Multiplicity = 1
  Basis Set: AUG-CC-PVTZ
    Blend: AUG-CC-PVTZ
  Basis Set: (AUG-CC-PVTZ AUX)
    Blend: AUG-CC-PVTZ-JKFIT

    Orbital Energies [Eh]
    ---------------------

    Doubly Occupied:

       1A    -80.116957     2A    -20.614744     3A    -20.607051
       4A    -20.598950     5A    -20.583153     6A    -20.576820
       7A    -20.574631     8A    -20.574120     9A    -20.573494
      10A    -20.523448    11A    -11.320784    12A    -11.303560
      13A    -11.299395    14A    -11.299376    15A    -11.298651
      16A    -11.296716    17A    -11.291464    18A    -11.229872
      19A     -7.632407    20A     -5.530914    21A     -5.530541
      22A     -5.529339    23A     -1.460302    24A     -1.410853
      25A     -1.394720    26A     -1.393034    27A     -1.386870
      28A     -1.372761    29A     -1.363983    30A     -1.353869
      31A     -1.303844    32A     -1.119092    33A     -1.040470
      34A     -1.012052    35A     -1.003478    36A     -0.880304
      37A     -0.864935    38A     -0.859099    39A     -0.822335
      40A     -0.810687    41A     -0.751749    42A     -0.745280
      43A     -0.731498    44A     -0.728627    45A     -0.707952
      46A     -0.687162    47A     -0.678165    48A     -0.673708
      49A     -0.662323    50A     -0.660983    51A     -0.643158
      52A     -0.635001    53A     -0.627309    54A     -0.615391
      55A     -0.603635    56A     -0.598513    57A     -0.581730
      58A     -0.575570    59A     -0.571141    60A     -0.559373
      61A     -0.556634    62A     -0.548503    63A     -0.541194
      64A     -0.536615    65A     -0.529936    66A     -0.521724
      67A     -0.513119    68A     -0.504326    69A     -0.497089
      70A     -0.484822    71A     -0.479855    72A     -0.476629
      73A     -0.462404    74A     -0.455907    75A     -0.450129
      76A     -0.436313

  @DF-RHF Final Energy: -1327.86143840788577

   => Energetics <=

    Nuclear Repulsion Energy =           1772.4462007755225841
    One-Electron Energy =               -5357.0301969319316413
    Two-Electron Energy =                2256.7225577485232861
    Total Energy =                      -1327.8614384078855437
  Basis Set: (AUG-CC-PVTZ AUX)
    Blend: AUG-CC-PVTZ-RI
    Molecular point group: c1

    Geometry (in Angstrom), charge = 0, multiplicity = 1:

       Center              X                  Y                   Z               Mass
    ------------   -----------------  -----------------  -----------------  -----------------
         P           -2.290095967166    -0.940042982326     0.344677990770    30.973761998420
         O           -0.982152967166    -0.201561982326     0.938288990770    15.994914619570
         O            1.342250032834    -1.675482982326     1.230850990770    15.994914619570
         O            0.078705032834     2.359604017674     0.462167990770    15.994914619570
         O            3.068515032834    -2.187071982326    -0.808590009230    15.994914619570
         O            2.847335032834     2.503113017674     0.371534990770    15.994914619570
         O            4.195688032834     0.435397017674    -0.972874009230    15.994914619570
         O           -2.826862967166     0.033351017674    -0.807531009230    15.994914619570
         O           -3.259120967166    -0.723281982326     1.621670990770    15.994914619570
         O           -2.118992967166    -2.343643982326    -0.099668009230    15.994914619570
         C            0.118162032834     0.030009017674     0.016318990770    12.000000000000
         C            0.953292032834    -1.244204982326    -0.075725009230    12.000000000000
         C            0.898589032834     1.202644017674     0.564850990770    12.000000000000
         C            2.259660032834    -1.014306982326    -0.818037009230    12.000000000000
         C            2.177075032834     1.396472017674    -0.228041009230    12.000000000000
         C            3.025842032834     0.148705017674    -0.210322009230    12.000000000000
         C           -3.124212967166     1.431598017674    -0.488886009230    12.000000000000
         C           -3.536316967166     2.085165017674    -1.784119009230    12.000000000000
         H           -0.283091967166     0.298801017674    -0.970238009230     1.007825032230
         H            0.370269032834    -2.029363982326    -0.572032009230     1.007825032230
         H            1.157120032834     0.997877017674     1.612155990770     1.007825032230
         H            2.060934032834    -0.788659982326    -1.872756009230     1.007825032230
         H            1.916987032834     1.636287017674    -1.273583009230     1.007825032230
         H            3.295855032834    -0.094531982326     0.827645990770     1.007825032230
         H            0.521775032834    -1.888031982326     1.711509990770     1.007825032230
         H            0.665540032834     3.109311017674     0.683183990770     1.007825032230
         H            2.973543032834    -2.547373982326     0.094653990770     1.007825032230
         H            3.721429032834     2.549186017674    -0.058869009230     1.007825032230
         H            4.639727032834    -0.423833982326    -1.097087009230     1.007825032230
         H           -3.808394967166    -1.522337982326     1.734727990770     1.007825032230
         H           -3.930545967166     1.445541017674     0.249385990770     1.007825032230
         H           -2.229761967166     1.892880017674    -0.059096009230     1.007825032230
         H           -3.800520967166     3.130882017674    -1.602671009230     1.007825032230
         H           -2.717195967166     2.053323017674    -2.504875009230     1.007825032230
         H           -4.400943967166     1.574323017674    -2.212724009230     1.007825032230

  Basis Set: AUG-CC-PVTZ
    Blend: AUG-CC-PVTZ
  Basis Set: (AUG-CC-PVTZ AUX)
    Blend: AUG-CC-PVTZ-JKFIT
	 Reference Energy          =   -1327.8614384078857711 [Eh]
	 Singles Energy            =      -0.0000000000000000 [Eh]
	 Same-Spin Energy          =      -1.0146053399021773 [Eh]
	 Opposite-Spin Energy      =      -3.0760938887250462 [Eh]
	 Correlation Energy        =      -4.0906992286272237 [Eh]
	 Total Energy              =   -1331.9521376365130436 [Eh]

	 ================> DF-SCS-MP2 Energies <==================
	-----------------------------------------------------------
	 SCS Same-Spin Scale       =       0.3333333333333333 [-]
	 SCS Opposite-Spin Scale   =       1.2000000000000000 [-]
	 SCS Same-Spin Energy      =      -0.3382017799673924 [Eh]
	 SCS Opposite-Spin Energy  =      -3.6913126664700551 [Eh]
	 SCS Correlation Energy    =      -4.0295144464374477 [Eh]
	 SCS Total Energy          =   -1331.8909528543231318 [Eh]
	-----------------------------------------------------------

  Dipole Moment: [D]
     X:    -1.1136      Y:     1.8627      Z:     0.7215     Total:     2.2870

*** Psi4 exiting successfully. Buy a developer a beer!
