                               Psi4 1.3.2 release

  ==> Input File <==

--------------------------------------------------------------------------
#psi4
#
memory 32 gb

molecule  {
0 1
  P       -2.2900960    -0.9400430     0.3446780
  O       -0.9821530    -0.2015620     0.9382890
  O        1.3422500    -1.6754830     1.2308510
  O        0.0787050     2.3596040     0.4621680
  O        3.0685150    -2.1870720    -0.8085900
  O        2.8473350     2.5031130     0.3715350
  O        4.1956880     0.4353970    -0.9728740
  O       -2.8603900     0.0941501    -0.8794991
  O       -3.2591210    -0.7232820     1.6216710
  O       -2.1189930    -2.3436440    -0.0996680
  C        0.1181620     0.0300090     0.0163190
  C        0.9532920    -1.2442050    -0.0757250
  C        0.8985890     1.2026440     0.5648510
  C        2.2596600    -1.0143070    -0.8180370
  C        2.1770750     1.3964720    -0.2280410
  C        3.0258420     0.1487050    -0.2103220
  C       -3.1242130     1.4315980    -0.4888860
  C       -3.5363170     2.0851650    -1.7841190
  H       -0.2830920     0.2988010    -0.9702380
  H        0.3702690    -2.0293640    -0.5720320
  H        1.1571200     0.9978770     1.6121560
  H        2.0609340    -0.7886600    -1.8727560
  H        1.9169870     1.6362870    -1.2735830
  H        3.2958550    -0.0945320     0.8276460
  H        0.5217750    -1.8880320     1.7115100
  H        0.6655400     3.1093110     0.6831840
  H        2.9735430    -2.5473740     0.0946540
  H        3.7214290     2.5491860    -0.0588690
  H        4.6397270    -0.4238340    -1.0970870
  H       -3.8083950    -1.5223380     1.7347280
  H       -3.9305460     1.4455410     0.2493860
  H       -2.2297620     1.8928800    -0.0590960
  H       -3.8005210     3.1308820    -1.6026710
  H       -2.7171960     2.0533230    -2.5048750
  H       -4.4009440     1.5743230    -2.2127240
units angstrom
no_reorient  #important for SAPT in psi4, default
symmetry c1  #important for SAPT in psi4, default
}

set PROPERTIES_ORIGIN ["COM"]
properties('MP2/aug-cc-pvtz', properties = ['dipole'])
--------------------------------------------------------------------------

    Molecular point group: c1
  Charge       = 0
  Multiplicity = 1
  Basis Set: AUG-CC-PVTZ
    Blend: AUG-CC-PVTZ
  Basis Set: (AUG-CC-PVTZ AUX)
    Blend: AUG-CC-PVTZ-JKFIT

    Orbital Energies [Eh]
    ---------------------

    Doubly Occupied:

       1A    -80.129673     2A    -20.622841     3A    -20.614941
       4A    -20.598162     5A    -20.585659     6A    -20.577609
       7A    -20.576138     8A    -20.575119     9A    -20.573763
      10A    -20.532972    11A    -11.323628    12A    -11.306074
      13A    -11.301025    14A    -11.300131    15A    -11.297789
      16A    -11.292673    17A    -11.285862    18A    -11.221028
      19A     -7.643714    20A     -5.542222    21A     -5.541589
      22A     -5.540599    23A     -1.459717    24A     -1.413060
      25A     -1.398120    26A     -1.394720    27A     -1.383686
      28A     -1.374657    29A     -1.365170    30A     -1.355055
      31A     -1.312286    32A     -1.121053    33A     -1.027078
      34A     -1.013899    35A     -1.005140    36A     -0.881740
      37A     -0.860809    38A     -0.855148    39A     -0.826561
      40A     -0.812678    41A     -0.753427    42A     -0.746697
      43A     -0.732743    44A     -0.727085    45A     -0.709467
      46A     -0.688041    47A     -0.680411    48A     -0.674895
      49A     -0.664775    50A     -0.662270    51A     -0.645224
      52A     -0.637301    53A     -0.627173    54A     -0.612972
      55A     -0.605496    56A     -0.599825    57A     -0.585355
      58A     -0.576301    59A     -0.570784    60A     -0.561862
      61A     -0.558190    62A     -0.544308    63A     -0.538477
      64A     -0.536769    65A     -0.531500    66A     -0.521645
      67A     -0.508923    68A     -0.504599    69A     -0.498627
      70A     -0.486293    71A     -0.478910    72A     -0.470099
      73A     -0.464857    74A     -0.456802    75A     -0.452420
      76A     -0.438089

  @DF-RHF Final Energy: -1327.84787123543992

   => Energetics <=

    Nuclear Repulsion Energy =           1769.3472680208333259
    One-Electron Energy =               -5350.5974716855025690
    Two-Electron Energy =                2253.4023324292293182
    Total Energy =                      -1327.8478712354399249
  Basis Set: (AUG-CC-PVTZ AUX)
    Blend: AUG-CC-PVTZ-RI
    Molecular point group: c1

    Geometry (in Angstrom), charge = 0, multiplicity = 1:

       Center              X                  Y                   Z               Mass
    ------------   -----------------  -----------------  -----------------  -----------------
         P           -2.288234342486    -0.943418921272     0.348674101102    30.973761998420
         O           -0.980291342486    -0.204937921272     0.942285101102    15.994914619570
         O            1.344111657514    -1.678858921272     1.234847101102    15.994914619570
         O            0.080566657514     2.356228078728     0.466164101102    15.994914619570
         O            3.070376657514    -2.190447921272    -0.804593898898    15.994914619570
         O            2.849196657514     2.499737078728     0.375531101102    15.994914619570
         O            4.197549657514     0.432021078728    -0.968877898898    15.994914619570
         O           -2.858528342486     0.090774178728    -0.875502998898    15.994914619570
         O           -3.257259342486    -0.726657921272     1.625667101102    15.994914619570
         O           -2.117131342486    -2.347019921272    -0.095671898898    15.994914619570
         C            0.120023657514     0.026633078728     0.020315101102    12.000000000000
         C            0.955153657514    -1.247580921272    -0.071728898898    12.000000000000
         C            0.900450657514     1.199268078728     0.568847101102    12.000000000000
         C            2.261521657514    -1.017682921272    -0.814040898898    12.000000000000
         C            2.178936657514     1.393096078728    -0.224044898898    12.000000000000
         C            3.027703657514     0.145329078728    -0.206325898898    12.000000000000
         C           -3.122351342486     1.428222078728    -0.484889898898    12.000000000000
         C           -3.534455342486     2.081789078728    -1.780122898898    12.000000000000
         H           -0.281230342486     0.295425078728    -0.966241898898     1.007825032230
         H            0.372130657514    -2.032739921272    -0.568035898898     1.007825032230
         H            1.158981657514     0.994501078728     1.616152101102     1.007825032230
         H            2.062795657514    -0.792035921272    -1.868759898898     1.007825032230
         H            1.918848657514     1.632911078728    -1.269586898898     1.007825032230
         H            3.297716657514    -0.097907921272     0.831642101102     1.007825032230
         H            0.523636657514    -1.891407921272     1.715506101102     1.007825032230
         H            0.667401657514     3.105935078728     0.687180101102     1.007825032230
         H            2.975404657514    -2.550749921272     0.098650101102     1.007825032230
         H            3.723290657514     2.545810078728    -0.054872898898     1.007825032230
         H            4.641588657514    -0.427209921272    -1.093090898898     1.007825032230
         H           -3.806533342486    -1.525713921272     1.738724101102     1.007825032230
         H           -3.928684342486     1.442165078728     0.253382101102     1.007825032230
         H           -2.227900342486     1.889504078728    -0.055099898898     1.007825032230
         H           -3.798659342486     3.127506078728    -1.598674898898     1.007825032230
         H           -2.715334342486     2.049947078728    -2.500878898898     1.007825032230
         H           -4.399082342486     1.570947078728    -2.208727898898     1.007825032230

  Basis Set: AUG-CC-PVTZ
    Blend: AUG-CC-PVTZ
  Basis Set: (AUG-CC-PVTZ AUX)
    Blend: AUG-CC-PVTZ-JKFIT
	 Reference Energy          =   -1327.8478712354399249 [Eh]
	 Singles Energy            =      -0.0000000000000000 [Eh]
	 Same-Spin Energy          =      -1.0161093300141824 [Eh]
	 Opposite-Spin Energy      =      -3.0795807311605556 [Eh]
	 Correlation Energy        =      -4.0956900611747376 [Eh]
	 Total Energy              =   -1331.9435612966146891 [Eh]

	 ================> DF-SCS-MP2 Energies <==================
	-----------------------------------------------------------
	 SCS Same-Spin Scale       =       0.3333333333333333 [-]
	 SCS Opposite-Spin Scale   =       1.2000000000000000 [-]
	 SCS Same-Spin Energy      =      -0.3387031100047274 [Eh]
	 SCS Opposite-Spin Energy  =      -3.6954968773926664 [Eh]
	 SCS Correlation Energy    =      -4.0341999873973942 [Eh]
	 SCS Total Energy          =   -1331.8820712228373395 [Eh]
	-----------------------------------------------------------

  Dipole Moment: [D]
     X:    -0.7734      Y:     1.3129      Z:     1.0850     Total:     1.8706

*** Psi4 exiting successfully. Buy a developer a beer!
