                               Psi4 1.3.2 release

  ==> Input File <==

--------------------------------------------------------------------------
#psi4
#
memory 32 gb

molecule  {
0 1
  P       -2.2900960    -0.9400430     0.3446780
  O       -0.9860983    -0.2112209     0.9310671
  O        1.3422500    -1.6754830     1.2308510
  O        0.0787050     2.3596040     0.4621680
  O        3.0685150    -2.1870720    -0.8085900
  O        2.8473350     2.5031130     0.3715350
  O        4.1956880     0.4353970    -0.9728740
  O       -2.8268630     0.0333510    -0.8075310
  O       -3.2591210    -0.7232820     1.6216710
  O       -2.1189930    -2.3436440    -0.0996680
  C        0.1181620     0.0300090     0.0163190
  C        0.9532920    -1.2442050    -0.0757250
  C        0.9069521     1.2017579     0.5546880
  C        2.2596600    -1.0143070    -0.8180370
  C        2.1770750     1.3964720    -0.2280410
  C        3.0258420     0.1487050    -0.2103220
  C       -3.1242130     1.4315980    -0.4888860
  C       -3.5363170     2.0851650    -1.7841190
  H       -0.2830920     0.2988010    -0.9702380
  H        0.3702690    -2.0293640    -0.5720320
  H        1.1571200     0.9978770     1.6121560
  H        2.0609340    -0.7886600    -1.8727560
  H        1.9169870     1.6362870    -1.2735830
  H        3.2958550    -0.0945320     0.8276460
  H        0.5217750    -1.8880320     1.7115100
  H        0.6655400     3.1093110     0.6831840
  H        2.9735430    -2.5473740     0.0946540
  H        3.7214290     2.5491860    -0.0588690
  H        4.6397270    -0.4238340    -1.0970870
  H       -3.8083950    -1.5223380     1.7347280
  H       -3.9305460     1.4455410     0.2493860
  H       -2.2297620     1.8928800    -0.0590960
  H       -3.8005210     3.1308820    -1.6026710
  H       -2.7171960     2.0533230    -2.5048750
  H       -4.4009440     1.5743230    -2.2127240
units angstrom
no_reorient  #important for SAPT in psi4, default
symmetry c1  #important for SAPT in psi4, default
}

set PROPERTIES_ORIGIN ["COM"]
properties('MP2/aug-cc-pvtz', properties = ['dipole'])
--------------------------------------------------------------------------

    Molecular point group: c1
  Charge       = 0
  Multiplicity = 1
  Basis Set: AUG-CC-PVTZ
    Blend: AUG-CC-PVTZ
  Basis Set: (AUG-CC-PVTZ AUX)
    Blend: AUG-CC-PVTZ-JKFIT

    Orbital Energies [Eh]
    ---------------------

    Doubly Occupied:

       1A    -80.115854     2A    -20.614350     3A    -20.607335
       4A    -20.598266     5A    -20.583337     6A    -20.577491
       7A    -20.574885     8A    -20.574541     9A    -20.573494
      10A    -20.522189    11A    -11.321873    12A    -11.303710
      13A    -11.299673    14A    -11.299531    15A    -11.299160
      16A    -11.297193    17A    -11.292065    18A    -11.229694
      19A     -7.631469    20A     -5.529967    21A     -5.529637
      22A     -5.528394    23A     -1.461581    24A     -1.411077
      25A     -1.395487    26A     -1.393074    27A     -1.386440
      28A     -1.373207    29A     -1.363778    30A     -1.354130
      31A     -1.302850    32A     -1.120880    33A     -1.040249
      34A     -1.013192    35A     -1.004900    36A     -0.881640
      37A     -0.865046    38A     -0.859004    39A     -0.822657
      40A     -0.810621    41A     -0.751879    42A     -0.745739
      43A     -0.731571    44A     -0.729350    45A     -0.708592
      46A     -0.687082    47A     -0.678269    48A     -0.673703
      49A     -0.662534    50A     -0.661279    51A     -0.643468
      52A     -0.635559    53A     -0.627535    54A     -0.615447
      55A     -0.604088    56A     -0.598703    57A     -0.581216
      58A     -0.575391    59A     -0.571606    60A     -0.559342
      61A     -0.556628    62A     -0.548699    63A     -0.540904
      64A     -0.536617    65A     -0.530265    66A     -0.522388
      67A     -0.513123    68A     -0.504451    69A     -0.497108
      70A     -0.484958    71A     -0.479390    72A     -0.475908
      73A     -0.463539    74A     -0.456718    75A     -0.450171
      76A     -0.436641

  @DF-RHF Final Energy: -1327.86181998619168

   => Energetics <=

    Nuclear Repulsion Energy =           1772.8341157759352882
    One-Electron Energy =               -5357.7842995301252813
    Two-Electron Energy =                2257.0883637679985441
    Total Energy =                      -1327.8618199861916764
  Basis Set: (AUG-CC-PVTZ AUX)
    Blend: AUG-CC-PVTZ-RI
    Molecular point group: c1

    Geometry (in Angstrom), charge = 0, multiplicity = 1:

       Center              X                  Y                   Z               Mass
    ------------   -----------------  -----------------  -----------------  -----------------
         P           -2.290225288597    -0.939469747942     0.345502363587    30.973761998420
         O           -0.986227588597    -0.210647647942     0.931891463587    15.994914619570
         O            1.342120711403    -1.674909747942     1.231675363587    15.994914619570
         O            0.078575711403     2.360177252058     0.462992363587    15.994914619570
         O            3.068385711403    -2.186498747942    -0.807765636413    15.994914619570
         O            2.847205711403     2.503686252058     0.372359363587    15.994914619570
         O            4.195558711403     0.435970252058    -0.972049636413    15.994914619570
         O           -2.826992288597     0.033924252058    -0.806706636413    15.994914619570
         O           -3.259250288597    -0.722708747942     1.622495363587    15.994914619570
         O           -2.119122288597    -2.343070747942    -0.098843636413    15.994914619570
         C            0.118032711403     0.030582252058     0.017143363587    12.000000000000
         C            0.953162711403    -1.243631747942    -0.074900636413    12.000000000000
         C            0.906822811403     1.202331152058     0.555512363587    12.000000000000
         C            2.259530711403    -1.013733747942    -0.817212636413    12.000000000000
         C            2.176945711403     1.397045252058    -0.227216636413    12.000000000000
         C            3.025712711403     0.149278252058    -0.209497636413    12.000000000000
         C           -3.124342288597     1.432171252058    -0.488061636413    12.000000000000
         C           -3.536446288597     2.085738252058    -1.783294636413    12.000000000000
         H           -0.283221288597     0.299374252058    -0.969413636413     1.007825032230
         H            0.370139711403    -2.028790747942    -0.571207636413     1.007825032230
         H            1.156990711403     0.998450252058     1.612980363587     1.007825032230
         H            2.060804711403    -0.788086747942    -1.871931636413     1.007825032230
         H            1.916857711403     1.636860252058    -1.272758636413     1.007825032230
         H            3.295725711403    -0.093958747942     0.828470363587     1.007825032230
         H            0.521645711403    -1.887458747942     1.712334363587     1.007825032230
         H            0.665410711403     3.109884252058     0.684008363587     1.007825032230
         H            2.973413711403    -2.546800747942     0.095478363587     1.007825032230
         H            3.721299711403     2.549759252058    -0.058044636413     1.007825032230
         H            4.639597711403    -0.423260747942    -1.096262636413     1.007825032230
         H           -3.808524288597    -1.521764747942     1.735552363587     1.007825032230
         H           -3.930675288597     1.446114252058     0.250210363587     1.007825032230
         H           -2.229891288597     1.893453252058    -0.058271636413     1.007825032230
         H           -3.800650288597     3.131455252058    -1.601846636413     1.007825032230
         H           -2.717325288597     2.053896252058    -2.504050636413     1.007825032230
         H           -4.401073288597     1.574896252058    -2.211899636413     1.007825032230

  Basis Set: AUG-CC-PVTZ
    Blend: AUG-CC-PVTZ
  Basis Set: (AUG-CC-PVTZ AUX)
    Blend: AUG-CC-PVTZ-JKFIT
	 Reference Energy          =   -1327.8618199861916764 [Eh]
	 Singles Energy            =      -0.0000000000000000 [Eh]
	 Same-Spin Energy          =      -1.0145079694537302 [Eh]
	 Opposite-Spin Energy      =      -3.0757719862948463 [Eh]
	 Correlation Energy        =      -4.0902799557485761 [Eh]
	 Total Energy              =   -1331.9520999419403324 [Eh]

	 ================> DF-SCS-MP2 Energies <==================
	-----------------------------------------------------------
	 SCS Same-Spin Scale       =       0.3333333333333333 [-]
	 SCS Opposite-Spin Scale   =       1.2000000000000000 [-]
	 SCS Same-Spin Energy      =      -0.3381693231512434 [Eh]
	 SCS Opposite-Spin Energy  =      -3.6909263835538155 [Eh]
	 SCS Correlation Energy    =      -4.0290957067050588 [Eh]
	 SCS Total Energy          =   -1331.8909156928966695 [Eh]
	-----------------------------------------------------------

  Dipole Moment: [D]
     X:    -1.0443      Y:     1.8847      Z:     0.7263     Total:     2.2738

*** Psi4 exiting successfully. Buy a developer a beer!
