                               Psi4 1.4a3.dev225

  ==> Input File <==

--------------------------------------------------------------------------
#psi4
#
memory 32 gb

molecule  {
0 1
  P       -2.3219140    -1.0563120    -0.0968450
  O       -1.0285840    -0.5623410     0.7549430
  O        1.3695440    -1.8069540     1.2202350
  O       -0.1592450     2.1412630     0.5207450
  O        3.3269040    -2.0858120    -0.6453880
  O        2.5724350     2.5270130     0.6374560
  O        4.2203020     0.6406430    -0.6358120
  O       -2.8737010     0.2643620    -0.8096810
  O       -3.3065970    -1.3497020     1.1531960
  O       -2.1044560    -2.1814480    -1.0350500
  C        0.1200290    -0.1583450    -0.0432010
  C        1.0698050    -1.3527180    -0.1046720
  C        0.7441670     1.0454510     0.6308160
  C        2.4193320    -0.9866070    -0.7068450
  C        2.0603010     1.3853380    -0.0470020
  C        3.0180900     0.2181970     0.0056710
  C       -3.2473180     1.4231610     0.0025120
  C       -3.2076300     2.6262440    -0.9075720
  H       -0.2047330     0.1313700    -1.0514980
  H        0.5965010    -2.1549610    -0.6866410
  H        0.9459046     0.7954315     1.7340270
  H        2.3054700    -0.7437210    -1.7704410
  H        1.8633300     1.6367370    -1.1028410
  H        3.2142070    -0.0417910     1.0561650
  H        0.5126160    -2.0057500     1.6426110
  H        0.3598300     2.9232990     0.7925780
  H        3.1793900    -2.4823080     0.2360710
  H        3.4672560     2.6739710     0.2770410
  H        4.7639490    -0.1654590    -0.7244900
  H       -3.7873380    -2.1826420     0.9908450
  H       -4.2474700     1.2335250     0.4005830
  H       -2.5352900     1.5309660     0.8217280
  H       -3.5402110     3.5125760    -0.3587690
  H       -2.1856630     2.7912820    -1.2511950
  H       -3.8637180     2.4807570    -1.7684970
units angstrom
no_reorient  #important for SAPT in psi4, default
symmetry c1  #important for SAPT in psi4, default
}

set PROPERTIES_ORIGIN ["COM"]
properties('MP2/aug-cc-pvtz', properties = ['dipole'])
--------------------------------------------------------------------------

    Molecular point group: c1
  Charge       = 0
  Multiplicity = 1
  Basis Set: AUG-CC-PVTZ
    Blend: AUG-CC-PVTZ
  Basis Set: (AUG-CC-PVTZ AUX)
    Blend: AUG-CC-PVTZ-JKFIT

    Orbital Energies [Eh]
    ---------------------

    Doubly Occupied:

       1A    -80.116849     2A    -20.615027     3A    -20.608110
       4A    -20.596102     5A    -20.583828     6A    -20.578524
       7A    -20.575542     8A    -20.575329     9A    -20.575162
      10A    -20.522574    11A    -11.321882    12A    -11.306175
      13A    -11.305271    14A    -11.300315    15A    -11.298898
      16A    -11.296248    17A    -11.292983    18A    -11.223028
      19A     -7.632115    20A     -5.530649    21A     -5.530147
      22A     -5.529086    23A     -1.458526    24A     -1.410873
      25A     -1.395473    26A     -1.392753    27A     -1.385251
      28A     -1.372803    29A     -1.364368    30A     -1.354322
      31A     -1.302762    32A     -1.118406    33A     -1.035626
      34A     -1.011426    35A     -1.002517    36A     -0.877757
      37A     -0.862481    38A     -0.857863    39A     -0.822940
      40A     -0.807847    41A     -0.754001    42A     -0.745781
      43A     -0.728241    44A     -0.726220    45A     -0.705235
      46A     -0.686275    47A     -0.679258    48A     -0.674243
      49A     -0.662239    50A     -0.659483    51A     -0.641003
      52A     -0.637024    53A     -0.623765    54A     -0.613065
      55A     -0.602910    56A     -0.597025    57A     -0.580952
      58A     -0.577583    59A     -0.570164    60A     -0.559845
      61A     -0.555304    62A     -0.548138    63A     -0.538750
      64A     -0.537665    65A     -0.530129    66A     -0.517799
      67A     -0.508318    68A     -0.503342    69A     -0.494493
      70A     -0.486980    71A     -0.478743    72A     -0.475496
      73A     -0.462118    74A     -0.457187    75A     -0.449454
      76A     -0.436716

  @DF-RHF Final Energy: -1327.85852015690216

   => Energetics <=

    Nuclear Repulsion Energy =           1774.3029355779260641
    One-Electron Energy =               -5360.8173384377951152
    Two-Electron Energy =                2258.6558827029666645
    Total Energy =                      -1327.8585201569021592
  Basis Set: (AUG-CC-PVTZ AUX)
    Blend: AUG-CC-PVTZ-RI
    Molecular point group: c1

    Geometry (in Angstrom), charge = 0, multiplicity = 1:

       Center              X                  Y                   Z               Mass
    ------------   -----------------  -----------------  -----------------  -----------------
         P           -2.311183330339    -1.018494877570    -0.099457433898    30.973761998420
         O           -1.017853330339    -0.524523877570     0.752330566102    15.994914619570
         O            1.380274669661    -1.769136877570     1.217622566102    15.994914619570
         O           -0.148514330339     2.179080122430     0.518132566102    15.994914619570
         O            3.337634669661    -2.047994877570    -0.648000433898    15.994914619570
         O            2.583165669661     2.564830122430     0.634843566102    15.994914619570
         O            4.231032669661     0.678460122430    -0.638424433898    15.994914619570
         O           -2.862970330339     0.302179122430    -0.812293433898    15.994914619570
         O           -3.295866330339    -1.311884877570     1.150583566102    15.994914619570
         O           -2.093725330339    -2.143630877570    -1.037662433898    15.994914619570
         C            0.130759669661    -0.120527877570    -0.045813433898    12.000000000000
         C            1.080535669661    -1.314900877570    -0.107284433898    12.000000000000
         C            0.754897669661     1.083268122430     0.628203566102    12.000000000000
         C            2.430062669661    -0.948789877570    -0.709457433898    12.000000000000
         C            2.071031669661     1.423155122430    -0.049614433898    12.000000000000
         C            3.028820669661     0.256014122430     0.003058566102    12.000000000000
         C           -3.236587330339     1.460978122430    -0.000100433898    12.000000000000
         C           -3.196899330339     2.664061122430    -0.910184433898    12.000000000000
         H           -0.194002330339     0.169187122430    -1.054110433898     1.007825032230
         H            0.607231669661    -2.117143877570    -0.689253433898     1.007825032230
         H            0.956635269661     0.833248622430     1.731414566102     1.007825032230
         H            2.316200669661    -0.705903877570    -1.773053433898     1.007825032230
         H            1.874060669661     1.674554122430    -1.105453433898     1.007825032230
         H            3.224937669661    -0.003973877570     1.053552566102     1.007825032230
         H            0.523346669661    -1.967932877570     1.639998566102     1.007825032230
         H            0.370560669661     2.961116122430     0.789965566102     1.007825032230
         H            3.190120669661    -2.444490877570     0.233458566102     1.007825032230
         H            3.477986669661     2.711788122430     0.274428566102     1.007825032230
         H            4.774679669661    -0.127641877570    -0.727102433898     1.007825032230
         H           -3.776607330339    -2.144824877570     0.988232566102     1.007825032230
         H           -4.236739330339     1.271342122430     0.397970566102     1.007825032230
         H           -2.524559330339     1.568783122430     0.819115566102     1.007825032230
         H           -3.529480330339     3.550393122430    -0.361381433898     1.007825032230
         H           -2.174932330339     2.829099122430    -1.253807433898     1.007825032230
         H           -3.852987330339     2.518574122430    -1.771109433898     1.007825032230

  Basis Set: AUG-CC-PVTZ
    Blend: AUG-CC-PVTZ
  Basis Set: (AUG-CC-PVTZ AUX)
    Blend: AUG-CC-PVTZ-JKFIT
	 Reference Energy          =   -1327.8585201569021592 [Eh]
	 Singles Energy            =      -0.0000000000000000 [Eh]
	 Same-Spin Energy          =      -1.0148740654843262 [Eh]
	 Opposite-Spin Energy      =      -3.0770959842800609 [Eh]
	 Correlation Energy        =      -4.0919700497643872 [Eh]
	 Total Energy              =   -1331.9504902066664727 [Eh]

	 ================> DF-SCS-MP2 Energies <==================
	-----------------------------------------------------------
	 SCS Same-Spin Scale       =       0.3333333333333333 [-]
	 SCS Opposite-Spin Scale   =       1.2000000000000000 [-]
	 SCS Same-Spin Energy      =      -0.3382913551614420 [Eh]
	 SCS Opposite-Spin Energy  =      -3.6925151811360730 [Eh]
	 SCS Correlation Energy    =      -4.0308065362975150 [Eh]
	 SCS Total Energy          =   -1331.8893266931995640 [Eh]
	-----------------------------------------------------------

  Dipole Moment: [D]
     X:    -0.8735      Y:     1.4323      Z:     1.8621     Total:     2.5064

*** Psi4 exiting successfully. Buy a developer a beer!
