                               Psi4 1.3.2 release

  ==> Input File <==

--------------------------------------------------------------------------
#psi4
#
memory 32 gb

molecule  {
0 1
  P       -2.2900960    -0.9400430     0.3446780
  O       -0.9821530    -0.2015620     0.9382890
  O        1.3422500    -1.6754830     1.2308510
  O        0.0787050     2.3596040     0.4621680
  O        3.0120498    -2.2239012    -0.8405053
  O        2.8473350     2.5031130     0.3715350
  O        4.1956880     0.4353970    -0.9728740
  O       -2.8268630     0.0333510    -0.8075310
  O       -3.2591210    -0.7232820     1.6216710
  O       -2.1189930    -2.3436440    -0.0996680
  C        0.1181620     0.0300090     0.0163190
  C        0.9532920    -1.2442050    -0.0757250
  C        0.8985890     1.2026440     0.5648510
  C        2.2596600    -1.0143070    -0.8180370
  C        2.1770750     1.3964720    -0.2280410
  C        2.9622094     0.1946641    -0.2232576
  C       -3.1242130     1.4315980    -0.4888860
  C       -3.5363170     2.0851650    -1.7841190
  H       -0.2830920     0.2988010    -0.9702380
  H        0.3702690    -2.0293640    -0.5720320
  H        1.1571200     0.9978770     1.6121560
  H        2.0609340    -0.7886600    -1.8727560
  H        1.9169870     1.6362870    -1.2735830
  H        3.2958550    -0.0945320     0.8276460
  H        0.5217750    -1.8880320     1.7115100
  H        0.6655400     3.1093110     0.6831840
  H        2.9735430    -2.5473740     0.0946540
  H        3.7214290     2.5491860    -0.0588690
  H        4.6397270    -0.4238340    -1.0970870
  H       -3.8083950    -1.5223380     1.7347280
  H       -3.9305460     1.4455410     0.2493860
  H       -2.2297620     1.8928800    -0.0590960
  H       -3.8005210     3.1308820    -1.6026710
  H       -2.7171960     2.0533230    -2.5048750
  H       -4.4009440     1.5743230    -2.2127240
units angstrom
no_reorient  #important for SAPT in psi4, default
symmetry c1  #important for SAPT in psi4, default
}

set PROPERTIES_ORIGIN ["COM"]
properties('MP2/aug-cc-pvtz', properties = ['dipole'])
--------------------------------------------------------------------------

    Molecular point group: c1
  Charge       = 0
  Multiplicity = 1
  Basis Set: AUG-CC-PVTZ
    Blend: AUG-CC-PVTZ
  Basis Set: (AUG-CC-PVTZ AUX)
    Blend: AUG-CC-PVTZ-JKFIT

    Orbital Energies [Eh]
    ---------------------

    Doubly Occupied:

       1A    -80.116982     2A    -20.614782     3A    -20.607201
       4A    -20.599056     5A    -20.582708     6A    -20.579876
       7A    -20.579349     8A    -20.574960     9A    -20.570203
      10A    -20.523294    11A    -11.320963    12A    -11.302094
      13A    -11.301336    14A    -11.301048    15A    -11.299614
      16A    -11.297470    17A    -11.296135    18A    -11.230051
      19A     -7.632429    20A     -5.530935    21A     -5.530564
      22A     -5.529357    23A     -1.460407    24A     -1.410523
      25A     -1.395674    26A     -1.391635    27A     -1.386698
      28A     -1.368900    29A     -1.364683    30A     -1.348354
      31A     -1.303697    32A     -1.127641    33A     -1.040823
      34A     -1.020718    35A     -1.005504    36A     -0.879186
      37A     -0.864638    38A     -0.864007    39A     -0.821780
      40A     -0.810643    41A     -0.752224    42A     -0.745682
      43A     -0.732019    44A     -0.728749    45A     -0.709455
      46A     -0.686888    47A     -0.676828    48A     -0.672294
      49A     -0.663762    50A     -0.660972    51A     -0.643980
      52A     -0.635173    53A     -0.627482    54A     -0.616475
      55A     -0.604519    56A     -0.596009    57A     -0.579581
      58A     -0.575429    59A     -0.570195    60A     -0.560807
      61A     -0.554539    62A     -0.548047    63A     -0.540860
      64A     -0.537651    65A     -0.528266    66A     -0.522159
      67A     -0.514665    68A     -0.501519    69A     -0.497275
      70A     -0.484801    71A     -0.479874    72A     -0.476677
      73A     -0.465996    74A     -0.462369    75A     -0.450222
      76A     -0.435790

  @DF-RHF Final Energy: -1327.85016303436805

   => Energetics <=

    Nuclear Repulsion Energy =           1773.3396106933741976
    One-Electron Energy =               -5358.7292535872147710
    Two-Electron Energy =                2257.5394798594725216
    Total Energy =                      -1327.8501630343680517
  Basis Set: (AUG-CC-PVTZ AUX)
    Blend: AUG-CC-PVTZ-RI
    Molecular point group: c1

    Geometry (in Angstrom), charge = 0, multiplicity = 1:

       Center              X                  Y                   Z               Mass
    ------------   -----------------  -----------------  -----------------  -----------------
         P           -2.284309876226    -0.939912556107     0.346988993142    30.973761998420
         O           -0.976366876226    -0.201431556107     0.940599993142    15.994914619570
         O            1.348036123774    -1.675352556107     1.233161993142    15.994914619570
         O            0.084491123774     2.359734443893     0.464478993142    15.994914619570
         O            3.017835923774    -2.223770756107    -0.838194306858    15.994914619570
         O            2.853121123774     2.503243443893     0.373845993142    15.994914619570
         O            4.201474123774     0.435527443893    -0.970563006858    15.994914619570
         O           -2.821076876226     0.033481443893    -0.805220006858    15.994914619570
         O           -3.253334876226    -0.723151556107     1.623981993142    15.994914619570
         O           -2.113206876226    -2.343513556107    -0.097357006858    15.994914619570
         C            0.123948123774     0.030139443893     0.018629993142    12.000000000000
         C            0.959078123774    -1.244074556107    -0.073414006858    12.000000000000
         C            0.904375123774     1.202774443893     0.567161993142    12.000000000000
         C            2.265446123774    -1.014176556107    -0.815726006858    12.000000000000
         C            2.182861123774     1.396602443893    -0.225730006858    12.000000000000
         C            2.967995523774     0.194794543893    -0.220946606858    12.000000000000
         C           -3.118426876226     1.431728443893    -0.486575006858    12.000000000000
         C           -3.530530876226     2.085295443893    -1.781808006858    12.000000000000
         H           -0.277305876226     0.298931443893    -0.967927006858     1.007825032230
         H            0.376055123774    -2.029233556107    -0.569721006858     1.007825032230
         H            1.162906123774     0.998007443893     1.614466993142     1.007825032230
         H            2.066720123774    -0.788529556107    -1.870445006858     1.007825032230
         H            1.922773123774     1.636417443893    -1.271272006858     1.007825032230
         H            3.301641123774    -0.094401556107     0.829956993142     1.007825032230
         H            0.527561123774    -1.887901556107     1.713820993142     1.007825032230
         H            0.671326123774     3.109441443893     0.685494993142     1.007825032230
         H            2.979329123774    -2.547243556107     0.096964993142     1.007825032230
         H            3.727215123774     2.549316443893    -0.056558006858     1.007825032230
         H            4.645513123774    -0.423703556107    -1.094776006858     1.007825032230
         H           -3.802608876226    -1.522207556107     1.737038993142     1.007825032230
         H           -3.924759876226     1.445671443893     0.251696993142     1.007825032230
         H           -2.223975876226     1.893010443893    -0.056785006858     1.007825032230
         H           -3.794734876226     3.131012443893    -1.600360006858     1.007825032230
         H           -2.711409876226     2.053453443893    -2.502564006858     1.007825032230
         H           -4.395157876226     1.574453443893    -2.210413006858     1.007825032230

  Basis Set: AUG-CC-PVTZ
    Blend: AUG-CC-PVTZ
  Basis Set: (AUG-CC-PVTZ AUX)
    Blend: AUG-CC-PVTZ-JKFIT
	 Reference Energy          =   -1327.8501630343680517 [Eh]
	 Singles Energy            =      -0.0000000000000000 [Eh]
	 Same-Spin Energy          =      -1.0156852700485945 [Eh]
	 Opposite-Spin Energy      =      -3.0780761168694823 [Eh]
	 Correlation Energy        =      -4.0937613869180769 [Eh]
	 Total Energy              =   -1331.9439244212860558 [Eh]

	 ================> DF-SCS-MP2 Energies <==================
	-----------------------------------------------------------
	 SCS Same-Spin Scale       =       0.3333333333333333 [-]
	 SCS Opposite-Spin Scale   =       1.2000000000000000 [-]
	 SCS Same-Spin Energy      =      -0.3385617566828648 [Eh]
	 SCS Opposite-Spin Energy  =      -3.6936913402433786 [Eh]
	 SCS Correlation Energy    =      -4.0322530969262438 [Eh]
	 SCS Total Energy          =   -1331.8824161312943488 [Eh]
	-----------------------------------------------------------

  Dipole Moment: [D]
     X:    -1.1330      Y:     1.9570      Z:     0.8038     Total:     2.3999

*** Psi4 exiting successfully. Buy a developer a beer!
