                               Psi4 1.3.2 release

  ==> Input File <==

--------------------------------------------------------------------------
#psi4
#
memory 32 gb

molecule  {
0 1
  P       -2.2900960    -0.9400430     0.3446780
  O       -0.9821530    -0.2015620     0.9382890
  O        1.3422500    -1.6754830     1.2308510
  O        0.0787050     2.3596040     0.4621680
  O        3.0685150    -2.1870720    -0.8085900
  O        2.8492344     2.4902013     0.3927263
  O        4.1956880     0.4353970    -0.9728740
  O       -2.8268630     0.0333510    -0.8075310
  O       -3.2591210    -0.7232820     1.6216710
  O       -2.1189930    -2.3436440    -0.0996680
  C        0.1181620     0.0300090     0.0163190
  C        0.9532920    -1.2442050    -0.0757250
  C        0.8985890     1.2026440     0.5648510
  C        2.2596600    -1.0143070    -0.8180370
  C        2.1770750     1.3964720    -0.2280410
  C        3.0258420     0.1487050    -0.2103220
  C       -3.1242130     1.4315980    -0.4888860
  C       -3.5363170     2.0851650    -1.7841190
  H       -0.2830920     0.2988010    -0.9702380
  H        0.3702690    -2.0293640    -0.5720320
  H        1.1571200     0.9978770     1.6121560
  H        2.0609340    -0.7886600    -1.8727560
  H        1.9090403     1.6188358    -1.2754315
  H        3.2958550    -0.0945320     0.8276460
  H        0.5217750    -1.8880320     1.7115100
  H        0.6655400     3.1093110     0.6831840
  H        2.9735430    -2.5473740     0.0946540
  H        3.7214290     2.5491860    -0.0588690
  H        4.6397270    -0.4238340    -1.0970870
  H       -3.8083950    -1.5223380     1.7347280
  H       -3.9305460     1.4455410     0.2493860
  H       -2.2297620     1.8928800    -0.0590960
  H       -3.8005210     3.1308820    -1.6026710
  H       -2.7171960     2.0533230    -2.5048750
  H       -4.4009440     1.5743230    -2.2127240
units angstrom
no_reorient  #important for SAPT in psi4, default
symmetry c1  #important for SAPT in psi4, default
}

set PROPERTIES_ORIGIN ["COM"]
properties('MP2/aug-cc-pvtz', properties = ['dipole'])
--------------------------------------------------------------------------

    Molecular point group: c1
  Charge       = 0
  Multiplicity = 1
  Basis Set: AUG-CC-PVTZ
    Blend: AUG-CC-PVTZ
  Basis Set: (AUG-CC-PVTZ AUX)
    Blend: AUG-CC-PVTZ-JKFIT

    Orbital Energies [Eh]
    ---------------------

    Doubly Occupied:

       1A    -80.116865     2A    -20.614669     3A    -20.606903
       4A    -20.598902     5A    -20.582953     6A    -20.578579
       7A    -20.574406     8A    -20.573974     9A    -20.573488
      10A    -20.523364    11A    -11.320550    12A    -11.303378
      13A    -11.299378    14A    -11.299083    15A    -11.298250
      16A    -11.296786    17A    -11.290869    18A    -11.229886
      19A     -7.632316    20A     -5.530822    21A     -5.530448
      22A     -5.529247    23A     -1.460203    24A     -1.410675
      25A     -1.394427    26A     -1.392827    27A     -1.386810
      28A     -1.372619    29A     -1.363620    30A     -1.353431
      31A     -1.303761    32A     -1.118891    33A     -1.040461
      34A     -1.011816    35A     -1.003182    36A     -0.880011
      37A     -0.864810    38A     -0.858889    39A     -0.821932
      40A     -0.810570    41A     -0.751841    42A     -0.745039
      43A     -0.731469    44A     -0.728343    45A     -0.707346
      46A     -0.687036    47A     -0.677954    48A     -0.673630
      49A     -0.662374    50A     -0.660454    51A     -0.642900
      52A     -0.634890    53A     -0.627248    54A     -0.615203
      55A     -0.602872    56A     -0.598389    57A     -0.581457
      58A     -0.575501    59A     -0.570953    60A     -0.559446
      61A     -0.556631    62A     -0.548279    63A     -0.541205
      64A     -0.536764    65A     -0.529887    66A     -0.521506
      67A     -0.513521    68A     -0.504210    69A     -0.497088
      70A     -0.484615    71A     -0.479812    72A     -0.476543
      73A     -0.462723    74A     -0.455594    75A     -0.450145
      76A     -0.435881

  @DF-RHF Final Energy: -1327.86039750520695

   => Energetics <=

    Nuclear Repulsion Energy =           1772.6130896015554299
    One-Electron Energy =               -5357.3813739486040504
    Two-Electron Energy =                2256.9078868418414459
    Total Energy =                      -1327.8603975052069472
  Basis Set: (AUG-CC-PVTZ AUX)
    Blend: AUG-CC-PVTZ-RI
    Molecular point group: c1

    Geometry (in Angstrom), charge = 0, multiplicity = 1:

       Center              X                  Y                   Z               Mass
    ------------   -----------------  -----------------  -----------------  -----------------
         P           -2.290173630772    -0.939264989885     0.343507787073    30.973761998420
         O           -0.982230630772    -0.200783989885     0.937118787073    15.994914619570
         O            1.342172369228    -1.674704989885     1.229680787073    15.994914619570
         O            0.078627369228     2.360382010115     0.460997787073    15.994914619570
         O            3.068437369228    -2.186293989885    -0.809760212927    15.994914619570
         O            2.849156769228     2.490979310115     0.391556087073    15.994914619570
         O            4.195610369228     0.436175010115    -0.974044212927    15.994914619570
         O           -2.826940630772     0.034129010115    -0.808701212927    15.994914619570
         O           -3.259198630772    -0.722503989885     1.620500787073    15.994914619570
         O           -2.119070630772    -2.342865989885    -0.100838212927    15.994914619570
         C            0.118084369228     0.030787010115     0.015148787073    12.000000000000
         C            0.953214369228    -1.243426989885    -0.076895212927    12.000000000000
         C            0.898511369228     1.203422010115     0.563680787073    12.000000000000
         C            2.259582369228    -1.013528989885    -0.819207212927    12.000000000000
         C            2.176997369228     1.397250010115    -0.229211212927    12.000000000000
         C            3.025764369228     0.149483010115    -0.211492212927    12.000000000000
         C           -3.124290630772     1.432376010115    -0.490056212927    12.000000000000
         C           -3.536394630772     2.085943010115    -1.785289212927    12.000000000000
         H           -0.283169630772     0.299579010115    -0.971408212927     1.007825032230
         H            0.370191369228    -2.028585989885    -0.573202212927     1.007825032230
         H            1.157042369228     0.998655010115     1.610985787073     1.007825032230
         H            2.060856369228    -0.787881989885    -1.873926212927     1.007825032230
         H            1.908962669228     1.619613810115    -1.276601712927     1.007825032230
         H            3.295777369228    -0.093753989885     0.826475787073     1.007825032230
         H            0.521697369228    -1.887253989885     1.710339787073     1.007825032230
         H            0.665462369228     3.110089010115     0.682013787073     1.007825032230
         H            2.973465369228    -2.546595989885     0.093483787073     1.007825032230
         H            3.721351369228     2.549964010115    -0.060039212927     1.007825032230
         H            4.639649369228    -0.423055989885    -1.098257212927     1.007825032230
         H           -3.808472630772    -1.521559989885     1.733557787073     1.007825032230
         H           -3.930623630772     1.446319010115     0.248215787073     1.007825032230
         H           -2.229839630772     1.893658010115    -0.060266212927     1.007825032230
         H           -3.800598630772     3.131660010115    -1.603841212927     1.007825032230
         H           -2.717273630772     2.054101010115    -2.506045212927     1.007825032230
         H           -4.401021630772     1.575101010115    -2.213894212927     1.007825032230

  Basis Set: AUG-CC-PVTZ
    Blend: AUG-CC-PVTZ
  Basis Set: (AUG-CC-PVTZ AUX)
    Blend: AUG-CC-PVTZ-JKFIT
	 Reference Energy          =   -1327.8603975052069472 [Eh]
	 Singles Energy            =      -0.0000000000000000 [Eh]
	 Same-Spin Energy          =      -1.0148047352722367 [Eh]
	 Opposite-Spin Energy      =      -3.0765254257531560 [Eh]
	 Correlation Energy        =      -4.0913301610253932 [Eh]
	 Total Energy              =   -1331.9517276662322729 [Eh]

	 ================> DF-SCS-MP2 Energies <==================
	-----------------------------------------------------------
	 SCS Same-Spin Scale       =       0.3333333333333333 [-]
	 SCS Opposite-Spin Scale   =       1.2000000000000000 [-]
	 SCS Same-Spin Energy      =      -0.3382682450907455 [Eh]
	 SCS Opposite-Spin Energy  =      -3.6918305109037872 [Eh]
	 SCS Correlation Energy    =      -4.0300987559945325 [Eh]
	 SCS Total Energy          =   -1331.8904962612014060 [Eh]
	-----------------------------------------------------------

  Dipole Moment: [D]
     X:    -1.1129      Y:     1.9035      Z:     0.6892     Total:     2.3102

*** Psi4 exiting successfully. Buy a developer a beer!
