                               Psi4 1.3.2 release

  ==> Input File <==

--------------------------------------------------------------------------
#psi4
#
memory 32 gb

molecule  {
0 1
  P       -2.2900960    -0.9400430     0.3446780
  O       -0.9821530    -0.2015620     0.9382890
  O        1.3422500    -1.6754830     1.2308510
  O        0.0787050     2.3596040     0.4621680
  O        3.0685150    -2.1870720    -0.8085900
  O        2.8473350     2.5031130     0.3715350
  O        4.1956880     0.4353970    -0.9728740
  O       -2.8268630     0.0333510    -0.8075310
  O       -3.2591210    -0.7232820     1.6216710
  O       -2.1189930    -2.3436440    -0.0996680
  C        0.1181620     0.0300090     0.0163190
  C        0.9532920    -1.2442050    -0.0757250
  C        0.8985890     1.2026440     0.5648510
  C        2.2596600    -1.0143070    -0.8180370
  C        2.1770750     1.3964720    -0.2280410
  C        3.0258420     0.1487050    -0.2103220
  C       -3.1242130     1.4315980    -0.4888860
  C       -3.5363170     2.0851650    -1.7841190
  H       -0.2830920     0.2988010    -0.9702380
  H        0.3702690    -2.0293640    -0.5720320
  H        1.1571200     0.9978770     1.6121560
  H        2.0609340    -0.7886600    -1.8727560
  H        1.9169870     1.6362870    -1.2735830
  H        3.2958550    -0.0945320     0.8276460
  H        0.5217750    -1.8880320     1.7115100
  H        0.6655400     3.1093110     0.6831840
  H        2.9735430    -2.5473740     0.0946540
  H        3.7214290     2.5491860    -0.0588690
  H        4.6397270    -0.4238340    -1.0970870
  H       -3.6958624    -1.3586312     1.7115654
  H       -3.9305460     1.4455410     0.2493860
  H       -2.2297620     1.8928800    -0.0590960
  H       -3.8005210     3.1308820    -1.6026710
  H       -2.7171960     2.0533230    -2.5048750
  H       -4.4009440     1.5743230    -2.2127240
units angstrom
no_reorient  #important for SAPT in psi4, default
symmetry c1  #important for SAPT in psi4, default
}

set PROPERTIES_ORIGIN ["COM"]
properties('MP2/aug-cc-pvtz', properties = ['dipole'])
--------------------------------------------------------------------------

    Molecular point group: c1
  Charge       = 0
  Multiplicity = 1
  Basis Set: AUG-CC-PVTZ
    Blend: AUG-CC-PVTZ
  Basis Set: (AUG-CC-PVTZ AUX)
    Blend: AUG-CC-PVTZ-JKFIT

    Orbital Energies [Eh]
    ---------------------

    Doubly Occupied:

       1A    -80.120745     2A    -20.608922     3A    -20.601231
       4A    -20.597447     5A    -20.584080     6A    -20.577496
       7A    -20.575298     8A    -20.574728     9A    -20.574413
      10A    -20.526742    11A    -11.322100    12A    -11.304598
      13A    -11.300944    14A    -11.300158    15A    -11.299630
      16A    -11.297506    17A    -11.292168    18A    -11.230953
      19A     -7.636195    20A     -5.534779    21A     -5.534295
      22A     -5.533092    23A     -1.491188    24A     -1.430564
      25A     -1.407006    26A     -1.394670    27A     -1.392065
      28A     -1.374299    29A     -1.364777    30A     -1.354684
      31A     -1.308045    32A     -1.120287    33A     -1.042195
      34A     -1.014074    35A     -1.004387    36A     -0.894448
      37A     -0.866894    38A     -0.861441    39A     -0.845260
      40A     -0.811874    41A     -0.760868    42A     -0.751370
      43A     -0.737921    44A     -0.730928    45A     -0.714681
      46A     -0.689291    47A     -0.680621    48A     -0.677733
      49A     -0.665527    50A     -0.662346    51A     -0.644973
      52A     -0.637114    53A     -0.631503    54A     -0.617254
      55A     -0.605900    56A     -0.599406    57A     -0.583970
      58A     -0.581524    59A     -0.572481    60A     -0.561404
      61A     -0.557918    62A     -0.549980    63A     -0.544059
      64A     -0.537471    65A     -0.532044    66A     -0.522990
      67A     -0.514552    68A     -0.505308    69A     -0.499328
      70A     -0.486182    71A     -0.482182    72A     -0.479405
      73A     -0.463735    74A     -0.456632    75A     -0.451335
      76A     -0.437167

  @DF-RHF Final Energy: -1327.81539482679204

   => Energetics <=

    Nuclear Repulsion Energy =           1774.2224000818375771
    One-Electron Energy =               -5360.0100227560769781
    Two-Electron Energy =                2257.9722278474469022
    Total Energy =                      -1327.8153948267922715
  Basis Set: (AUG-CC-PVTZ AUX)
    Blend: AUG-CC-PVTZ-RI
    Molecular point group: c1

    Geometry (in Angstrom), charge = 0, multiplicity = 1:

       Center              X                  Y                   Z               Mass
    ------------   -----------------  -----------------  -----------------  -----------------
         P           -2.290489679483    -0.940615735319     0.344759028628    30.973761998420
         O           -0.982546679483    -0.202134735319     0.938370028628    15.994914619570
         O            1.341856320517    -1.676055735319     1.230932028628    15.994914619570
         O            0.078311320517     2.359031264681     0.462249028628    15.994914619570
         O            3.068121320517    -2.187644735319    -0.808508971372    15.994914619570
         O            2.846941320517     2.502540264681     0.371616028628    15.994914619570
         O            4.195294320517     0.434824264681    -0.972792971372    15.994914619570
         O           -2.827256679483     0.032778264681    -0.807449971372    15.994914619570
         O           -3.259514679483    -0.723854735319     1.621752028628    15.994914619570
         O           -2.119386679483    -2.344216735319    -0.099586971372    15.994914619570
         C            0.117768320517     0.029436264681     0.016400028628    12.000000000000
         C            0.952898320517    -1.244777735319    -0.075643971372    12.000000000000
         C            0.898195320517     1.202071264681     0.564932028628    12.000000000000
         C            2.259266320517    -1.014879735319    -0.817955971372    12.000000000000
         C            2.176681320517     1.395899264681    -0.227959971372    12.000000000000
         C            3.025448320517     0.148132264681    -0.210240971372    12.000000000000
         C           -3.124606679483     1.431025264681    -0.488804971372    12.000000000000
         C           -3.536710679483     2.084592264681    -1.784037971372    12.000000000000
         H           -0.283485679483     0.298228264681    -0.970156971372     1.007825032230
         H            0.369875320517    -2.029936735319    -0.571950971372     1.007825032230
         H            1.156726320517     0.997304264681     1.612237028628     1.007825032230
         H            2.060540320517    -0.789232735319    -1.872674971372     1.007825032230
         H            1.916593320517     1.635714264681    -1.273501971372     1.007825032230
         H            3.295461320517    -0.095104735319     0.827727028628     1.007825032230
         H            0.521381320517    -1.888604735319     1.711591028628     1.007825032230
         H            0.665146320517     3.108738264681     0.683265028628     1.007825032230
         H            2.973149320517    -2.547946735319     0.094735028628     1.007825032230
         H            3.721035320517     2.548613264681    -0.058787971372     1.007825032230
         H            4.639333320517    -0.424406735319    -1.097005971372     1.007825032230
         H           -3.696256079483    -1.359203935319     1.711646428628     1.007825032230
         H           -3.930939679483     1.444968264681     0.249467028628     1.007825032230
         H           -2.230155679483     1.892307264681    -0.059014971372     1.007825032230
         H           -3.800914679483     3.130309264681    -1.602589971372     1.007825032230
         H           -2.717589679483     2.052750264681    -2.504793971372     1.007825032230
         H           -4.401337679483     1.573750264681    -2.212642971372     1.007825032230

  Basis Set: AUG-CC-PVTZ
    Blend: AUG-CC-PVTZ
  Basis Set: (AUG-CC-PVTZ AUX)
    Blend: AUG-CC-PVTZ-JKFIT
	 Reference Energy          =   -1327.8153948267920441 [Eh]
	 Singles Energy            =      -0.0000000000000000 [Eh]
	 Same-Spin Energy          =      -1.0124063654379321 [Eh]
	 Opposite-Spin Energy      =      -3.0713153331537710 [Eh]
	 Correlation Energy        =      -4.0837216985917033 [Eh]
	 Total Energy              =   -1331.8991165253837607 [Eh]

	 ================> DF-SCS-MP2 Energies <==================
	-----------------------------------------------------------
	 SCS Same-Spin Scale       =       0.3333333333333333 [-]
	 SCS Opposite-Spin Scale   =       1.2000000000000000 [-]
	 SCS Same-Spin Energy      =      -0.3374687884793107 [Eh]
	 SCS Opposite-Spin Energy  =      -3.6855783997845251 [Eh]
	 SCS Correlation Energy    =      -4.0230471882638357 [Eh]
	 SCS Total Energy          =   -1331.8384420150559890 [Eh]
	-----------------------------------------------------------

  Dipole Moment: [D]
     X:    -0.8695      Y:     2.0704      Z:     0.5760     Total:     2.3183

*** Psi4 exiting successfully. Buy a developer a beer!
