                               Psi4 1.3.2 release

  ==> Input File <==

--------------------------------------------------------------------------
#psi4
#
memory 32 gb

molecule  {
0 1
  P       -2.2900960    -0.9400430     0.3446780
  O       -0.9821530    -0.2015620     0.9382890
  O        1.3422500    -1.6754830     1.2308510
  O        0.0787050     2.3596040     0.4621680
  O        3.0685150    -2.1870720    -0.8085900
  O        2.8473350     2.5031130     0.3715350
  O        4.1956880     0.4353970    -0.9728740
  O       -2.8268630     0.0333510    -0.8075310
  O       -3.2591210    -0.7232820     1.6216710
  O       -2.1189930    -2.3436440    -0.0996680
  C        0.1181620     0.0300090     0.0163190
  C        0.9532920    -1.2442050    -0.0757250
  C        0.8985890     1.2026440     0.5648510
  C        2.2596600    -1.0143070    -0.8180370
  C        2.1770750     1.3964720    -0.2280410
  C        3.0242146     0.1475031    -0.2365841
  C       -3.1242130     1.4315980    -0.4888860
  C       -3.5363170     2.0851650    -1.7841190
  H       -0.2830920     0.2988010    -0.9702380
  H        0.3702690    -2.0293640    -0.5720320
  H        1.1571200     0.9978770     1.6121560
  H        2.0609340    -0.7886600    -1.8727560
  H        1.9269245     1.6208499    -1.2794184
  H        3.2958550    -0.0945320     0.8276460
  H        0.5217750    -1.8880320     1.7115100
  H        0.6655400     3.1093110     0.6831840
  H        2.9735430    -2.5473740     0.0946540
  H        3.7214290     2.5491860    -0.0588690
  H        4.6397270    -0.4238340    -1.0970870
  H       -3.8083950    -1.5223380     1.7347280
  H       -3.9305460     1.4455410     0.2493860
  H       -2.2297620     1.8928800    -0.0590960
  H       -3.8005210     3.1308820    -1.6026710
  H       -2.7171960     2.0533230    -2.5048750
  H       -4.4009440     1.5743230    -2.2127240
units angstrom
no_reorient  #important for SAPT in psi4, default
symmetry c1  #important for SAPT in psi4, default
}

set PROPERTIES_ORIGIN ["COM"]
properties('MP2/aug-cc-pvtz', properties = ['dipole'])
--------------------------------------------------------------------------

    Molecular point group: c1
  Charge       = 0
  Multiplicity = 1
  Basis Set: AUG-CC-PVTZ
    Blend: AUG-CC-PVTZ
  Basis Set: (AUG-CC-PVTZ AUX)
    Blend: AUG-CC-PVTZ-JKFIT

    Orbital Energies [Eh]
    ---------------------

    Doubly Occupied:

       1A    -80.116943     2A    -20.614720     3A    -20.607028
       4A    -20.598923     5A    -20.582899     6A    -20.577575
       7A    -20.575670     8A    -20.574792     9A    -20.573446
      10A    -20.523453    11A    -11.320779    12A    -11.303990
      13A    -11.299360    14A    -11.298909    15A    -11.298867
      16A    -11.296731    17A    -11.292040    18A    -11.229835
      19A     -7.632392    20A     -5.530899    21A     -5.530526
      22A     -5.529324    23A     -1.460278    24A     -1.411494
      25A     -1.396218    26A     -1.393128    27A     -1.386927
      28A     -1.374380    29A     -1.364099    30A     -1.355413
      31A     -1.303847    32A     -1.119576    33A     -1.040447
      34A     -1.012713    35A     -1.003803    36A     -0.880231
      37A     -0.864870    38A     -0.860246    39A     -0.821762
      40A     -0.809542    41A     -0.752061    42A     -0.745939
      43A     -0.731964    44A     -0.728493    45A     -0.708029
      46A     -0.687485    47A     -0.678492    48A     -0.674215
      49A     -0.663365    50A     -0.661184    51A     -0.643408
      52A     -0.635446    53A     -0.627345    54A     -0.615410
      55A     -0.603811    56A     -0.597727    57A     -0.582162
      58A     -0.575525    59A     -0.571171    60A     -0.559399
      61A     -0.557483    62A     -0.548532    63A     -0.541269
      64A     -0.537526    65A     -0.530029    66A     -0.521810
      67A     -0.513495    68A     -0.503354    69A     -0.497159
      70A     -0.484479    71A     -0.479854    72A     -0.476529
      73A     -0.462749    74A     -0.452546    75A     -0.450322
      76A     -0.436960

  @DF-RHF Final Energy: -1327.86057580374109

   => Energetics <=

    Nuclear Repulsion Energy =           1772.6025519882346089
    One-Electron Energy =               -5357.3166551279900887
    Two-Electron Energy =                2256.8535273360143947
    Total Energy =                      -1327.8605758037410851
  Basis Set: (AUG-CC-PVTZ AUX)
    Blend: AUG-CC-PVTZ-RI
    Molecular point group: c1

    Geometry (in Angstrom), charge = 0, multiplicity = 1:

       Center              X                  Y                   Z               Mass
    ------------   -----------------  -----------------  -----------------  -----------------
         P           -2.290062941043    -0.939938904739     0.345792429173    30.973761998420
         O           -0.982119941043    -0.201457904739     0.939403429173    15.994914619570
         O            1.342283058957    -1.675378904739     1.231965429173    15.994914619570
         O            0.078738058957     2.359708095261     0.463282429173    15.994914619570
         O            3.068548058957    -2.186967904739    -0.807475570827    15.994914619570
         O            2.847368058957     2.503217095261     0.372649429173    15.994914619570
         O            4.195721058957     0.435501095261    -0.971759570827    15.994914619570
         O           -2.826829941043     0.033455095261    -0.806416570827    15.994914619570
         O           -3.259087941043    -0.723177904739     1.622785429173    15.994914619570
         O           -2.118959941043    -2.343539904739    -0.098553570827    15.994914619570
         C            0.118195058957     0.030113095261     0.017433429173    12.000000000000
         C            0.953325058957    -1.244100904739    -0.074610570827    12.000000000000
         C            0.898622058957     1.202748095261     0.565965429173    12.000000000000
         C            2.259693058957    -1.014202904739    -0.816922570827    12.000000000000
         C            2.177108058957     1.396576095261    -0.226926570827    12.000000000000
         C            3.024247658957     0.147607195261    -0.235469670827    12.000000000000
         C           -3.124179941043     1.431702095261    -0.487771570827    12.000000000000
         C           -3.536283941043     2.085269095261    -1.783004570827    12.000000000000
         H           -0.283058941043     0.298905095261    -0.969123570827     1.007825032230
         H            0.370302058957    -2.029259904739    -0.570917570827     1.007825032230
         H            1.157153058957     0.997981095261     1.613270429173     1.007825032230
         H            2.060967058957    -0.788555904739    -1.871641570827     1.007825032230
         H            1.926957558957     1.620953995261    -1.278303970827     1.007825032230
         H            3.295888058957    -0.094427904739     0.828760429173     1.007825032230
         H            0.521808058957    -1.887927904739     1.712624429173     1.007825032230
         H            0.665573058957     3.109415095261     0.684298429173     1.007825032230
         H            2.973576058957    -2.547269904739     0.095768429173     1.007825032230
         H            3.721462058957     2.549290095261    -0.057754570827     1.007825032230
         H            4.639760058957    -0.423729904739    -1.095972570827     1.007825032230
         H           -3.808361941043    -1.522233904739     1.735842429173     1.007825032230
         H           -3.930512941043     1.445645095261     0.250500429173     1.007825032230
         H           -2.229728941043     1.892984095261    -0.057981570827     1.007825032230
         H           -3.800487941043     3.130986095261    -1.601556570827     1.007825032230
         H           -2.717162941043     2.053427095261    -2.503760570827     1.007825032230
         H           -4.400910941043     1.574427095261    -2.211609570827     1.007825032230

  Basis Set: AUG-CC-PVTZ
    Blend: AUG-CC-PVTZ
  Basis Set: (AUG-CC-PVTZ AUX)
    Blend: AUG-CC-PVTZ-JKFIT
	 Reference Energy          =   -1327.8605758037410851 [Eh]
	 Singles Energy            =      -0.0000000000000000 [Eh]
	 Same-Spin Energy          =      -1.0147251526902235 [Eh]
	 Opposite-Spin Energy      =      -3.0760714747386073 [Eh]
	 Correlation Energy        =      -4.0907966274288308 [Eh]
	 Total Energy              =   -1331.9513724311698297 [Eh]

	 ================> DF-SCS-MP2 Energies <==================
	-----------------------------------------------------------
	 SCS Same-Spin Scale       =       0.3333333333333333 [-]
	 SCS Opposite-Spin Scale   =       1.2000000000000000 [-]
	 SCS Same-Spin Energy      =      -0.3382417175634078 [Eh]
	 SCS Opposite-Spin Energy  =      -3.6912857696863286 [Eh]
	 SCS Correlation Energy    =      -4.0295274872497364 [Eh]
	 SCS Total Energy          =   -1331.8901032909907372 [Eh]
	-----------------------------------------------------------

  Dipole Moment: [D]
     X:    -1.0878      Y:     1.8718      Z:     0.6857     Total:     2.2709

*** Psi4 exiting successfully. Buy a developer a beer!
