                               Psi4 1.3.2 release

  ==> Input File <==

--------------------------------------------------------------------------
#psi4
#
memory 32 gb

molecule  {
0 1
  P       -2.2900960    -0.9400430     0.3446780
  O       -0.9821530    -0.2015620     0.9382890
  O        1.3422500    -1.6754830     1.2308510
  O        0.0787050     2.3596040     0.4621680
  O        3.0685150    -2.1870720    -0.8085900
  O        2.8274592     2.5173659     0.3669307
  O        4.1956880     0.4353970    -0.9728740
  O       -2.8268630     0.0333510    -0.8075310
  O       -3.2591210    -0.7232820     1.6216710
  O       -2.1189930    -2.3436440    -0.0996680
  C        0.1181620     0.0300090     0.0163190
  C        0.9532920    -1.2442050    -0.0757250
  C        0.8985890     1.2026440     0.5648510
  C        2.2596600    -1.0143070    -0.8180370
  C        2.1770750     1.3964720    -0.2280410
  C        3.0064303     0.1356074    -0.2223815
  C       -3.1242130     1.4315980    -0.4888860
  C       -3.5363170     2.0851650    -1.7841190
  H       -0.2830920     0.2988010    -0.9702380
  H        0.3702690    -2.0293640    -0.5720320
  H        1.1571200     0.9978770     1.6121560
  H        2.0609340    -0.7886600    -1.8727560
  H        1.9169870     1.6362870    -1.2735830
  H        3.2958550    -0.0945320     0.8276460
  H        0.5217750    -1.8880320     1.7115100
  H        0.6655400     3.1093110     0.6831840
  H        2.9735430    -2.5473740     0.0946540
  H        3.7214290     2.5491860    -0.0588690
  H        4.6397270    -0.4238340    -1.0970870
  H       -3.8083950    -1.5223380     1.7347280
  H       -3.9305460     1.4455410     0.2493860
  H       -2.2297620     1.8928800    -0.0590960
  H       -3.8005210     3.1308820    -1.6026710
  H       -2.7171960     2.0533230    -2.5048750
  H       -4.4009440     1.5743230    -2.2127240
units angstrom
no_reorient  #important for SAPT in psi4, default
symmetry c1  #important for SAPT in psi4, default
}

set PROPERTIES_ORIGIN ["COM"]
properties('MP2/aug-cc-pvtz', properties = ['dipole'])
--------------------------------------------------------------------------

    Molecular point group: c1
  Charge       = 0
  Multiplicity = 1
  Basis Set: AUG-CC-PVTZ
    Blend: AUG-CC-PVTZ
  Basis Set: (AUG-CC-PVTZ AUX)
    Blend: AUG-CC-PVTZ-JKFIT

    Orbital Energies [Eh]
    ---------------------

    Doubly Occupied:

       1A    -80.116992     2A    -20.614771     3A    -20.607088
       4A    -20.598945     5A    -20.583505     6A    -20.579628
       7A    -20.575525     8A    -20.573557     9A    -20.572850
      10A    -20.523530    11A    -11.320800    12A    -11.304249
      13A    -11.299744    14A    -11.299332    15A    -11.298211
      16A    -11.296996    17A    -11.292853    18A    -11.229813
      19A     -7.632444    20A     -5.530950    21A     -5.530576
      22A     -5.529375    23A     -1.460334    24A     -1.410876
      25A     -1.393487    26A     -1.393002    27A     -1.386832
      28A     -1.371662    29A     -1.363449    30A     -1.352079
      31A     -1.303924    32A     -1.121241    33A     -1.040457
      34A     -1.014075    35A     -1.004329    36A     -0.880536
      37A     -0.864942    38A     -0.859604    39A     -0.821748
      40A     -0.810717    41A     -0.751439    42A     -0.744955
      43A     -0.731460    44A     -0.728404    45A     -0.706933
      46A     -0.687246    47A     -0.678787    48A     -0.673416
      49A     -0.661310    50A     -0.661075    51A     -0.641654
      52A     -0.634178    53A     -0.627472    54A     -0.615864
      55A     -0.603723    56A     -0.597686    57A     -0.581559
      58A     -0.575574    59A     -0.571285    60A     -0.559614
      61A     -0.556611    62A     -0.548484    63A     -0.541364
      64A     -0.537137    65A     -0.529663    66A     -0.521462
      67A     -0.513104    68A     -0.503342    69A     -0.497000
      70A     -0.484610    71A     -0.479870    72A     -0.476719
      73A     -0.462051    74A     -0.455456    75A     -0.450497
      76A     -0.440737

  @DF-RHF Final Energy: -1327.85854178620139

   => Energetics <=

    Nuclear Repulsion Energy =           1772.7678219353451823
    One-Electron Energy =               -5357.6591881694466792
    Two-Electron Energy =                2257.0328244479001114
    Total Energy =                      -1327.8585417862013855
  Basis Set: (AUG-CC-PVTZ AUX)
    Blend: AUG-CC-PVTZ-RI
    Molecular point group: c1

    Geometry (in Angstrom), charge = 0, multiplicity = 1:

       Center              X                  Y                   Z               Mass
    ------------   -----------------  -----------------  -----------------  -----------------
         P           -2.288183691337    -0.940288773023     0.345436022474    30.973761998420
         O           -0.980240691337    -0.201807773023     0.939047022474    15.994914619570
         O            1.344162308663    -1.675728773023     1.231609022474    15.994914619570
         O            0.080617308663     2.359358226977     0.462926022474    15.994914619570
         O            3.070427308663    -2.187317773023    -0.807831977526    15.994914619570
         O            2.829371508663     2.517120126977     0.367688722474    15.994914619570
         O            4.197600308663     0.435151226977    -0.972115977526    15.994914619570
         O           -2.824950691337     0.033105226977    -0.806772977526    15.994914619570
         O           -3.257208691337    -0.723527773023     1.622429022474    15.994914619570
         O           -2.117080691337    -2.343889773023    -0.098909977526    15.994914619570
         C            0.120074308663     0.029763226977     0.017077022474    12.000000000000
         C            0.955204308663    -1.244450773023    -0.074966977526    12.000000000000
         C            0.900501308663     1.202398226977     0.565609022474    12.000000000000
         C            2.261572308663    -1.014552773023    -0.817278977526    12.000000000000
         C            2.178987308663     1.396226226977    -0.227282977526    12.000000000000
         C            3.008342608663     0.135361626977    -0.221623477526    12.000000000000
         C           -3.122300691337     1.431352226977    -0.488127977526    12.000000000000
         C           -3.534404691337     2.084919226977    -1.783360977526    12.000000000000
         H           -0.281179691337     0.298555226977    -0.969479977526     1.007825032230
         H            0.372181308663    -2.029609773023    -0.571273977526     1.007825032230
         H            1.159032308663     0.997631226977     1.612914022474     1.007825032230
         H            2.062846308663    -0.788905773023    -1.871997977526     1.007825032230
         H            1.918899308663     1.636041226977    -1.272824977526     1.007825032230
         H            3.297767308663    -0.094777773023     0.828404022474     1.007825032230
         H            0.523687308663    -1.888277773023     1.712268022474     1.007825032230
         H            0.667452308663     3.109065226977     0.683942022474     1.007825032230
         H            2.975455308663    -2.547619773023     0.095412022474     1.007825032230
         H            3.723341308663     2.548940226977    -0.058110977526     1.007825032230
         H            4.641639308663    -0.424079773023    -1.096328977526     1.007825032230
         H           -3.806482691337    -1.522583773023     1.735486022474     1.007825032230
         H           -3.928633691337     1.445295226977     0.250144022474     1.007825032230
         H           -2.227849691337     1.892634226977    -0.058337977526     1.007825032230
         H           -3.798608691337     3.130636226977    -1.601912977526     1.007825032230
         H           -2.715283691337     2.053077226977    -2.504116977526     1.007825032230
         H           -4.399031691337     1.574077226977    -2.211965977526     1.007825032230

  Basis Set: AUG-CC-PVTZ
    Blend: AUG-CC-PVTZ
  Basis Set: (AUG-CC-PVTZ AUX)
    Blend: AUG-CC-PVTZ-JKFIT
	 Reference Energy          =   -1327.8585417862013855 [Eh]
	 Singles Energy            =      -0.0000000000000000 [Eh]
	 Same-Spin Energy          =      -1.0151310234529554 [Eh]
	 Opposite-Spin Energy      =      -3.0771481674714489 [Eh]
	 Correlation Energy        =      -4.0922791909244047 [Eh]
	 Total Energy              =   -1331.9508209771258862 [Eh]

	 ================> DF-SCS-MP2 Energies <==================
	-----------------------------------------------------------
	 SCS Same-Spin Scale       =       0.3333333333333333 [-]
	 SCS Opposite-Spin Scale   =       1.2000000000000000 [-]
	 SCS Same-Spin Energy      =      -0.3383770078176518 [Eh]
	 SCS Opposite-Spin Energy  =      -3.6925778009657386 [Eh]
	 SCS Correlation Energy    =      -4.0309548087833900 [Eh]
	 SCS Total Energy          =   -1331.8894965949848483 [Eh]
	-----------------------------------------------------------

  Dipole Moment: [D]
     X:    -1.1095      Y:     1.8277      Z:     0.7403     Total:     2.2627

*** Psi4 exiting successfully. Buy a developer a beer!
