                               Psi4 1.3.2 release

  ==> Input File <==

--------------------------------------------------------------------------
#psi4
#
memory 32 gb

molecule  {
0 1
  P       -2.2900960    -0.9400430     0.3446780
  O       -0.9821530    -0.2015620     0.9382890
  O        1.3422500    -1.6754830     1.2308510
  O        0.0787050     2.3596040     0.4621680
  O        3.0685150    -2.1870720    -0.8085900
  O        2.7910357     2.5082780     0.4202906
  O        4.1956880     0.4353970    -0.9728740
  O       -2.8268630     0.0333510    -0.8075310
  O       -3.2591210    -0.7232820     1.6216710
  O       -2.1189930    -2.3436440    -0.0996680
  C        0.1181620     0.0300090     0.0163190
  C        0.9532920    -1.2442050    -0.0757250
  C        0.9199774     1.2640904     0.6103827
  C        2.2596600    -1.0143070    -0.8180370
  C        2.1770750     1.3964720    -0.2280410
  C        3.0258420     0.1487050    -0.2103220
  C       -3.1242130     1.4315980    -0.4888860
  C       -3.5363170     2.0851650    -1.7841190
  H       -0.2830920     0.2988010    -0.9702380
  H        0.3702690    -2.0293640    -0.5720320
  H        1.1571200     0.9978770     1.6121560
  H        2.0609340    -0.7886600    -1.8727560
  H        1.9169870     1.6362870    -1.2735830
  H        3.2958550    -0.0945320     0.8276460
  H        0.5217750    -1.8880320     1.7115100
  H        0.6655400     3.1093110     0.6831840
  H        2.9735430    -2.5473740     0.0946540
  H        3.7214290     2.5491860    -0.0588690
  H        4.6397270    -0.4238340    -1.0970870
  H       -3.8083950    -1.5223380     1.7347280
  H       -3.9305460     1.4455410     0.2493860
  H       -2.2297620     1.8928800    -0.0590960
  H       -3.8005210     3.1308820    -1.6026710
  H       -2.7171960     2.0533230    -2.5048750
  H       -4.4009440     1.5743230    -2.2127240
units angstrom
no_reorient  #important for SAPT in psi4, default
symmetry c1  #important for SAPT in psi4, default
}

set PROPERTIES_ORIGIN ["COM"]
properties('MP2/aug-cc-pvtz', properties = ['dipole'])
--------------------------------------------------------------------------

    Molecular point group: c1
  Charge       = 0
  Multiplicity = 1
  Basis Set: AUG-CC-PVTZ
    Blend: AUG-CC-PVTZ
  Basis Set: (AUG-CC-PVTZ AUX)
    Blend: AUG-CC-PVTZ-JKFIT

    Orbital Energies [Eh]
    ---------------------

    Doubly Occupied:

       1A    -80.115122     2A    -20.613442     3A    -20.603997
       4A    -20.597853     5A    -20.583810     6A    -20.581527
       7A    -20.577532     8A    -20.575456     9A    -20.574205
      10A    -20.521942    11A    -11.317772    12A    -11.301044
      13A    -11.299047    14A    -11.298835    15A    -11.296373
      16A    -11.294642    17A    -11.292355    18A    -11.229612
      19A     -7.630596    20A     -5.529103    21A     -5.528715
      22A     -5.527530    23A     -1.458154    24A     -1.411114
      25A     -1.397918    26A     -1.392142    27A     -1.385848
      28A     -1.374938    29A     -1.362410    30A     -1.351828
      31A     -1.302328    32A     -1.109825    33A     -1.039973
      34A     -1.005279    35A     -0.997997    36A     -0.878319
      37A     -0.864275    38A     -0.857848    39A     -0.818504
      40A     -0.810600    41A     -0.752008    42A     -0.744335
      43A     -0.731211    44A     -0.725787    45A     -0.700217
      46A     -0.690296    47A     -0.676778    48A     -0.673120
      49A     -0.664848    50A     -0.657579    51A     -0.638135
      52A     -0.633050    53A     -0.626243    54A     -0.614968
      55A     -0.604745    56A     -0.599604    57A     -0.581583
      58A     -0.574800    59A     -0.570361    60A     -0.560855
      61A     -0.557563    62A     -0.547406    63A     -0.540918
      64A     -0.538687    65A     -0.528972    66A     -0.515332
      67A     -0.512684    68A     -0.503731    69A     -0.492990
      70A     -0.482206    71A     -0.477911    72A     -0.475294
      73A     -0.460484    74A     -0.456869    75A     -0.447318
      76A     -0.433409

  @DF-RHF Final Energy: -1327.84396583410717

   => Energetics <=

    Nuclear Repulsion Energy =           1771.5677646252065642
    One-Electron Energy =               -5355.4192456817372658
    Two-Electron Energy =                2256.0075152224235353
    Total Energy =                      -1327.8439658341071663
  Basis Set: (AUG-CC-PVTZ AUX)
    Blend: AUG-CC-PVTZ-RI
    Molecular point group: c1

    Geometry (in Angstrom), charge = 0, multiplicity = 1:

       Center              X                  Y                   Z               Mass
    ------------   -----------------  -----------------  -----------------  -----------------
         P           -2.287860879272    -0.942889499139     0.340074028515    30.973761998420
         O           -0.979917879272    -0.204408499139     0.933685028515    15.994914619570
         O            1.344485120728    -1.678329499139     1.226247028515    15.994914619570
         O            0.080940120728     2.356757500861     0.457564028515    15.994914619570
         O            3.070750120728    -2.189918499139    -0.813193971485    15.994914619570
         O            2.793270820728     2.505431500861     0.415686628515    15.994914619570
         O            4.197923120728     0.432550500861    -0.977477971485    15.994914619570
         O           -2.824627879272     0.030504500861    -0.812134971485    15.994914619570
         O           -3.256885879272    -0.726128499139     1.617067028515    15.994914619570
         O           -2.116757879272    -2.346490499139    -0.104271971485    15.994914619570
         C            0.120397120728     0.027162500861     0.011715028515    12.000000000000
         C            0.955527120728    -1.247051499139    -0.080328971485    12.000000000000
         C            0.922212520728     1.261243900861     0.605778728515    12.000000000000
         C            2.261895120728    -1.017153499139    -0.822640971485    12.000000000000
         C            2.179310120728     1.393625500861    -0.232644971485    12.000000000000
         C            3.028077120728     0.145858500861    -0.214925971485    12.000000000000
         C           -3.121977879272     1.428751500861    -0.493489971485    12.000000000000
         C           -3.534081879272     2.082318500861    -1.788722971485    12.000000000000
         H           -0.280856879272     0.295954500861    -0.974841971485     1.007825032230
         H            0.372504120728    -2.032210499139    -0.576635971485     1.007825032230
         H            1.159355120728     0.995030500861     1.607552028515     1.007825032230
         H            2.063169120728    -0.791506499139    -1.877359971485     1.007825032230
         H            1.919222120728     1.633440500861    -1.278186971485     1.007825032230
         H            3.298090120728    -0.097378499139     0.823042028515     1.007825032230
         H            0.524010120728    -1.890878499139     1.706906028515     1.007825032230
         H            0.667775120728     3.106464500861     0.678580028515     1.007825032230
         H            2.975778120728    -2.550220499139     0.090050028515     1.007825032230
         H            3.723664120728     2.546339500861    -0.063472971485     1.007825032230
         H            4.641962120728    -0.426680499139    -1.101690971485     1.007825032230
         H           -3.806159879272    -1.525184499139     1.730124028515     1.007825032230
         H           -3.928310879272     1.442694500861     0.244782028515     1.007825032230
         H           -2.227526879272     1.890033500861    -0.063699971485     1.007825032230
         H           -3.798285879272     3.128035500861    -1.607274971485     1.007825032230
         H           -2.714960879272     2.050476500861    -2.509478971485     1.007825032230
         H           -4.398708879272     1.571476500861    -2.217327971485     1.007825032230

  Basis Set: AUG-CC-PVTZ
    Blend: AUG-CC-PVTZ
  Basis Set: (AUG-CC-PVTZ AUX)
    Blend: AUG-CC-PVTZ-JKFIT
	 Reference Energy          =   -1327.8439658341071663 [Eh]
	 Singles Energy            =      -0.0000000000000000 [Eh]
	 Same-Spin Energy          =      -1.0158468409050243 [Eh]
	 Opposite-Spin Energy      =      -3.0791391020321894 [Eh]
	 Correlation Energy        =      -4.0949859429372140 [Eh]
	 Total Energy              =   -1331.9389517770443945 [Eh]

	 ================> DF-SCS-MP2 Energies <==================
	-----------------------------------------------------------
	 SCS Same-Spin Scale       =       0.3333333333333333 [-]
	 SCS Opposite-Spin Scale   =       1.2000000000000000 [-]
	 SCS Same-Spin Energy      =      -0.3386156136350081 [Eh]
	 SCS Opposite-Spin Energy  =      -3.6949669224386272 [Eh]
	 SCS Correlation Energy    =      -4.0335825360736353 [Eh]
	 SCS Total Energy          =   -1331.8775483701808753 [Eh]
	-----------------------------------------------------------

  Dipole Moment: [D]
     X:    -0.9996      Y:     2.0366      Z:     0.6983     Total:     2.3737

*** Psi4 exiting successfully. Buy a developer a beer!
