                               Psi4 1.3.2 release

  ==> Input File <==

--------------------------------------------------------------------------
#psi4
#
memory 32 gb

molecule  {
0 1
  P       -2.2646357    -0.9426074     0.2944467
  O       -0.9821530    -0.2015620     0.9382890
  O        1.3422500    -1.6754830     1.2308510
  O        0.0787050     2.3596040     0.4621680
  O        3.0685150    -2.1870720    -0.8085900
  O        2.8473350     2.5031130     0.3715350
  O        4.1956880     0.4353970    -0.9728740
  O       -2.8268630     0.0333510    -0.8075310
  O       -3.2591210    -0.7232820     1.6216710
  O       -2.1189930    -2.3436440    -0.0996680
  C        0.0908948     0.0079486    -0.0203667
  C        0.9532920    -1.2442050    -0.0757250
  C        0.8985890     1.2026440     0.5648510
  C        2.2596600    -1.0143070    -0.8180370
  C        2.1770750     1.3964720    -0.2280410
  C        3.0258420     0.1487050    -0.2103220
  C       -3.1242130     1.4315980    -0.4888860
  C       -3.5363170     2.0851650    -1.7841190
  H       -0.2830920     0.2988010    -0.9702380
  H        0.3702690    -2.0293640    -0.5720320
  H        1.1571200     0.9978770     1.6121560
  H        2.0609340    -0.7886600    -1.8727560
  H        1.9169870     1.6362870    -1.2735830
  H        3.2958550    -0.0945320     0.8276460
  H        0.5217750    -1.8880320     1.7115100
  H        0.6655400     3.1093110     0.6831840
  H        2.9735430    -2.5473740     0.0946540
  H        3.7214290     2.5491860    -0.0588690
  H        4.6397270    -0.4238340    -1.0970870
  H       -3.8083950    -1.5223380     1.7347280
  H       -3.9305460     1.4455410     0.2493860
  H       -2.2297620     1.8928800    -0.0590960
  H       -3.8005210     3.1308820    -1.6026710
  H       -2.7171960     2.0533230    -2.5048750
  H       -4.4009440     1.5743230    -2.2127240
units angstrom
no_reorient  #important for SAPT in psi4, default
symmetry c1  #important for SAPT in psi4, default
}

set PROPERTIES_ORIGIN ["COM"]
properties('MP2/aug-cc-pvtz', properties = ['dipole'])
--------------------------------------------------------------------------

    Molecular point group: c1
  Charge       = 0
  Multiplicity = 1
  Basis Set: AUG-CC-PVTZ
    Blend: AUG-CC-PVTZ
  Basis Set: (AUG-CC-PVTZ AUX)
    Blend: AUG-CC-PVTZ-JKFIT

    Orbital Energies [Eh]
    ---------------------

    Doubly Occupied:

       1A    -80.115391     2A    -20.611128     3A    -20.604874
       4A    -20.598418     5A    -20.585300     6A    -20.576901
       7A    -20.575522     8A    -20.574608     9A    -20.573695
      10A    -20.527563    11A    -11.320961    12A    -11.304905
      13A    -11.303379    14A    -11.300854    15A    -11.300726
      16A    -11.296430    17A    -11.291977    18A    -11.232392
      19A     -7.631510    20A     -5.529873    21A     -5.529556
      22A     -5.528553    23A     -1.460559    24A     -1.411454
      25A     -1.396679    26A     -1.393663    27A     -1.377508
      28A     -1.368765    29A     -1.364450    30A     -1.354254
      31A     -1.314821    32A     -1.117244    33A     -1.045370
      34A     -1.013149    35A     -1.001312    36A     -0.880051
      37A     -0.869028    38A     -0.858914    39A     -0.817508
      40A     -0.813941    41A     -0.751954    42A     -0.746019
      43A     -0.731901    44A     -0.728684    45A     -0.702847
      46A     -0.688337    47A     -0.679070    48A     -0.673958
      49A     -0.662067    50A     -0.655786    51A     -0.640833
      52A     -0.635516    53A     -0.627764    54A     -0.618494
      55A     -0.603980    56A     -0.598298    57A     -0.581546
      58A     -0.574579    59A     -0.569371    60A     -0.560970
      61A     -0.557356    62A     -0.551734    63A     -0.541626
      64A     -0.536880    65A     -0.530668    66A     -0.522076
      67A     -0.515231    68A     -0.506685    69A     -0.498535
      70A     -0.489744    71A     -0.484974    72A     -0.481796
      73A     -0.462646    74A     -0.456311    75A     -0.450156
      76A     -0.436329

  @DF-RHF Final Energy: -1327.85475316584893

   => Energetics <=

    Nuclear Repulsion Energy =           1773.0784632264906122
    One-Electron Energy =               -5358.2106169600901922
    Two-Electron Energy =                2257.2774005677511013
    Total Energy =                      -1327.8547531658487060
  Basis Set: (AUG-CC-PVTZ AUX)
    Blend: AUG-CC-PVTZ-RI
    Molecular point group: c1

    Geometry (in Angstrom), charge = 0, multiplicity = 1:

       Center              X                  Y                   Z               Mass
    ------------   -----------------  -----------------  -----------------  -----------------
         P           -2.266237393335    -0.941412656582     0.301376058503    30.973761998420
         O           -0.983754693335    -0.200367256582     0.945218358503    15.994914619570
         O            1.340648306665    -1.674288256582     1.237780358503    15.994914619570
         O            0.077103306665     2.360798743418     0.469097358503    15.994914619570
         O            3.066913306665    -2.185877256582    -0.801660641497    15.994914619570
         O            2.845733306665     2.504307743418     0.378464358503    15.994914619570
         O            4.194086306665     0.436591743418    -0.965944641497    15.994914619570
         O           -2.828464693335     0.034545743418    -0.800601641497    15.994914619570
         O           -3.260722693335    -0.722087256582     1.628600358503    15.994914619570
         O           -2.120594693335    -2.342449256582    -0.092738641497    15.994914619570
         C            0.089293106665     0.009143343418    -0.013437341497    12.000000000000
         C            0.951690306665    -1.243010256582    -0.068795641497    12.000000000000
         C            0.896987306665     1.203838743418     0.571780358503    12.000000000000
         C            2.258058306665    -1.013112256582    -0.811107641497    12.000000000000
         C            2.175473306665     1.397666743418    -0.221111641497    12.000000000000
         C            3.024240306665     0.149899743418    -0.203392641497    12.000000000000
         C           -3.125814693335     1.432792743418    -0.481956641497    12.000000000000
         C           -3.537918693335     2.086359743418    -1.777189641497    12.000000000000
         H           -0.284693693335     0.299995743418    -0.963308641497     1.007825032230
         H            0.368667306665    -2.028169256582    -0.565102641497     1.007825032230
         H            1.155518306665     0.999071743418     1.619085358503     1.007825032230
         H            2.059332306665    -0.787465256582    -1.865826641497     1.007825032230
         H            1.915385306665     1.637481743418    -1.266653641497     1.007825032230
         H            3.294253306665    -0.093337256582     0.834575358503     1.007825032230
         H            0.520173306665    -1.886837256582     1.718439358503     1.007825032230
         H            0.663938306665     3.110505743418     0.690113358503     1.007825032230
         H            2.971941306665    -2.546179256582     0.101583358503     1.007825032230
         H            3.719827306665     2.550380743418    -0.051939641497     1.007825032230
         H            4.638125306665    -0.422639256582    -1.090157641497     1.007825032230
         H           -3.809996693335    -1.521143256582     1.741657358503     1.007825032230
         H           -3.932147693335     1.446735743418     0.256315358503     1.007825032230
         H           -2.231363693335     1.894074743418    -0.052166641497     1.007825032230
         H           -3.802122693335     3.132076743418    -1.595741641497     1.007825032230
         H           -2.718797693335     2.054517743418    -2.497945641497     1.007825032230
         H           -4.402545693335     1.575517743418    -2.205794641497     1.007825032230

  Basis Set: AUG-CC-PVTZ
    Blend: AUG-CC-PVTZ
  Basis Set: (AUG-CC-PVTZ AUX)
    Blend: AUG-CC-PVTZ-JKFIT
	 Reference Energy          =   -1327.8547531658489333 [Eh]
	 Singles Energy            =      -0.0000000000000000 [Eh]
	 Same-Spin Energy          =      -1.0145491021725312 [Eh]
	 Opposite-Spin Energy      =      -3.0765676214520776 [Eh]
	 Correlation Energy        =      -4.0911167236246087 [Eh]
	 Total Energy              =   -1331.9458698894734425 [Eh]

	 ================> DF-SCS-MP2 Energies <==================
	-----------------------------------------------------------
	 SCS Same-Spin Scale       =       0.3333333333333333 [-]
	 SCS Opposite-Spin Scale   =       1.2000000000000000 [-]
	 SCS Same-Spin Energy      =      -0.3381830340575104 [Eh]
	 SCS Opposite-Spin Energy  =      -3.6918811457424932 [Eh]
	 SCS Correlation Energy    =      -4.0300641798000036 [Eh]
	 SCS Total Energy          =   -1331.8848173456490258 [Eh]
	-----------------------------------------------------------

  Dipole Moment: [D]
     X:    -0.8989      Y:     1.9182      Z:     0.2245     Total:     2.1302

*** Psi4 exiting successfully. Buy a developer a beer!
