                               Psi4 1.3.2 release

  ==> Input File <==

--------------------------------------------------------------------------
#psi4
#
memory 32 gb

molecule  {
0 1
  P       -2.2900960    -0.9400430     0.3446780
  O       -0.9821530    -0.2015620     0.9382890
  O        1.3422500    -1.6754830     1.2308510
  O        0.0787050     2.3596040     0.4621680
  O        3.0685150    -2.1870720    -0.8085900
  O        2.8473350     2.5031130     0.3715350
  O        4.1956880     0.4353970    -0.9728740
  O       -2.8268630     0.0333510    -0.8075310
  O       -3.2591210    -0.7232820     1.6216710
  O       -2.1189930    -2.3436440    -0.0996680
  C        0.1181620     0.0300090     0.0163190
  C        0.9532920    -1.2442050    -0.0757250
  C        0.8985890     1.2026440     0.5648510
  C        2.2596600    -1.0143070    -0.8180370
  C        2.1788459     1.3977713    -0.2017928
  C        3.0258420     0.1487050    -0.2103220
  C       -3.1242130     1.4315980    -0.4888860
  C       -3.5363170     2.0851650    -1.7841190
  H       -0.2830920     0.2988010    -0.9702380
  H        0.3702690    -2.0293640    -0.5720320
  H        1.1571200     0.9978770     1.6121560
  H        2.0609340    -0.7886600    -1.8727560
  H        1.9169870     1.6362870    -1.2735830
  H        3.2860291    -0.0791662     0.8336254
  H        0.5217750    -1.8880320     1.7115100
  H        0.6655400     3.1093110     0.6831840
  H        2.9735430    -2.5473740     0.0946540
  H        3.7214290     2.5491860    -0.0588690
  H        4.6397270    -0.4238340    -1.0970870
  H       -3.8083950    -1.5223380     1.7347280
  H       -3.9305460     1.4455410     0.2493860
  H       -2.2297620     1.8928800    -0.0590960
  H       -3.8005210     3.1308820    -1.6026710
  H       -2.7171960     2.0533230    -2.5048750
  H       -4.4009440     1.5743230    -2.2127240
units angstrom
no_reorient  #important for SAPT in psi4, default
symmetry c1  #important for SAPT in psi4, default
}

set PROPERTIES_ORIGIN ["COM"]
properties('MP2/aug-cc-pvtz', properties = ['dipole'])
--------------------------------------------------------------------------

    Molecular point group: c1
  Charge       = 0
  Multiplicity = 1
  Basis Set: AUG-CC-PVTZ
    Blend: AUG-CC-PVTZ
  Basis Set: (AUG-CC-PVTZ AUX)
    Blend: AUG-CC-PVTZ-JKFIT

    Orbital Energies [Eh]
    ---------------------

    Doubly Occupied:

       1A    -80.117022     2A    -20.614789     3A    -20.607218
       4A    -20.598946     5A    -20.583116     6A    -20.578056
       7A    -20.574711     8A    -20.574597     9A    -20.573749
      10A    -20.523475    11A    -11.321156    12A    -11.303558
      13A    -11.299598    14A    -11.299374    15A    -11.298351
      16A    -11.297426    17A    -11.291433    18A    -11.229800
      19A     -7.632469    20A     -5.530975    21A     -5.530604
      22A     -5.529399    23A     -1.460375    24A     -1.411472
      25A     -1.396720    26A     -1.393447    27A     -1.386887
      28A     -1.373024    29A     -1.365171    30A     -1.355040
      31A     -1.303871    32A     -1.119554    33A     -1.040424
      34A     -1.011916    35A     -1.004606    36A     -0.881014
      37A     -0.865132    38A     -0.858994    39A     -0.822558
      40A     -0.809421    41A     -0.751849    42A     -0.745437
      43A     -0.731226    44A     -0.728679    45A     -0.709421
      46A     -0.686815    47A     -0.678144    48A     -0.673712
      49A     -0.664147    50A     -0.661849    51A     -0.644477
      52A     -0.635422    53A     -0.627121    54A     -0.615228
      55A     -0.604314    56A     -0.598184    57A     -0.581652
      58A     -0.575612    59A     -0.571286    60A     -0.559501
      61A     -0.556847    62A     -0.548665    63A     -0.541122
      64A     -0.536563    65A     -0.529894    66A     -0.522657
      67A     -0.512823    68A     -0.504485    69A     -0.497482
      70A     -0.485256    71A     -0.479889    72A     -0.476675
      73A     -0.462277    74A     -0.453122    75A     -0.448346
      76A     -0.437209

  @DF-RHF Final Energy: -1327.86072942777059

   => Energetics <=

    Nuclear Repulsion Energy =           1772.6650591259931389
    One-Electron Energy =               -5357.4379091604887435
    Two-Electron Energy =                2256.9121206067252388
    Total Energy =                      -1327.8607294277703659
  Basis Set: (AUG-CC-PVTZ AUX)
    Blend: AUG-CC-PVTZ-RI
    Molecular point group: c1

    Geometry (in Angstrom), charge = 0, multiplicity = 1:

       Center              X                  Y                   Z               Mass
    ------------   -----------------  -----------------  -----------------  -----------------
         P           -2.290135361639    -0.940150867933     0.343563627605    30.973761998420
         O           -0.982192361639    -0.201669867933     0.937174627605    15.994914619570
         O            1.342210638361    -1.675590867933     1.229736627605    15.994914619570
         O            0.078665638361     2.359496132067     0.461053627605    15.994914619570
         O            3.068475638361    -2.187179867933    -0.809704372395    15.994914619570
         O            2.847295638361     2.503005132067     0.370420627605    15.994914619570
         O            4.195648638361     0.435289132067    -0.973988372395    15.994914619570
         O           -2.826902361639     0.033243132067    -0.808645372395    15.994914619570
         O           -3.259160361639    -0.723389867933     1.620556627605    15.994914619570
         O           -2.119032361639    -2.343751867933    -0.100782372395    15.994914619570
         C            0.118122638361     0.029901132067     0.015204627605    12.000000000000
         C            0.953252638361    -1.244312867933    -0.076839372395    12.000000000000
         C            0.898549638361     1.202536132067     0.563736627605    12.000000000000
         C            2.259620638361    -1.014414867933    -0.819151372395    12.000000000000
         C            2.178806538361     1.397663432067    -0.202907172395    12.000000000000
         C            3.025802638361     0.148597132067    -0.211436372395    12.000000000000
         C           -3.124252361639     1.431490132067    -0.490000372395    12.000000000000
         C           -3.536356361639     2.085057132067    -1.785233372395    12.000000000000
         H           -0.283131361639     0.298693132067    -0.971352372395     1.007825032230
         H            0.370229638361    -2.029471867933    -0.573146372395     1.007825032230
         H            1.157080638361     0.997769132067     1.611041627605     1.007825032230
         H            2.060894638361    -0.788767867933    -1.873870372395     1.007825032230
         H            1.916947638361     1.636179132067    -1.274697372395     1.007825032230
         H            3.285989738361    -0.079274067933     0.832511027605     1.007825032230
         H            0.521735638361    -1.888139867933     1.710395627605     1.007825032230
         H            0.665500638361     3.109203132067     0.682069627605     1.007825032230
         H            2.973503638361    -2.547481867933     0.093539627605     1.007825032230
         H            3.721389638361     2.549078132067    -0.059983372395     1.007825032230
         H            4.639687638361    -0.423941867933    -1.098201372395     1.007825032230
         H           -3.808434361639    -1.522445867933     1.733613627605     1.007825032230
         H           -3.930585361639     1.445433132067     0.248271627605     1.007825032230
         H           -2.229801361639     1.892772132067    -0.060210372395     1.007825032230
         H           -3.800560361639     3.130774132067    -1.603785372395     1.007825032230
         H           -2.717235361639     2.053215132067    -2.505989372395     1.007825032230
         H           -4.400983361639     1.574215132067    -2.213838372395     1.007825032230

  Basis Set: AUG-CC-PVTZ
    Blend: AUG-CC-PVTZ
  Basis Set: (AUG-CC-PVTZ AUX)
    Blend: AUG-CC-PVTZ-JKFIT
	 Reference Energy          =   -1327.8607294277705932 [Eh]
	 Singles Energy            =      -0.0000000000000000 [Eh]
	 Same-Spin Energy          =      -1.0146799625668426 [Eh]
	 Opposite-Spin Energy      =      -3.0759786490686278 [Eh]
	 Correlation Energy        =      -4.0906586116354706 [Eh]
	 Total Energy              =   -1331.9513880394060834 [Eh]

	 ================> DF-SCS-MP2 Energies <==================
	-----------------------------------------------------------
	 SCS Same-Spin Scale       =       0.3333333333333333 [-]
	 SCS Opposite-Spin Scale   =       1.2000000000000000 [-]
	 SCS Same-Spin Energy      =      -0.3382266541889475 [Eh]
	 SCS Opposite-Spin Energy  =      -3.6911743788823532 [Eh]
	 SCS Correlation Energy    =      -4.0294010330713004 [Eh]
	 SCS Total Energy          =   -1331.8901304608418741 [Eh]
	-----------------------------------------------------------

  Dipole Moment: [D]
     X:    -1.0941      Y:     1.8811      Z:     0.7580     Total:     2.3044

*** Psi4 exiting successfully. Buy a developer a beer!
