                               Psi4 1.3.2 release

  ==> Input File <==

--------------------------------------------------------------------------
#psi4
#
memory 32 gb

molecule  {
0 1
  P       -2.2900960    -0.9400430     0.3446780
  O       -0.9821530    -0.2015620     0.9382890
  O        1.3422500    -1.6754830     1.2308510
  O        0.0787050     2.3596040     0.4621680
  O        3.0685150    -2.1870720    -0.8085900
  O        2.8473350     2.5031130     0.3715350
  O        4.1956880     0.4353970    -0.9728740
  O       -2.8268630     0.0333510    -0.8075310
  O       -3.2591210    -0.7232820     1.6216710
  O       -2.1189930    -2.3436440    -0.0996680
  C        0.1181620     0.0300090     0.0163190
  C        0.9532920    -1.2442050    -0.0757250
  C        0.8985890     1.2026440     0.5648510
  C        2.2725787    -1.0068334    -0.8654727
  C        2.1770750     1.3964720    -0.2280410
  C        3.0258420     0.1487050    -0.2103220
  C       -3.1242130     1.4315980    -0.4888860
  C       -3.5363170     2.0851650    -1.7841190
  H       -0.2830920     0.2988010    -0.9702380
  H        0.3702690    -2.0293640    -0.5720320
  H        1.1571200     0.9978770     1.6121560
  H        2.0609340    -0.7886600    -1.8727560
  H        1.9169870     1.6362870    -1.2735830
  H        3.2958550    -0.0945320     0.8276460
  H        0.5217750    -1.8880320     1.7115100
  H        0.6655400     3.1093110     0.6831840
  H        2.9944921    -2.5728712     0.0860421
  H        3.7214290     2.5491860    -0.0588690
  H        4.6397270    -0.4238340    -1.0970870
  H       -3.8083950    -1.5223380     1.7347280
  H       -3.9305460     1.4455410     0.2493860
  H       -2.2297620     1.8928800    -0.0590960
  H       -3.8005210     3.1308820    -1.6026710
  H       -2.7171960     2.0533230    -2.5048750
  H       -4.4009440     1.5743230    -2.2127240
units angstrom
no_reorient  #important for SAPT in psi4, default
symmetry c1  #important for SAPT in psi4, default
}

set PROPERTIES_ORIGIN ["COM"]
properties('MP2/aug-cc-pvtz', properties = ['dipole'])
--------------------------------------------------------------------------

    Molecular point group: c1
  Charge       = 0
  Multiplicity = 1
  Basis Set: AUG-CC-PVTZ
    Blend: AUG-CC-PVTZ
  Basis Set: (AUG-CC-PVTZ AUX)
    Blend: AUG-CC-PVTZ-JKFIT

    Orbital Energies [Eh]
    ---------------------

    Doubly Occupied:

       1A    -80.116307     2A    -20.614225     3A    -20.605961
       4A    -20.598487     5A    -20.582213     6A    -20.576856
       7A    -20.573076     8A    -20.572876     9A    -20.572685
      10A    -20.522779    11A    -11.319485    12A    -11.303448
      13A    -11.299169    14A    -11.299056    15A    -11.298096
      16A    -11.296521    17A    -11.291533    18A    -11.229658
      19A     -7.631754    20A     -5.530261    21A     -5.529887
      22A     -5.528686    23A     -1.459560    24A     -1.409107
      25A     -1.394213    26A     -1.391248    27A     -1.386365
      28A     -1.371872    29A     -1.362925    30A     -1.352869
      31A     -1.303185    32A     -1.116349    33A     -1.040163
      34A     -1.011158    35A     -1.000407    36A     -0.878353
      37A     -0.863961    38A     -0.862390    39A     -0.822889
      40A     -0.811127    41A     -0.749418    42A     -0.743938
      43A     -0.730179    44A     -0.727794    45A     -0.707423
      46A     -0.686742    47A     -0.678843    48A     -0.672778
      49A     -0.663557    50A     -0.661332    51A     -0.642159
      52A     -0.635087    53A     -0.626211    54A     -0.614918
      55A     -0.604643    56A     -0.600021    57A     -0.581907
      58A     -0.575553    59A     -0.569719    60A     -0.559617
      61A     -0.557410    62A     -0.548165    63A     -0.541021
      64A     -0.537030    65A     -0.529691    66A     -0.521183
      67A     -0.512397    68A     -0.502636    69A     -0.496172
      70A     -0.482684    71A     -0.479163    72A     -0.475909
      73A     -0.461143    74A     -0.455461    75A     -0.448705
      76A     -0.433261

  @DF-RHF Final Energy: -1327.85953147585201

   => Energetics <=

    Nuclear Repulsion Energy =           1771.5197245717463375
    One-Electron Energy =               -5355.2684523469633859
    Two-Electron Energy =                2255.8891962993652669
    Total Energy =                      -1327.8595314758517816
  Basis Set: (AUG-CC-PVTZ AUX)
    Blend: AUG-CC-PVTZ-RI
    Molecular point group: c1

    Geometry (in Angstrom), charge = 0, multiplicity = 1:

       Center              X                  Y                   Z               Mass
    ------------   -----------------  -----------------  -----------------  -----------------
         P           -2.290707425904    -0.940265110553     0.346684189631    30.973761998420
         O           -0.982764425904    -0.201784110553     0.940295189631    15.994914619570
         O            1.341638574096    -1.675705110553     1.232857189631    15.994914619570
         O            0.078093574096     2.359381889447     0.464174189631    15.994914619570
         O            3.067903574096    -2.187294110553    -0.806583810369    15.994914619570
         O            2.846723574096     2.502890889447     0.373541189631    15.994914619570
         O            4.195076574096     0.435174889447    -0.970867810369    15.994914619570
         O           -2.827474425904     0.033128889447    -0.805524810369    15.994914619570
         O           -3.259732425904    -0.723504110553     1.623677189631    15.994914619570
         O           -2.119604425904    -2.343866110553    -0.097661810369    15.994914619570
         C            0.117550574096     0.029786889447     0.018325189631    12.000000000000
         C            0.952680574096    -1.244427110553    -0.073718810369    12.000000000000
         C            0.897977574096     1.202421889447     0.566857189631    12.000000000000
         C            2.271967274096    -1.007055510553    -0.863466510369    12.000000000000
         C            2.176463574096     1.396249889447    -0.226034810369    12.000000000000
         C            3.025230574096     0.148482889447    -0.208315810369    12.000000000000
         C           -3.124824425904     1.431375889447    -0.486879810369    12.000000000000
         C           -3.536928425904     2.084942889447    -1.782112810369    12.000000000000
         H           -0.283703425904     0.298578889447    -0.968231810369     1.007825032230
         H            0.369657574096    -2.029586110553    -0.570025810369     1.007825032230
         H            1.156508574096     0.997654889447     1.614162189631     1.007825032230
         H            2.060322574096    -0.788882110553    -1.870749810369     1.007825032230
         H            1.916375574096     1.636064889447    -1.271576810369     1.007825032230
         H            3.295243574096    -0.094754110553     0.829652189631     1.007825032230
         H            0.521163574096    -1.888254110553     1.713516189631     1.007825032230
         H            0.664928574096     3.109088889447     0.685190189631     1.007825032230
         H            2.993880674096    -2.573093310553     0.088048289631     1.007825032230
         H            3.720817574096     2.548963889447    -0.056862810369     1.007825032230
         H            4.639115574096    -0.424056110553    -1.095080810369     1.007825032230
         H           -3.809006425904    -1.522560110553     1.736734189631     1.007825032230
         H           -3.931157425904     1.445318889447     0.251392189631     1.007825032230
         H           -2.230373425904     1.892657889447    -0.057089810369     1.007825032230
         H           -3.801132425904     3.130659889447    -1.600664810369     1.007825032230
         H           -2.717807425904     2.053100889447    -2.502868810369     1.007825032230
         H           -4.401555425904     1.574100889447    -2.210717810369     1.007825032230

  Basis Set: AUG-CC-PVTZ
    Blend: AUG-CC-PVTZ
  Basis Set: (AUG-CC-PVTZ AUX)
    Blend: AUG-CC-PVTZ-JKFIT
	 Reference Energy          =   -1327.8595314758520090 [Eh]
	 Singles Energy            =      -0.0000000000000000 [Eh]
	 Same-Spin Energy          =      -1.0141137396352475 [Eh]
	 Opposite-Spin Energy      =      -3.0754488299444369 [Eh]
	 Correlation Energy        =      -4.0895625695796847 [Eh]
	 Total Energy              =   -1331.9490940454315933 [Eh]

	 ================> DF-SCS-MP2 Energies <==================
	-----------------------------------------------------------
	 SCS Same-Spin Scale       =       0.3333333333333333 [-]
	 SCS Opposite-Spin Scale   =       1.2000000000000000 [-]
	 SCS Same-Spin Energy      =      -0.3380379132117491 [Eh]
	 SCS Opposite-Spin Energy  =      -3.6905385959333241 [Eh]
	 SCS Correlation Energy    =      -4.0285765091450729 [Eh]
	 SCS Total Energy          =   -1331.8881079849970774 [Eh]
	-----------------------------------------------------------

  Dipole Moment: [D]
     X:    -1.0409      Y:     1.8306      Z:     0.6711     Total:     2.2102

*** Psi4 exiting successfully. Buy a developer a beer!
