                               Psi4 1.3.2 release

  ==> Input File <==

--------------------------------------------------------------------------
#psi4
#
memory 32 gb

molecule  {
0 1
  P       -2.2900960    -0.9400430     0.3446780
  O       -0.9821530    -0.2015620     0.9382890
  O        1.3422500    -1.6754830     1.2308510
  O        0.0787050     2.3596040     0.4621680
  O        3.0685150    -2.1870720    -0.8085900
  O        2.8429243     2.5279213     0.3286110
  O        4.1956880     0.4353970    -0.9728740
  O       -2.8268630     0.0333510    -0.8075310
  O       -3.2591210    -0.7232820     1.6216710
  O       -2.1189930    -2.3436440    -0.0996680
  C        0.1181620     0.0300090     0.0163190
  C        0.9532920    -1.2442050    -0.0757250
  C        0.8985890     1.2026440     0.5648510
  C        2.2596600    -1.0143070    -0.8180370
  C        2.1770750     1.3964720    -0.2280410
  C        3.0258420     0.1487050    -0.2103220
  C       -3.1242130     1.4315980    -0.4888860
  C       -3.5363170     2.0851650    -1.7841190
  H       -0.2830920     0.2988010    -0.9702380
  H        0.3702690    -2.0293640    -0.5720320
  H        1.1571200     0.9978770     1.6121560
  H        2.0609340    -0.7886600    -1.8727560
  H        1.9331157     1.6709649    -1.2689313
  H        3.2958550    -0.0945320     0.8276460
  H        0.5217750    -1.8880320     1.7115100
  H        0.6655400     3.1093110     0.6831840
  H        2.9735430    -2.5473740     0.0946540
  H        3.7214290     2.5491860    -0.0588690
  H        4.6397270    -0.4238340    -1.0970870
  H       -3.8083950    -1.5223380     1.7347280
  H       -3.9305460     1.4455410     0.2493860
  H       -2.2297620     1.8928800    -0.0590960
  H       -3.8005210     3.1308820    -1.6026710
  H       -2.7171960     2.0533230    -2.5048750
  H       -4.4009440     1.5743230    -2.2127240
units angstrom
no_reorient  #important for SAPT in psi4, default
symmetry c1  #important for SAPT in psi4, default
}

set PROPERTIES_ORIGIN ["COM"]
properties('MP2/aug-cc-pvtz', properties = ['dipole'])
--------------------------------------------------------------------------

    Molecular point group: c1
  Charge       = 0
  Multiplicity = 1
  Basis Set: AUG-CC-PVTZ
    Blend: AUG-CC-PVTZ
  Basis Set: (AUG-CC-PVTZ AUX)
    Blend: AUG-CC-PVTZ-JKFIT

    Orbital Energies [Eh]
    ---------------------

    Doubly Occupied:

       1A    -80.117129     2A    -20.614884     3A    -20.607327
       4A    -20.599034     5A    -20.583538     6A    -20.575065
       7A    -20.574402     8A    -20.573512     9A    -20.573506
      10A    -20.523605    11A    -11.321221    12A    -11.303906
      13A    -11.299938    14A    -11.299431    15A    -11.299419
      16A    -11.296492    17A    -11.292629    18A    -11.229836
      19A     -7.632577    20A     -5.531084    21A     -5.530711
      22A     -5.529508    23A     -1.460486    24A     -1.411196
      25A     -1.395316    26A     -1.393408    27A     -1.386978
      28A     -1.373038    29A     -1.364671    30A     -1.354664
      31A     -1.304000    32A     -1.119451    33A     -1.040478
      34A     -1.012490    35A     -1.004009    36A     -0.880887
      37A     -0.865174    38A     -0.859508    39A     -0.823152
      40A     -0.810958    41A     -0.751467    42A     -0.745713
      43A     -0.731585    44A     -0.729191    45A     -0.708976
      46A     -0.687379    47A     -0.678579    48A     -0.673819
      49A     -0.662551    50A     -0.661717    51A     -0.643463
      52A     -0.635131    53A     -0.627382    54A     -0.615797
      55A     -0.605171    56A     -0.598682    57A     -0.582249
      58A     -0.575698    59A     -0.571500    60A     -0.559378
      61A     -0.556677    62A     -0.548924    63A     -0.541197
      64A     -0.536305    65A     -0.530012    66A     -0.522065
      67A     -0.512270    68A     -0.504507    69A     -0.497015
      70A     -0.485199    71A     -0.479926    72A     -0.476790
      73A     -0.461745    74A     -0.456262    75A     -0.449860
      76A     -0.437115

  @DF-RHF Final Energy: -1327.86194244591275

   => Energetics <=

    Nuclear Repulsion Energy =           1772.1291256201614033
    One-Electron Energy =               -5356.3623012102398206
    Two-Electron Energy =                2256.3712331441661263
    Total Energy =                      -1327.8619424459125185
  Basis Set: (AUG-CC-PVTZ AUX)
    Blend: AUG-CC-PVTZ-RI
    Molecular point group: c1

    Geometry (in Angstrom), charge = 0, multiplicity = 1:

       Center              X                  Y                   Z               Mass
    ------------   -----------------  -----------------  -----------------  -----------------
         P           -2.289907486744    -0.941541817182     0.347045119851    30.973761998420
         O           -0.981964486744    -0.203060817182     0.940656119851    15.994914619570
         O            1.342438513256    -1.676981817182     1.233218119851    15.994914619570
         O            0.078893513256     2.358105182818     0.464535119851    15.994914619570
         O            3.068703513256    -2.188570817182    -0.806222880149    15.994914619570
         O            2.843112813256     2.526422482818     0.330978119851    15.994914619570
         O            4.195876513256     0.433898182818    -0.970506880149    15.994914619570
         O           -2.826674486744     0.031852182818    -0.805163880149    15.994914619570
         O           -3.258932486744    -0.724780817182     1.624038119851    15.994914619570
         O           -2.118804486744    -2.345142817182    -0.097300880149    15.994914619570
         C            0.118350513256     0.028510182818     0.018686119851    12.000000000000
         C            0.953480513256    -1.245703817182    -0.073357880149    12.000000000000
         C            0.898777513256     1.201145182818     0.567218119851    12.000000000000
         C            2.259848513256    -1.015805817182    -0.815669880149    12.000000000000
         C            2.177263513256     1.394973182818    -0.225673880149    12.000000000000
         C            3.026030513256     0.147206182818    -0.207954880149    12.000000000000
         C           -3.124024486744     1.430099182818    -0.486518880149    12.000000000000
         C           -3.536128486744     2.083666182818    -1.781751880149    12.000000000000
         H           -0.282903486744     0.297302182818    -0.967870880149     1.007825032230
         H            0.370457513256    -2.030862817182    -0.569664880149     1.007825032230
         H            1.157308513256     0.996378182818     1.614523119851     1.007825032230
         H            2.061122513256    -0.790158817182    -1.870388880149     1.007825032230
         H            1.933304213256     1.669466082818    -1.266564180149     1.007825032230
         H            3.296043513256    -0.096030817182     0.830013119851     1.007825032230
         H            0.521963513256    -1.889530817182     1.713877119851     1.007825032230
         H            0.665728513256     3.107812182818     0.685551119851     1.007825032230
         H            2.973731513256    -2.548872817182     0.097021119851     1.007825032230
         H            3.721617513256     2.547687182818    -0.056501880149     1.007825032230
         H            4.639915513256    -0.425332817182    -1.094719880149     1.007825032230
         H           -3.808206486744    -1.523836817182     1.737095119851     1.007825032230
         H           -3.930357486744     1.444042182818     0.251753119851     1.007825032230
         H           -2.229573486744     1.891381182818    -0.056728880149     1.007825032230
         H           -3.800332486744     3.129383182818    -1.600303880149     1.007825032230
         H           -2.717007486744     2.051824182818    -2.502507880149     1.007825032230
         H           -4.400755486744     1.572824182818    -2.210356880149     1.007825032230

  Basis Set: AUG-CC-PVTZ
    Blend: AUG-CC-PVTZ
  Basis Set: (AUG-CC-PVTZ AUX)
    Blend: AUG-CC-PVTZ-JKFIT
	 Reference Energy          =   -1327.8619424459127458 [Eh]
	 Singles Energy            =      -0.0000000000000000 [Eh]
	 Same-Spin Energy          =      -1.0142897464486726 [Eh]
	 Opposite-Spin Energy      =      -3.0754075218663561 [Eh]
	 Correlation Energy        =      -4.0896972683150290 [Eh]
	 Total Energy              =   -1331.9516397142276674 [Eh]

	 ================> DF-SCS-MP2 Energies <==================
	-----------------------------------------------------------
	 SCS Same-Spin Scale       =       0.3333333333333333 [-]
	 SCS Opposite-Spin Scale   =       1.2000000000000000 [-]
	 SCS Same-Spin Energy      =      -0.3380965821495575 [Eh]
	 SCS Opposite-Spin Energy  =      -3.6904890262396273 [Eh]
	 SCS Correlation Energy    =      -4.0285856083891849 [Eh]
	 SCS Total Energy          =   -1331.8905280543019671 [Eh]
	-----------------------------------------------------------

  Dipole Moment: [D]
     X:    -1.1123      Y:     1.7842      Z:     0.7905     Total:     2.2462

*** Psi4 exiting successfully. Buy a developer a beer!
