                               Psi4 1.3.2 release

  ==> Input File <==

--------------------------------------------------------------------------
#psi4
#
memory 32 gb

molecule  {
0 1
  P       -2.2900960    -0.9400430     0.3446780
  O       -0.9860372    -0.1804944     0.9199689
  O        1.3422500    -1.6754830     1.2308510
  O        0.0787050     2.3596040     0.4621680
  O        3.0685150    -2.1870720    -0.8085900
  O        2.8473350     2.5031130     0.3715350
  O        4.1956880     0.4353970    -0.9728740
  O       -2.8058621     0.0509636    -0.8020964
  O       -3.2591210    -0.7232820     1.6216710
  O       -2.1189930    -2.3436440    -0.0996680
  C        0.1181620     0.0300090     0.0163190
  C        0.9532920    -1.2442050    -0.0757250
  C        0.8985890     1.2026440     0.5648510
  C        2.2596600    -1.0143070    -0.8180370
  C        2.1770750     1.3964720    -0.2280410
  C        3.0258420     0.1487050    -0.2103220
  C       -3.1242130     1.4315980    -0.4888860
  C       -3.5363170     2.0851650    -1.7841190
  H       -0.2830920     0.2988010    -0.9702380
  H        0.3702690    -2.0293640    -0.5720320
  H        1.1571200     0.9978770     1.6121560
  H        2.0609340    -0.7886600    -1.8727560
  H        1.9169870     1.6362870    -1.2735830
  H        3.2958550    -0.0945320     0.8276460
  H        0.5217750    -1.8880320     1.7115100
  H        0.6655400     3.1093110     0.6831840
  H        2.9735430    -2.5473740     0.0946540
  H        3.7214290     2.5491860    -0.0588690
  H        4.6397270    -0.4238340    -1.0970870
  H       -3.8083950    -1.5223380     1.7347280
  H       -3.9305460     1.4455410     0.2493860
  H       -2.2297620     1.8928800    -0.0590960
  H       -3.8005210     3.1308820    -1.6026710
  H       -2.7171960     2.0533230    -2.5048750
  H       -4.4009440     1.5743230    -2.2127240
units angstrom
no_reorient  #important for SAPT in psi4, default
symmetry c1  #important for SAPT in psi4, default
}

set PROPERTIES_ORIGIN ["COM"]
properties('MP2/aug-cc-pvtz', properties = ['dipole'])
--------------------------------------------------------------------------

    Molecular point group: c1
  Charge       = 0
  Multiplicity = 1
  Basis Set: AUG-CC-PVTZ
    Blend: AUG-CC-PVTZ
  Basis Set: (AUG-CC-PVTZ AUX)
    Blend: AUG-CC-PVTZ-JKFIT

    Orbital Energies [Eh]
    ---------------------

    Doubly Occupied:

       1A    -80.118667     2A    -20.616933     3A    -20.605700
       4A    -20.597449     5A    -20.583458     6A    -20.576193
       7A    -20.574539     8A    -20.573801     9A    -20.572513
      10A    -20.526375    11A    -11.318938    12A    -11.303340
      13A    -11.299195    14A    -11.297560    15A    -11.297202
      16A    -11.295929    17A    -11.291086    18A    -11.228777
      19A     -7.634014    20A     -5.532508    21A     -5.532223
      22A     -5.530924    23A     -1.462588    24A     -1.411279
      25A     -1.395465    26A     -1.393067    27A     -1.389108
      28A     -1.372920    29A     -1.363567    30A     -1.353511
      31A     -1.306495    32A     -1.118377    33A     -1.039684
      34A     -1.011535    35A     -1.003053    36A     -0.881898
      37A     -0.865133    38A     -0.858743    39A     -0.822153
      40A     -0.810191    41A     -0.751808    42A     -0.745798
      43A     -0.731975    44A     -0.729524    45A     -0.708643
      46A     -0.687058    47A     -0.678559    48A     -0.674379
      49A     -0.662808    50A     -0.661008    51A     -0.643521
      52A     -0.634724    53A     -0.628535    54A     -0.615756
      55A     -0.603346    56A     -0.598156    57A     -0.582130
      58A     -0.577120    59A     -0.570984    60A     -0.559280
      61A     -0.556558    62A     -0.547841    63A     -0.541664
      64A     -0.536296    65A     -0.528788    66A     -0.521314
      67A     -0.511718    68A     -0.503648    69A     -0.497189
      70A     -0.483831    71A     -0.479992    72A     -0.477031
      73A     -0.462253    74A     -0.455323    75A     -0.449583
      76A     -0.436152

  @DF-RHF Final Energy: -1327.86179581238639

   => Energetics <=

    Nuclear Repulsion Energy =           1773.4280000196611127
    One-Electron Energy =               -5358.9788261838366452
    Two-Electron Energy =                2257.6890303517889151
    Total Energy =                      -1327.8617958123863900
  Basis Set: (AUG-CC-PVTZ AUX)
    Blend: AUG-CC-PVTZ-RI
    Molecular point group: c1

    Geometry (in Angstrom), charge = 0, multiplicity = 1:

       Center              X                  Y                   Z               Mass
    ------------   -----------------  -----------------  -----------------  -----------------
         P           -2.291046391336    -0.942190744277     0.345393472764    30.973761998420
         O           -0.986987591336    -0.182642144277     0.920684372764    15.994914619570
         O            1.341299608664    -1.677630744277     1.231566472764    15.994914619570
         O            0.077754608664     2.357456255723     0.462883472764    15.994914619570
         O            3.067564608664    -2.189219744277    -0.807874527236    15.994914619570
         O            2.846384608664     2.500965255723     0.372250472764    15.994914619570
         O            4.194737608664     0.433249255723    -0.972158527236    15.994914619570
         O           -2.806812491336     0.048815855723    -0.801380927236    15.994914619570
         O           -3.260071391336    -0.725429744277     1.622386472764    15.994914619570
         O           -2.119943391336    -2.345791744277    -0.098952527236    15.994914619570
         C            0.117211608664     0.027861255723     0.017034472764    12.000000000000
         C            0.952341608664    -1.246352744277    -0.075009527236    12.000000000000
         C            0.897638608664     1.200496255723     0.565566472764    12.000000000000
         C            2.258709608664    -1.016454744277    -0.817321527236    12.000000000000
         C            2.176124608664     1.394324255723    -0.227325527236    12.000000000000
         C            3.024891608664     0.146557255723    -0.209606527236    12.000000000000
         C           -3.125163391336     1.429450255723    -0.488170527236    12.000000000000
         C           -3.537267391336     2.083017255723    -1.783403527236    12.000000000000
         H           -0.284042391336     0.296653255723    -0.969522527236     1.007825032230
         H            0.369318608664    -2.031511744277    -0.571316527236     1.007825032230
         H            1.156169608664     0.995729255723     1.612871472764     1.007825032230
         H            2.059983608664    -0.790807744277    -1.872040527236     1.007825032230
         H            1.916036608664     1.634139255723    -1.272867527236     1.007825032230
         H            3.294904608664    -0.096679744277     0.828361472764     1.007825032230
         H            0.520824608664    -1.890179744277     1.712225472764     1.007825032230
         H            0.664589608664     3.107163255723     0.683899472764     1.007825032230
         H            2.972592608664    -2.549521744277     0.095369472764     1.007825032230
         H            3.720478608664     2.547038255723    -0.058153527236     1.007825032230
         H            4.638776608664    -0.425981744277    -1.096371527236     1.007825032230
         H           -3.809345391336    -1.524485744277     1.735443472764     1.007825032230
         H           -3.931496391336     1.443393255723     0.250101472764     1.007825032230
         H           -2.230712391336     1.890732255723    -0.058380527236     1.007825032230
         H           -3.801471391336     3.128734255723    -1.601955527236     1.007825032230
         H           -2.718146391336     2.051175255723    -2.504159527236     1.007825032230
         H           -4.401894391336     1.572175255723    -2.212008527236     1.007825032230

  Basis Set: AUG-CC-PVTZ
    Blend: AUG-CC-PVTZ
  Basis Set: (AUG-CC-PVTZ AUX)
    Blend: AUG-CC-PVTZ-JKFIT
	 Reference Energy          =   -1327.8617958123863900 [Eh]
	 Singles Energy            =      -0.0000000000000000 [Eh]
	 Same-Spin Energy          =      -1.0145552332039705 [Eh]
	 Opposite-Spin Energy      =      -3.0756365169711253 [Eh]
	 Correlation Energy        =      -4.0901917501750962 [Eh]
	 Total Energy              =   -1331.9519875625614986 [Eh]

	 ================> DF-SCS-MP2 Energies <==================
	-----------------------------------------------------------
	 SCS Same-Spin Scale       =       0.3333333333333333 [-]
	 SCS Opposite-Spin Scale   =       1.2000000000000000 [-]
	 SCS Same-Spin Energy      =      -0.3381850777346568 [Eh]
	 SCS Opposite-Spin Energy  =      -3.6907638203653503 [Eh]
	 SCS Correlation Energy    =      -4.0289488981000074 [Eh]
	 SCS Total Energy          =   -1331.8907447104863877 [Eh]
	-----------------------------------------------------------

  Dipole Moment: [D]
     X:    -1.1809      Y:     1.7114      Z:     0.7712     Total:     2.2177

*** Psi4 exiting successfully. Buy a developer a beer!
