                               Psi4 1.3.2 release

  ==> Input File <==

--------------------------------------------------------------------------
#psi4
#
memory 32 gb

molecule  {
0 1
  P       -2.2900960    -0.9400430     0.3446780
  O       -0.9821530    -0.2015620     0.9382890
  O        1.3422500    -1.6754830     1.2308510
  O        0.0787050     2.3596040     0.4621680
  O        3.0685150    -2.1870720    -0.8085900
  O        2.8473350     2.5031130     0.3715350
  O        4.1956880     0.4353970    -0.9728740
  O       -2.8268630     0.0333510    -0.8075310
  O       -3.2591210    -0.7232820     1.6216710
  O       -2.1420812    -2.1542453    -0.0397090
  C        0.1181620     0.0300090     0.0163190
  C        0.9532920    -1.2442050    -0.0757250
  C        0.8985890     1.2026440     0.5648510
  C        2.2596600    -1.0143070    -0.8180370
  C        2.1770750     1.3964720    -0.2280410
  C        3.0258420     0.1487050    -0.2103220
  C       -3.1242130     1.4315980    -0.4888860
  C       -3.5363170     2.0851650    -1.7841190
  H       -0.2830920     0.2988010    -0.9702380
  H        0.3702690    -2.0293640    -0.5720320
  H        1.1571200     0.9978770     1.6121560
  H        2.0609340    -0.7886600    -1.8727560
  H        1.9169870     1.6362870    -1.2735830
  H        3.2958550    -0.0945320     0.8276460
  H        0.5217750    -1.8880320     1.7115100
  H        0.6655400     3.1093110     0.6831840
  H        2.9735430    -2.5473740     0.0946540
  H        3.7214290     2.5491860    -0.0588690
  H        4.6397270    -0.4238340    -1.0970870
  H       -3.8083950    -1.5223380     1.7347280
  H       -3.9305460     1.4455410     0.2493860
  H       -2.2297620     1.8928800    -0.0590960
  H       -3.8005210     3.1308820    -1.6026710
  H       -2.7171960     2.0533230    -2.5048750
  H       -4.4009440     1.5743230    -2.2127240
units angstrom
no_reorient  #important for SAPT in psi4, default
symmetry c1  #important for SAPT in psi4, default
}

set PROPERTIES_ORIGIN ["COM"]
properties('MP2/aug-cc-pvtz', properties = ['dipole'])
--------------------------------------------------------------------------

    Molecular point group: c1
  Charge       = 0
  Multiplicity = 1
  Basis Set: AUG-CC-PVTZ
    Blend: AUG-CC-PVTZ
  Basis Set: (AUG-CC-PVTZ AUX)
    Blend: AUG-CC-PVTZ-JKFIT

    Orbital Energies [Eh]
    ---------------------

    Doubly Occupied:

       1A    -80.068709     2A    -20.599657     3A    -20.593260
       4A    -20.585738     5A    -20.583431     6A    -20.575115
       7A    -20.574874     8A    -20.573525     9A    -20.570191
      10A    -20.514623    11A    -11.316355    12A    -11.304125
      13A    -11.299237    14A    -11.295493    15A    -11.294610
      16A    -11.291375    17A    -11.290692    18A    -11.224711
      19A     -7.599932    20A     -5.500660    21A     -5.495658
      22A     -5.495249    23A     -1.475097    24A     -1.410251
      25A     -1.392531    26A     -1.390187    27A     -1.376904
      28A     -1.375426    29A     -1.368453    30A     -1.362757
      31A     -1.352299    32A     -1.116908    33A     -1.033422
      34A     -1.009003    35A     -1.002230    36A     -0.873877
      37A     -0.858947    38A     -0.857383    39A     -0.814020
      40A     -0.807089    41A     -0.749269    42A     -0.742462
      43A     -0.729020    44A     -0.727239    45A     -0.703309
      46A     -0.683912    47A     -0.678430    48A     -0.672962
      49A     -0.662733    50A     -0.658624    51A     -0.641152
      52A     -0.636036    53A     -0.627540    54A     -0.614421
      55A     -0.600298    56A     -0.598667    57A     -0.594697
      58A     -0.582751    59A     -0.568250    60A     -0.562776
      61A     -0.556216    62A     -0.546694    63A     -0.538620
      64A     -0.537356    65A     -0.527903    66A     -0.523669
      67A     -0.518235    68A     -0.510287    69A     -0.507855
      70A     -0.501308    71A     -0.484402    72A     -0.474484
      73A     -0.463310    74A     -0.454459    75A     -0.449108
      76A     -0.437206

  @DF-RHF Final Energy: -1327.81320592928046

   => Energetics <=

    Nuclear Repulsion Energy =           1783.6039419051962795
    One-Electron Energy =               -5379.6549592311594097
    Two-Electron Energy =                2268.2378113966829005
    Total Energy =                      -1327.8132059292802296
  Basis Set: (AUG-CC-PVTZ AUX)
    Blend: AUG-CC-PVTZ-RI
    Molecular point group: c1

    Geometry (in Angstrom), charge = 0, multiplicity = 1:

       Center              X                  Y                   Z               Mass
    ------------   -----------------  -----------------  -----------------  -----------------
         P           -2.288813968689    -0.950559559837     0.341348699328    30.973761998420
         O           -0.980870968689    -0.212078559837     0.934959699328    15.994914619570
         O            1.343532031311    -1.685999559837     1.227521699328    15.994914619570
         O            0.079987031311     2.349087440163     0.458838699328    15.994914619570
         O            3.069797031311    -2.197588559837    -0.811919300672    15.994914619570
         O            2.848617031311     2.492596440163     0.368205699328    15.994914619570
         O            4.196970031311     0.424880440163    -0.976203300672    15.994914619570
         O           -2.825580968689     0.022834440163    -0.810860300672    15.994914619570
         O           -3.257838968689    -0.733798559837     1.618341699328    15.994914619570
         O           -2.140799168689    -2.164761859837    -0.043038300672    15.994914619570
         C            0.119444031311     0.019492440163     0.012989699328    12.000000000000
         C            0.954574031311    -1.254721559837    -0.079054300672    12.000000000000
         C            0.899871031311     1.192127440163     0.561521699328    12.000000000000
         C            2.260942031311    -1.024823559837    -0.821366300672    12.000000000000
         C            2.178357031311     1.385955440163    -0.231370300672    12.000000000000
         C            3.027124031311     0.138188440163    -0.213651300672    12.000000000000
         C           -3.122930968689     1.421081440163    -0.492215300672    12.000000000000
         C           -3.535034968689     2.074648440163    -1.787448300672    12.000000000000
         H           -0.281809968689     0.288284440163    -0.973567300672     1.007825032230
         H            0.371551031311    -2.039880559837    -0.575361300672     1.007825032230
         H            1.158402031311     0.987360440163     1.608826699328     1.007825032230
         H            2.062216031311    -0.799176559837    -1.876085300672     1.007825032230
         H            1.918269031311     1.625770440163    -1.276912300672     1.007825032230
         H            3.297137031311    -0.105048559837     0.824316699328     1.007825032230
         H            0.523057031311    -1.898548559837     1.708180699328     1.007825032230
         H            0.666822031311     3.098794440163     0.679854699328     1.007825032230
         H            2.974825031311    -2.557890559837     0.091324699328     1.007825032230
         H            3.722711031311     2.538669440163    -0.062198300672     1.007825032230
         H            4.641009031311    -0.434350559837    -1.100416300672     1.007825032230
         H           -3.807112968689    -1.532854559837     1.731398699328     1.007825032230
         H           -3.929263968689     1.435024440163     0.246056699328     1.007825032230
         H           -2.228479968689     1.882363440163    -0.062425300672     1.007825032230
         H           -3.799238968689     3.120365440163    -1.606000300672     1.007825032230
         H           -2.715913968689     2.042806440163    -2.508204300672     1.007825032230
         H           -4.399661968689     1.563806440163    -2.216053300672     1.007825032230

  Basis Set: AUG-CC-PVTZ
    Blend: AUG-CC-PVTZ
  Basis Set: (AUG-CC-PVTZ AUX)
    Blend: AUG-CC-PVTZ-JKFIT
	 Reference Energy          =   -1327.8132059292804570 [Eh]
	 Singles Energy            =      -0.0000000000000000 [Eh]
	 Same-Spin Energy          =      -1.0098389952959785 [Eh]
	 Opposite-Spin Energy      =      -3.0651516976033970 [Eh]
	 Correlation Energy        =      -4.0749906928993758 [Eh]
	 Total Energy              =   -1331.8881966221797484 [Eh]

	 ================> DF-SCS-MP2 Energies <==================
	-----------------------------------------------------------
	 SCS Same-Spin Scale       =       0.3333333333333333 [-]
	 SCS Opposite-Spin Scale   =       1.2000000000000000 [-]
	 SCS Same-Spin Energy      =      -0.3366129984319928 [Eh]
	 SCS Opposite-Spin Energy  =      -3.6781820371240763 [Eh]
	 SCS Correlation Energy    =      -4.0147950355560695 [Eh]
	 SCS Total Energy          =   -1331.8280009648365194 [Eh]
	-----------------------------------------------------------

  Dipole Moment: [D]
     X:    -1.0448      Y:     0.8870      Z:     0.4986     Total:     1.4584

*** Psi4 exiting successfully. Buy a developer a beer!
