                               Psi4 1.3.2 release

  ==> Input File <==

--------------------------------------------------------------------------
#psi4
#
memory 32 gb

molecule  {
0 1
  P       -2.2900960    -0.9400430     0.3446780
  O       -0.9821530    -0.2015620     0.9382890
  O        1.3422500    -1.6754830     1.2308510
  O        0.0787050     2.3596040     0.4621680
  O        3.0685150    -2.1870720    -0.8085900
  O        2.8473350     2.5031130     0.3715350
  O        4.1956880     0.4353970    -0.9728740
  O       -2.8268630     0.0333510    -0.8075310
  O       -3.2591210    -0.7232820     1.6216710
  O       -2.1189930    -2.3436440    -0.0996680
  C        0.1181620     0.0300090     0.0163190
  C        0.9532920    -1.2442050    -0.0757250
  C        0.8870882     1.2296272     0.5209923
  C        2.2596600    -1.0143070    -0.8180370
  C        2.1770750     1.3964720    -0.2280410
  C        3.0258420     0.1487050    -0.2103220
  C       -3.1242130     1.4315980    -0.4888860
  C       -3.5363170     2.0851650    -1.7841190
  H       -0.2667296     0.3332987    -0.9667489
  H        0.3702690    -2.0293640    -0.5720320
  H        1.1571200     0.9978770     1.6121560
  H        2.0609340    -0.7886600    -1.8727560
  H        1.9169870     1.6362870    -1.2735830
  H        3.2958550    -0.0945320     0.8276460
  H        0.5217750    -1.8880320     1.7115100
  H        0.6655400     3.1093110     0.6831840
  H        2.9735430    -2.5473740     0.0946540
  H        3.7214290     2.5491860    -0.0588690
  H        4.6397270    -0.4238340    -1.0970870
  H       -3.8083950    -1.5223380     1.7347280
  H       -3.9305460     1.4455410     0.2493860
  H       -2.2297620     1.8928800    -0.0590960
  H       -3.8005210     3.1308820    -1.6026710
  H       -2.7171960     2.0533230    -2.5048750
  H       -4.4009440     1.5743230    -2.2127240
units angstrom
no_reorient  #important for SAPT in psi4, default
symmetry c1  #important for SAPT in psi4, default
}

set PROPERTIES_ORIGIN ["COM"]
properties('MP2/aug-cc-pvtz', properties = ['dipole'])
--------------------------------------------------------------------------

    Molecular point group: c1
  Charge       = 0
  Multiplicity = 1
  Basis Set: AUG-CC-PVTZ
    Blend: AUG-CC-PVTZ
  Basis Set: (AUG-CC-PVTZ AUX)
    Blend: AUG-CC-PVTZ-JKFIT

    Orbital Energies [Eh]
    ---------------------

    Doubly Occupied:

       1A    -80.117099     2A    -20.614851     3A    -20.607778
       4A    -20.598938     5A    -20.582614     6A    -20.577144
       7A    -20.577125     8A    -20.574436     9A    -20.574311
      10A    -20.523386    11A    -11.320410    12A    -11.304060
      13A    -11.299879    14A    -11.299877    15A    -11.299218
      16A    -11.296018    17A    -11.291977    18A    -11.230238
      19A     -7.632531    20A     -5.531033    21A     -5.530672
      22A     -5.529461    23A     -1.460404    24A     -1.412579
      25A     -1.398054    26A     -1.394533    27A     -1.387047
      28A     -1.375938    29A     -1.366588    30A     -1.354824
      31A     -1.303792    32A     -1.119382    33A     -1.040822
      34A     -1.011988    35A     -1.004147    36A     -0.881720
      37A     -0.865638    38A     -0.857829    39A     -0.823635
      40A     -0.807700    41A     -0.754407    42A     -0.744798
      43A     -0.731621    44A     -0.729065    45A     -0.707881
      46A     -0.689422    47A     -0.677852    48A     -0.674007
      49A     -0.663494    50A     -0.661496    51A     -0.644804
      52A     -0.635841    53A     -0.627822    54A     -0.616430
      55A     -0.604660    56A     -0.599602    57A     -0.582796
      58A     -0.575759    59A     -0.571191    60A     -0.560579
      61A     -0.556930    62A     -0.549398    63A     -0.541401
      64A     -0.536964    65A     -0.530444    66A     -0.521211
      67A     -0.513043    68A     -0.503525    69A     -0.496411
      70A     -0.482911    71A     -0.480038    72A     -0.476707
      73A     -0.460977    74A     -0.456916    75A     -0.444391
      76A     -0.436236

  @DF-RHF Final Energy: -1327.85819171346134

   => Energetics <=

    Nuclear Repulsion Energy =           1772.7185146318051920
    One-Electron Energy =               -5357.5120025309543053
    Two-Electron Energy =                2256.9352961856875481
    Total Energy =                      -1327.8581917134615651
  Basis Set: (AUG-CC-PVTZ AUX)
    Blend: AUG-CC-PVTZ-RI
    Molecular point group: c1

    Geometry (in Angstrom), charge = 0, multiplicity = 1:

       Center              X                  Y                   Z               Mass
    ------------   -----------------  -----------------  -----------------  -----------------
         P           -2.289674115004    -0.941287739588     0.346492842357    30.973761998420
         O           -0.981731115004    -0.202806739588     0.940103842357    15.994914619570
         O            1.342671884996    -1.676727739588     1.232665842357    15.994914619570
         O            0.079126884996     2.358359260412     0.463982842357    15.994914619570
         O            3.068936884996    -2.188316739588    -0.806775157643    15.994914619570
         O            2.847756884996     2.501868260412     0.373349842357    15.994914619570
         O            4.196109884996     0.434152260412    -0.971059157643    15.994914619570
         O           -2.826441115004     0.032106260412    -0.805716157643    15.994914619570
         O           -3.258699115004    -0.724526739588     1.623485842357    15.994914619570
         O           -2.118571115004    -2.344888739588    -0.097853157643    15.994914619570
         C            0.118583884996     0.028764260412     0.018133842357    12.000000000000
         C            0.953713884996    -1.245449739588    -0.073910157643    12.000000000000
         C            0.887510084996     1.228382460412     0.522807142357    12.000000000000
         C            2.260081884996    -1.015551739588    -0.816222157643    12.000000000000
         C            2.177496884996     1.395227260412    -0.226226157643    12.000000000000
         C            3.026263884996     0.147460260412    -0.208507157643    12.000000000000
         C           -3.123791115004     1.430353260412    -0.487071157643    12.000000000000
         C           -3.535895115004     2.083920260412    -1.782304157643    12.000000000000
         H           -0.266307715004     0.332053960412    -0.964934057643     1.007825032230
         H            0.370690884996    -2.030608739588    -0.570217157643     1.007825032230
         H            1.157541884996     0.996632260412     1.613970842357     1.007825032230
         H            2.061355884996    -0.789904739588    -1.870941157643     1.007825032230
         H            1.917408884996     1.635042260412    -1.271768157643     1.007825032230
         H            3.296276884996    -0.095776739588     0.829460842357     1.007825032230
         H            0.522196884996    -1.889276739588     1.713324842357     1.007825032230
         H            0.665961884996     3.108066260412     0.684998842357     1.007825032230
         H            2.973964884996    -2.548618739588     0.096468842357     1.007825032230
         H            3.721850884996     2.547941260412    -0.057054157643     1.007825032230
         H            4.640148884996    -0.425078739588    -1.095272157643     1.007825032230
         H           -3.807973115004    -1.523582739588     1.736542842357     1.007825032230
         H           -3.930124115004     1.444296260412     0.251200842357     1.007825032230
         H           -2.229340115004     1.891635260412    -0.057281157643     1.007825032230
         H           -3.800099115004     3.129637260412    -1.600856157643     1.007825032230
         H           -2.716774115004     2.052078260412    -2.503060157643     1.007825032230
         H           -4.400522115004     1.573078260412    -2.210909157643     1.007825032230

  Basis Set: AUG-CC-PVTZ
    Blend: AUG-CC-PVTZ
  Basis Set: (AUG-CC-PVTZ AUX)
    Blend: AUG-CC-PVTZ-JKFIT
	 Reference Energy          =   -1327.8581917134613377 [Eh]
	 Singles Energy            =      -0.0000000000000000 [Eh]
	 Same-Spin Energy          =      -1.0148309928821733 [Eh]
	 Opposite-Spin Energy      =      -3.0759691875047932 [Eh]
	 Correlation Energy        =      -4.0908001803869665 [Eh]
	 Total Energy              =   -1331.9489918938484152 [Eh]

	 ================> DF-SCS-MP2 Energies <==================
	-----------------------------------------------------------
	 SCS Same-Spin Scale       =       0.3333333333333333 [-]
	 SCS Opposite-Spin Scale   =       1.2000000000000000 [-]
	 SCS Same-Spin Energy      =      -0.3382769976273911 [Eh]
	 SCS Opposite-Spin Energy  =      -3.6911630250057517 [Eh]
	 SCS Correlation Energy    =      -4.0294400226331426 [Eh]
	 SCS Total Energy          =   -1331.8876317360945905 [Eh]
	-----------------------------------------------------------

  Dipole Moment: [D]
     X:    -1.1605      Y:     1.9517      Z:     0.6746     Total:     2.3687

*** Psi4 exiting successfully. Buy a developer a beer!
