                               Psi4 1.3.2 release

  ==> Input File <==

--------------------------------------------------------------------------
#psi4
#
memory 32 gb

molecule  {
0 1
  P       -2.2900960    -0.9400430     0.3446780
  O       -0.9821530    -0.2015620     0.9382890
  O        1.3422500    -1.6754830     1.2308510
  O        0.0787050     2.3596040     0.4621680
  O        3.0685150    -2.1870720    -0.8085900
  O        2.8473350     2.5031130     0.3715350
  O        4.1956880     0.4353970    -0.9728740
  O       -2.8268630     0.0333510    -0.8075310
  O       -3.2591210    -0.7232820     1.6216710
  O       -2.1189930    -2.3436440    -0.0996680
  C        0.1181620     0.0300090     0.0163190
  C        0.9532920    -1.2442050    -0.0757250
  C        0.8985890     1.2026440     0.5648510
  C        2.2596600    -1.0143070    -0.8180370
  C        2.2047498     1.3882354    -0.1836631
  C        3.0258420     0.1487050    -0.2103220
  C       -3.1242130     1.4315980    -0.4888860
  C       -3.5363170     2.0851650    -1.7841190
  H       -0.2830920     0.2988010    -0.9702380
  H        0.3702690    -2.0293640    -0.5720320
  H        1.1941919     1.0007305     1.6028613
  H        2.0609340    -0.7886600    -1.8727560
  H        1.9169870     1.6362870    -1.2735830
  H        3.2958550    -0.0945320     0.8276460
  H        0.5217750    -1.8880320     1.7115100
  H        0.6655400     3.1093110     0.6831840
  H        2.9735430    -2.5473740     0.0946540
  H        3.7214290     2.5491860    -0.0588690
  H        4.6397270    -0.4238340    -1.0970870
  H       -3.8083950    -1.5223380     1.7347280
  H       -3.9305460     1.4455410     0.2493860
  H       -2.2297620     1.8928800    -0.0590960
  H       -3.8005210     3.1308820    -1.6026710
  H       -2.7171960     2.0533230    -2.5048750
  H       -4.4009440     1.5743230    -2.2127240
units angstrom
no_reorient  #important for SAPT in psi4, default
symmetry c1  #important for SAPT in psi4, default
}

set PROPERTIES_ORIGIN ["COM"]
properties('MP2/aug-cc-pvtz', properties = ['dipole'])
--------------------------------------------------------------------------

    Molecular point group: c1
  Charge       = 0
  Multiplicity = 1
  Basis Set: AUG-CC-PVTZ
    Blend: AUG-CC-PVTZ
  Basis Set: (AUG-CC-PVTZ AUX)
    Blend: AUG-CC-PVTZ-JKFIT

    Orbital Energies [Eh]
    ---------------------

    Doubly Occupied:

       1A    -80.116832     2A    -20.614639     3A    -20.606926
       4A    -20.598813     5A    -20.583071     6A    -20.580058
       7A    -20.575104     8A    -20.574924     9A    -20.574635
      10A    -20.523334    11A    -11.321225    12A    -11.303541
      13A    -11.300057    14A    -11.299294    15A    -11.298892
      16A    -11.298163    17A    -11.290860    18A    -11.229687
      19A     -7.632284    20A     -5.530789    21A     -5.530418
      22A     -5.529215    23A     -1.460173    24A     -1.412527
      25A     -1.399258    26A     -1.393580    27A     -1.386765
      28A     -1.373224    29A     -1.366718    30A     -1.356138
      31A     -1.303730    32A     -1.119775    33A     -1.040348
      34A     -1.014019    35A     -1.003705    36A     -0.880915
      37A     -0.865143    38A     -0.860016    39A     -0.822465
      40A     -0.807994    41A     -0.752469    42A     -0.745974
      43A     -0.730877    44A     -0.728414    45A     -0.710774
      46A     -0.686922    47A     -0.678311    48A     -0.673647
      49A     -0.666024    50A     -0.661887    51A     -0.645336
      52A     -0.635088    53A     -0.627078    54A     -0.615606
      55A     -0.603699    56A     -0.598259    57A     -0.581600
      58A     -0.575532    59A     -0.571312    60A     -0.560315
      61A     -0.557199    62A     -0.548351    63A     -0.541030
      64A     -0.537780    65A     -0.529562    66A     -0.523334
      67A     -0.512621    68A     -0.504575    69A     -0.497686
      70A     -0.485669    71A     -0.479781    72A     -0.476587
      73A     -0.460570    74A     -0.454146    75A     -0.444437
      76A     -0.437734

  @DF-RHF Final Energy: -1327.85792854535407

   => Energetics <=

    Nuclear Repulsion Energy =           1772.7071310683536467
    One-Electron Energy =               -5357.4912368923569375
    Two-Electron Energy =                2256.9261772786489928
    Total Energy =                      -1327.8579285453542980
  Basis Set: (AUG-CC-PVTZ AUX)
    Blend: AUG-CC-PVTZ-RI
    Molecular point group: c1

    Geometry (in Angstrom), charge = 0, multiplicity = 1:

       Center              X                  Y                   Z               Mass
    ------------   -----------------  -----------------  -----------------  -----------------
         P           -2.291378541219    -0.939709846758     0.342861822202    30.973761998420
         O           -0.983435541219    -0.201228846758     0.936472822202    15.994914619570
         O            1.340967458781    -1.675149846758     1.229034822202    15.994914619570
         O            0.077422458781     2.359937153242     0.460351822202    15.994914619570
         O            3.067232458781    -2.186738846758    -0.810406177798    15.994914619570
         O            2.846052458781     2.503446153242     0.369718822202    15.994914619570
         O            4.194405458781     0.435730153242    -0.974690177798    15.994914619570
         O           -2.828145541219     0.033684153242    -0.809347177798    15.994914619570
         O           -3.260403541219    -0.722948846758     1.619854822202    15.994914619570
         O           -2.120275541219    -2.343310846758    -0.101484177798    15.994914619570
         C            0.116879458781     0.030342153242     0.014502822202    12.000000000000
         C            0.952009458781    -1.243871846758    -0.077541177798    12.000000000000
         C            0.897306458781     1.202977153242     0.563034822202    12.000000000000
         C            2.258377458781    -1.013973846758    -0.819853177798    12.000000000000
         C            2.203467258781     1.388568553242    -0.185479277798    12.000000000000
         C            3.024559458781     0.149038153242    -0.212138177798    12.000000000000
         C           -3.125495541219     1.431931153242    -0.490702177798    12.000000000000
         C           -3.537599541219     2.085498153242    -1.785935177798    12.000000000000
         H           -0.284374541219     0.299134153242    -0.972054177798     1.007825032230
         H            0.368986458781    -2.029030846758    -0.573848177798     1.007825032230
         H            1.192909358781     1.001063653242     1.601045122202     1.007825032230
         H            2.059651458781    -0.788326846758    -1.874572177798     1.007825032230
         H            1.915704458781     1.636620153242    -1.275399177798     1.007825032230
         H            3.294572458781    -0.094198846758     0.825829822202     1.007825032230
         H            0.520492458781    -1.887698846758     1.709693822202     1.007825032230
         H            0.664257458781     3.109644153242     0.681367822202     1.007825032230
         H            2.972260458781    -2.547040846758     0.092837822202     1.007825032230
         H            3.720146458781     2.549519153242    -0.060685177798     1.007825032230
         H            4.638444458781    -0.423500846758    -1.098903177798     1.007825032230
         H           -3.809677541219    -1.522004846758     1.732911822202     1.007825032230
         H           -3.931828541219     1.445874153242     0.247569822202     1.007825032230
         H           -2.231044541219     1.893213153242    -0.060912177798     1.007825032230
         H           -3.801803541219     3.131215153242    -1.604487177798     1.007825032230
         H           -2.718478541219     2.053656153242    -2.506691177798     1.007825032230
         H           -4.402226541219     1.574656153242    -2.214540177798     1.007825032230

  Basis Set: AUG-CC-PVTZ
    Blend: AUG-CC-PVTZ
  Basis Set: (AUG-CC-PVTZ AUX)
    Blend: AUG-CC-PVTZ-JKFIT
	 Reference Energy          =   -1327.8579285453540706 [Eh]
	 Singles Energy            =      -0.0000000000000000 [Eh]
	 Same-Spin Energy          =      -1.0149085698437925 [Eh]
	 Opposite-Spin Energy      =      -3.0761805318888036 [Eh]
	 Correlation Energy        =      -4.0910891017325959 [Eh]
	 Total Energy              =   -1331.9490176470867482 [Eh]

	 ================> DF-SCS-MP2 Energies <==================
	-----------------------------------------------------------
	 SCS Same-Spin Scale       =       0.3333333333333333 [-]
	 SCS Opposite-Spin Scale   =       1.2000000000000000 [-]
	 SCS Same-Spin Energy      =      -0.3383028566145975 [Eh]
	 SCS Opposite-Spin Energy  =      -3.6914166382665643 [Eh]
	 SCS Correlation Energy    =      -4.0297194948811619 [Eh]
	 SCS Total Energy          =   -1331.8876480402352627 [Eh]
	-----------------------------------------------------------

  Dipole Moment: [D]
     X:    -1.0474      Y:     1.8983      Z:     0.7974     Total:     2.3100

*** Psi4 exiting successfully. Buy a developer a beer!
