                               Psi4 1.3.2 release

  ==> Input File <==

--------------------------------------------------------------------------
#psi4
#
memory 32 gb

molecule  {
0 1
  P       -2.2900960    -0.9400430     0.3446780
  O       -0.9821530    -0.2015620     0.9382890
  O        1.3422500    -1.6754830     1.2308510
  O        0.0787050     2.3596040     0.4621680
  O        3.0685150    -2.1870720    -0.8085900
  O        2.8473350     2.5031130     0.3715350
  O        4.1956880     0.4353970    -0.9728740
  O       -2.8268630     0.0333510    -0.8075310
  O       -3.2591210    -0.7232820     1.6216710
  O       -2.1189930    -2.3436440    -0.0996680
  C        0.1181620     0.0300090     0.0163190
  C        0.9532920    -1.2442050    -0.0757250
  C        0.8985890     1.2026440     0.5648510
  C        2.2596600    -1.0143070    -0.8180370
  C        2.1770750     1.3964720    -0.2280410
  C        3.0258420     0.1487050    -0.2103220
  C       -3.1242130     1.4315980    -0.4888860
  C       -3.5363170     2.0851650    -1.7841190
  H       -0.2830920     0.2988010    -0.9702380
  H        0.3702690    -2.0293640    -0.5720320
  H        1.1571200     0.9978770     1.6121560
  H        2.0609340    -0.7886600    -1.8727560
  H        1.9169870     1.6362870    -1.2735830
  H        3.3204072    -0.1166495     0.9220282
  H        0.5217750    -1.8880320     1.7115100
  H        0.6655400     3.1093110     0.6831840
  H        2.9735430    -2.5473740     0.0946540
  H        3.7214290     2.5491860    -0.0588690
  H        4.6397270    -0.4238340    -1.0970870
  H       -3.8083950    -1.5223380     1.7347280
  H       -3.9305460     1.4455410     0.2493860
  H       -2.2297620     1.8928800    -0.0590960
  H       -3.8005210     3.1308820    -1.6026710
  H       -2.7171960     2.0533230    -2.5048750
  H       -4.4009440     1.5743230    -2.2127240
units angstrom
no_reorient  #important for SAPT in psi4, default
symmetry c1  #important for SAPT in psi4, default
}

set PROPERTIES_ORIGIN ["COM"]
properties('MP2/aug-cc-pvtz', properties = ['dipole'])
--------------------------------------------------------------------------

    Molecular point group: c1
  Charge       = 0
  Multiplicity = 1
  Basis Set: AUG-CC-PVTZ
    Blend: AUG-CC-PVTZ
  Basis Set: (AUG-CC-PVTZ AUX)
    Blend: AUG-CC-PVTZ-JKFIT

    Orbital Energies [Eh]
    ---------------------

    Doubly Occupied:

       1A    -80.116946     2A    -20.614724     3A    -20.607031
       4A    -20.598960     5A    -20.582576     6A    -20.576832
       7A    -20.575976     8A    -20.574548     9A    -20.573489
      10A    -20.523436    11A    -11.320798    12A    -11.303626
      13A    -11.302673    14A    -11.300384    15A    -11.299413
      16A    -11.298645    17A    -11.297568    18A    -11.229910
      19A     -7.632396    20A     -5.530902    21A     -5.530529
      22A     -5.529327    23A     -1.460282    24A     -1.410736
      25A     -1.394878    26A     -1.392950    27A     -1.386883
      28A     -1.373014    29A     -1.363892    30A     -1.354213
      31A     -1.303832    32A     -1.118609    33A     -1.040474
      34A     -1.010097    35A     -1.003693    36A     -0.878699
      37A     -0.864374    38A     -0.859058    39A     -0.821011
      40A     -0.807124    41A     -0.750946    42A     -0.744261
      43A     -0.731383    44A     -0.728149    45A     -0.706472
      46A     -0.686848    47A     -0.677996    48A     -0.673803
      49A     -0.661742    50A     -0.658644    51A     -0.643170
      52A     -0.634204    53A     -0.626982    54A     -0.615159
      55A     -0.603753    56A     -0.596670    57A     -0.581632
      58A     -0.575515    59A     -0.570346    60A     -0.559141
      61A     -0.556535    62A     -0.548030    63A     -0.541168
      64A     -0.536416    65A     -0.529700    66A     -0.521602
      67A     -0.513198    68A     -0.502292    69A     -0.497060
      70A     -0.484083    71A     -0.479839    72A     -0.476476
      73A     -0.462396    74A     -0.453097    75A     -0.450129
      76A     -0.434707

  @DF-RHF Final Energy: -1327.85444791008808

   => Energetics <=

    Nuclear Repulsion Energy =           1771.8696520827188579
    One-Electron Energy =               -5355.8920959572060383
    Two-Electron Energy =                2256.1679959643988695
    Total Energy =                      -1327.8544479100883109
  Basis Set: (AUG-CC-PVTZ AUX)
    Blend: AUG-CC-PVTZ-RI
    Molecular point group: c1

    Geometry (in Angstrom), charge = 0, multiplicity = 1:

       Center              X                  Y                   Z               Mass
    ------------   -----------------  -----------------  -----------------  -----------------
         P           -2.290181866750    -0.939965600908     0.344347780372    30.973761998420
         O           -0.982238866750    -0.201484600908     0.937958780372    15.994914619570
         O            1.342164133250    -1.675405600908     1.230520780372    15.994914619570
         O            0.078619133250     2.359681399092     0.461837780372    15.994914619570
         O            3.068429133250    -2.186994600908    -0.808920219628    15.994914619570
         O            2.847249133250     2.503190399092     0.371204780372    15.994914619570
         O            4.195602133250     0.435474399092    -0.973204219628    15.994914619570
         O           -2.826948866750     0.033428399092    -0.807861219628    15.994914619570
         O           -3.259206866750    -0.723204600908     1.621340780372    15.994914619570
         O           -2.119078866750    -2.343566600908    -0.099998219628    15.994914619570
         C            0.118076133250     0.030086399092     0.015988780372    12.000000000000
         C            0.953206133250    -1.244127600908    -0.076055219628    12.000000000000
         C            0.898503133250     1.202721399092     0.564520780372    12.000000000000
         C            2.259574133250    -1.014229600908    -0.818367219628    12.000000000000
         C            2.176989133250     1.396549399092    -0.228371219628    12.000000000000
         C            3.025756133250     0.148782399092    -0.210652219628    12.000000000000
         C           -3.124298866750     1.431675399092    -0.489216219628    12.000000000000
         C           -3.536402866750     2.085242399092    -1.784449219628    12.000000000000
         H           -0.283177866750     0.298878399092    -0.970568219628     1.007825032230
         H            0.370183133250    -2.029286600908    -0.572362219628     1.007825032230
         H            1.157034133250     0.997954399092     1.611825780372     1.007825032230
         H            2.060848133250    -0.788582600908    -1.873086219628     1.007825032230
         H            1.916901133250     1.636364399092    -1.273913219628     1.007825032230
         H            3.320321333250    -0.116572100908     0.921697980372     1.007825032230
         H            0.521689133250    -1.887954600908     1.711179780372     1.007825032230
         H            0.665454133250     3.109388399092     0.682853780372     1.007825032230
         H            2.973457133250    -2.547296600908     0.094323780372     1.007825032230
         H            3.721343133250     2.549263399092    -0.059199219628     1.007825032230
         H            4.639641133250    -0.423756600908    -1.097417219628     1.007825032230
         H           -3.808480866750    -1.522260600908     1.734397780372     1.007825032230
         H           -3.930631866750     1.445618399092     0.249055780372     1.007825032230
         H           -2.229847866750     1.892957399092    -0.059426219628     1.007825032230
         H           -3.800606866750     3.130959399092    -1.603001219628     1.007825032230
         H           -2.717281866750     2.053400399092    -2.505205219628     1.007825032230
         H           -4.401029866750     1.574400399092    -2.213054219628     1.007825032230

  Basis Set: AUG-CC-PVTZ
    Blend: AUG-CC-PVTZ
  Basis Set: (AUG-CC-PVTZ AUX)
    Blend: AUG-CC-PVTZ-JKFIT
	 Reference Energy          =   -1327.8544479100880835 [Eh]
	 Singles Energy            =      -0.0000000000000000 [Eh]
	 Same-Spin Energy          =      -1.0149171974236730 [Eh]
	 Opposite-Spin Energy      =      -3.0771510208527206 [Eh]
	 Correlation Energy        =      -4.0920682182763937 [Eh]
	 Total Energy              =   -1331.9465161283644647 [Eh]

	 ================> DF-SCS-MP2 Energies <==================
	-----------------------------------------------------------
	 SCS Same-Spin Scale       =       0.3333333333333333 [-]
	 SCS Opposite-Spin Scale   =       1.2000000000000000 [-]
	 SCS Same-Spin Energy      =      -0.3383057324745576 [Eh]
	 SCS Opposite-Spin Energy  =      -3.6925812250232646 [Eh]
	 SCS Correlation Energy    =      -4.0308869574978221 [Eh]
	 SCS Total Energy          =   -1331.8853348675859252 [Eh]
	-----------------------------------------------------------

  Dipole Moment: [D]
     X:    -1.1058      Y:     1.8770      Z:     0.6709     Total:     2.2794

*** Psi4 exiting successfully. Buy a developer a beer!
