                               Psi4 1.3.2 release

  ==> Input File <==

--------------------------------------------------------------------------
#psi4
#
memory 32 gb

molecule  {
0 1
  P       -2.2900960    -0.9400430     0.3446780
  O       -1.0631368    -0.2472865     0.9015344
  O        1.3422500    -1.6754830     1.2308510
  O        0.0787050     2.3596040     0.4621680
  O        3.0685150    -2.1870720    -0.8085900
  O        2.8473350     2.5031130     0.3715350
  O        4.1956880     0.4353970    -0.9728740
  O       -2.8268630     0.0333510    -0.8075310
  O       -3.2591210    -0.7232820     1.6216710
  O       -2.1189930    -2.3436440    -0.0996680
  C        0.1181620     0.0300090     0.0163190
  C        0.9532920    -1.2442050    -0.0757250
  C        0.8985890     1.2026440     0.5648510
  C        2.2596600    -1.0143070    -0.8180370
  C        2.1770750     1.3964720    -0.2280410
  C        3.0258420     0.1487050    -0.2103220
  C       -3.1242130     1.4315980    -0.4888860
  C       -3.5363170     2.0851650    -1.7841190
  H       -0.2830920     0.2988010    -0.9702380
  H        0.3702690    -2.0293640    -0.5720320
  H        1.1571200     0.9978770     1.6121560
  H        2.0609340    -0.7886600    -1.8727560
  H        1.9169870     1.6362870    -1.2735830
  H        3.2958550    -0.0945320     0.8276460
  H        0.5217750    -1.8880320     1.7115100
  H        0.6655400     3.1093110     0.6831840
  H        2.9735430    -2.5473740     0.0946540
  H        3.7214290     2.5491860    -0.0588690
  H        4.6397270    -0.4238340    -1.0970870
  H       -3.8083950    -1.5223380     1.7347280
  H       -3.9305460     1.4455410     0.2493860
  H       -2.2297620     1.8928800    -0.0590960
  H       -3.8005210     3.1308820    -1.6026710
  H       -2.7171960     2.0533230    -2.5048750
  H       -4.4009440     1.5743230    -2.2127240
units angstrom
no_reorient  #important for SAPT in psi4, default
symmetry c1  #important for SAPT in psi4, default
}

set PROPERTIES_ORIGIN ["COM"]
properties('MP2/aug-cc-pvtz', properties = ['dipole'])
--------------------------------------------------------------------------

    Molecular point group: c1
  Charge       = 0
  Multiplicity = 1
  Basis Set: AUG-CC-PVTZ
    Blend: AUG-CC-PVTZ
  Basis Set: (AUG-CC-PVTZ AUX)
    Blend: AUG-CC-PVTZ-JKFIT

    Orbital Energies [Eh]
    ---------------------

    Doubly Occupied:

       1A    -80.100020     2A    -20.605603     3A    -20.605089
       4A    -20.589246     5A    -20.587325     6A    -20.581359
       7A    -20.578286     8A    -20.577971     9A    -20.577526
      10A    -20.512197    11A    -11.334230    12A    -11.309531
      13A    -11.306743    14A    -11.303798    15A    -11.302741
      16A    -11.295581    17A    -11.295572    18A    -11.227257
      19A     -7.618046    20A     -5.516818    21A     -5.516166
      22A     -5.514781    23A     -1.470395    24A     -1.412262
      25A     -1.398198    26A     -1.393702    27A     -1.379646
      28A     -1.377633    29A     -1.368162    30A     -1.358102
      31A     -1.294118    32A     -1.127274    33A     -1.036997
      34A     -1.021000    35A     -1.008536    36A     -0.884398
      37A     -0.863719    38A     -0.862306    39A     -0.821352
      40A     -0.812096    41A     -0.754902    42A     -0.748441
      43A     -0.734235    44A     -0.729589    45A     -0.710013
      46A     -0.690678    47A     -0.681034    48A     -0.673025
      49A     -0.664982    50A     -0.659455    51A     -0.645276
      52A     -0.638845    53A     -0.628094    54A     -0.615312
      55A     -0.606739    56A     -0.602570    57A     -0.583324
      58A     -0.575296    59A     -0.569896    60A     -0.562270
      61A     -0.557009    62A     -0.549419    63A     -0.540951
      64A     -0.537089    65A     -0.529758    66A     -0.525105
      67A     -0.513732    68A     -0.506497    69A     -0.496286
      70A     -0.487821    71A     -0.476178    72A     -0.468759
      73A     -0.464847    74A     -0.460157    75A     -0.454041
      76A     -0.439829

  @DF-RHF Final Energy: -1327.85883881611880

   => Energetics <=

    Nuclear Repulsion Energy =           1774.3061002200217899
    One-Electron Energy =               -5360.6754020315929665
    Two-Electron Energy =                2258.5104629954521442
    Total Energy =                      -1327.8588388161188050
  Basis Set: (AUG-CC-PVTZ AUX)
    Blend: AUG-CC-PVTZ-RI
    Molecular point group: c1

    Geometry (in Angstrom), charge = 0, multiplicity = 1:

       Center              X                  Y                   Z               Mass
    ------------   -----------------  -----------------  -----------------  -----------------
         P           -2.285599249871    -0.937504077632     0.346718831598    30.973761998420
         O           -1.058640049871    -0.244747577632     0.903575231598    15.994914619570
         O            1.346746750129    -1.672944077632     1.232891831598    15.994914619570
         O            0.083201750129     2.362142922368     0.464208831598    15.994914619570
         O            3.073011750129    -2.184533077632    -0.806549168402    15.994914619570
         O            2.851831750129     2.505651922368     0.373575831598    15.994914619570
         O            4.200184750129     0.437935922368    -0.970833168402    15.994914619570
         O           -2.822366249871     0.035889922368    -0.805490168402    15.994914619570
         O           -3.254624249871    -0.720743077632     1.623711831598    15.994914619570
         O           -2.114496249871    -2.341105077632    -0.097627168402    15.994914619570
         C            0.122658750129     0.032547922368     0.018359831598    12.000000000000
         C            0.957788750129    -1.241666077632    -0.073684168402    12.000000000000
         C            0.903085750129     1.205182922368     0.566891831598    12.000000000000
         C            2.264156750129    -1.011768077632    -0.815996168402    12.000000000000
         C            2.181571750129     1.399010922368    -0.226000168402    12.000000000000
         C            3.030338750129     0.151243922368    -0.208281168402    12.000000000000
         C           -3.119716249871     1.434136922368    -0.486845168402    12.000000000000
         C           -3.531820249871     2.087703922368    -1.782078168402    12.000000000000
         H           -0.278595249871     0.301339922368    -0.968197168402     1.007825032230
         H            0.374765750129    -2.026825077632    -0.569991168402     1.007825032230
         H            1.161616750129     1.000415922368     1.614196831598     1.007825032230
         H            2.065430750129    -0.786121077632    -1.870715168402     1.007825032230
         H            1.921483750129     1.638825922368    -1.271542168402     1.007825032230
         H            3.300351750129    -0.091993077632     0.829686831598     1.007825032230
         H            0.526271750129    -1.885493077632     1.713550831598     1.007825032230
         H            0.670036750129     3.111849922368     0.685224831598     1.007825032230
         H            2.978039750129    -2.544835077632     0.096694831598     1.007825032230
         H            3.725925750129     2.551724922368    -0.056828168402     1.007825032230
         H            4.644223750129    -0.421295077632    -1.095046168402     1.007825032230
         H           -3.803898249871    -1.519799077632     1.736768831598     1.007825032230
         H           -3.926049249871     1.448079922368     0.251426831598     1.007825032230
         H           -2.225265249871     1.895418922368    -0.057055168402     1.007825032230
         H           -3.796024249871     3.133420922368    -1.600630168402     1.007825032230
         H           -2.712699249871     2.055861922368    -2.502834168402     1.007825032230
         H           -4.396447249871     1.576861922368    -2.210683168402     1.007825032230

  Basis Set: AUG-CC-PVTZ
    Blend: AUG-CC-PVTZ
  Basis Set: (AUG-CC-PVTZ AUX)
    Blend: AUG-CC-PVTZ-JKFIT
	 Reference Energy          =   -1327.8588388161188050 [Eh]
	 Singles Energy            =      -0.0000000000000000 [Eh]
	 Same-Spin Energy          =      -1.0131481049061446 [Eh]
	 Opposite-Spin Energy      =      -3.0728391219059787 [Eh]
	 Correlation Energy        =      -4.0859872268121231 [Eh]
	 Total Energy              =   -1331.9448260429310267 [Eh]

	 ================> DF-SCS-MP2 Energies <==================
	-----------------------------------------------------------
	 SCS Same-Spin Scale       =       0.3333333333333333 [-]
	 SCS Opposite-Spin Scale   =       1.2000000000000000 [-]
	 SCS Same-Spin Energy      =      -0.3377160349687148 [Eh]
	 SCS Opposite-Spin Energy  =      -3.6874069462871741 [Eh]
	 SCS Correlation Energy    =      -4.0251229812558886 [Eh]
	 SCS Total Energy          =   -1331.8839617973746954 [Eh]
	-----------------------------------------------------------

  Dipole Moment: [D]
     X:    -0.2609      Y:     2.1103      Z:     0.7876     Total:     2.2676

*** Psi4 exiting successfully. Buy a developer a beer!
