                               Psi4 1.3.2 release

  ==> Input File <==

--------------------------------------------------------------------------
#psi4
#
memory 32 gb

molecule  {
0 1
  P       -2.2900960    -0.9400430     0.3446780
  O       -0.9821530    -0.2015620     0.9382890
  O        1.3422500    -1.6754830     1.2308510
  O        0.0787050     2.3596040     0.4621680
  O        3.0685150    -2.1870720    -0.8085900
  O        2.8473350     2.5031130     0.3715350
  O        4.1984886     0.4446196    -0.9650088
  O       -2.8268630     0.0333510    -0.8075310
  O       -3.2591210    -0.7232820     1.6216710
  O       -2.1189930    -2.3436440    -0.0996680
  C        0.1181620     0.0300090     0.0163190
  C        0.9532920    -1.2442050    -0.0757250
  C        0.8985890     1.2026440     0.5648510
  C        2.2505841    -1.0132751    -0.8084246
  C        2.1770750     1.3964720    -0.2280410
  C        3.0258420     0.1487050    -0.2103220
  C       -3.1242130     1.4315980    -0.4888860
  C       -3.5363170     2.0851650    -1.7841190
  H       -0.2830920     0.2988010    -0.9702380
  H        0.3702690    -2.0293640    -0.5720320
  H        1.1571200     0.9978770     1.6121560
  H        2.0609340    -0.7886600    -1.8727560
  H        1.9169870     1.6362870    -1.2735830
  H        3.2958550    -0.0945320     0.8276460
  H        0.5217750    -1.8880320     1.7115100
  H        0.6655400     3.1093110     0.6831840
  H        2.9735430    -2.5473740     0.0946540
  H        3.7214290     2.5491860    -0.0588690
  H        4.6397270    -0.4238340    -1.0970870
  H       -3.8083950    -1.5223380     1.7347280
  H       -3.9305460     1.4455410     0.2493860
  H       -2.2297620     1.8928800    -0.0590960
  H       -3.8005210     3.1308820    -1.6026710
  H       -2.7171960     2.0533230    -2.5048750
  H       -4.4009440     1.5743230    -2.2127240
units angstrom
no_reorient  #important for SAPT in psi4, default
symmetry c1  #important for SAPT in psi4, default
}

set PROPERTIES_ORIGIN ["COM"]
properties('MP2/aug-cc-pvtz', properties = ['dipole'])
--------------------------------------------------------------------------

    Molecular point group: c1
  Charge       = 0
  Multiplicity = 1
  Basis Set: AUG-CC-PVTZ
    Blend: AUG-CC-PVTZ
  Basis Set: (AUG-CC-PVTZ AUX)
    Blend: AUG-CC-PVTZ-JKFIT

    Orbital Energies [Eh]
    ---------------------

    Doubly Occupied:

       1A    -80.117138     2A    -20.614886     3A    -20.607314
       4A    -20.599083     5A    -20.583416     6A    -20.576489
       7A    -20.575443     8A    -20.574580     9A    -20.573484
      10A    -20.523650    11A    -11.321144    12A    -11.303803
      13A    -11.299887    14A    -11.299485    15A    -11.298652
      16A    -11.296443    17A    -11.291537    18A    -11.229938
      19A     -7.632588    20A     -5.531094    21A     -5.530721
      22A     -5.529520    23A     -1.460498    24A     -1.410823
      25A     -1.394518    26A     -1.392721    27A     -1.386949
      28A     -1.372493    29A     -1.363381    30A     -1.352961
      31A     -1.304043    32A     -1.120146    33A     -1.040554
      34A     -1.011968    35A     -1.004984    36A     -0.880608
      37A     -0.865111    38A     -0.858404    39A     -0.822221
      40A     -0.810487    41A     -0.752132    42A     -0.745122
      43A     -0.731670    44A     -0.728793    45A     -0.708110
      46A     -0.687176    47A     -0.677810    48A     -0.673698
      49A     -0.661703    50A     -0.659552    51A     -0.643402
      52A     -0.634781    53A     -0.627240    54A     -0.615354
      55A     -0.603453    56A     -0.597851    57A     -0.581774
      58A     -0.575576    59A     -0.571449    60A     -0.559291
      61A     -0.556377    62A     -0.548514    63A     -0.541214
      64A     -0.536433    65A     -0.530186    66A     -0.521842
      67A     -0.513267    68A     -0.504902    69A     -0.497285
      70A     -0.485472    71A     -0.480028    72A     -0.476831
      73A     -0.462680    74A     -0.455367    75A     -0.450468
      76A     -0.437133

  @DF-RHF Final Energy: -1327.86016839864624

   => Energetics <=

    Nuclear Repulsion Energy =           1772.6001345610773114
    One-Electron Energy =               -5357.3264023455394636
    Two-Electron Energy =                2256.8660993858156871
    Total Energy =                      -1327.8601683986462376
  Basis Set: (AUG-CC-PVTZ AUX)
    Blend: AUG-CC-PVTZ-RI
    Molecular point group: c1

    Geometry (in Angstrom), charge = 0, multiplicity = 1:

       Center              X                  Y                   Z               Mass
    ------------   -----------------  -----------------  -----------------  -----------------
         P           -2.289873391261    -0.940598064371     0.343840834798    30.973761998420
         O           -0.981930391261    -0.202117064371     0.937451834798    15.994914619570
         O            1.342472608739    -1.676038064371     1.230013834798    15.994914619570
         O            0.078927608739     2.359048935629     0.461330834798    15.994914619570
         O            3.068737608739    -2.187627064371    -0.809427165202    15.994914619570
         O            2.847557608739     2.502557935629     0.370697834798    15.994914619570
         O            4.198711208739     0.444064535629    -0.965845965202    15.994914619570
         O           -2.826640391261     0.032795935629    -0.808368165202    15.994914619570
         O           -3.258898391261    -0.723837064371     1.620833834798    15.994914619570
         O           -2.118770391261    -2.344199064371    -0.100505165202    15.994914619570
         C            0.118384608739     0.029453935629     0.015481834798    12.000000000000
         C            0.953514608739    -1.244760064371    -0.076562165202    12.000000000000
         C            0.898811608739     1.202088935629     0.564013834798    12.000000000000
         C            2.250806708739    -1.013830164371    -0.809261765202    12.000000000000
         C            2.177297608739     1.395916935629    -0.228878165202    12.000000000000
         C            3.026064608739     0.148149935629    -0.211159165202    12.000000000000
         C           -3.123990391261     1.431042935629    -0.489723165202    12.000000000000
         C           -3.536094391261     2.084609935629    -1.784956165202    12.000000000000
         H           -0.282869391261     0.298245935629    -0.971075165202     1.007825032230
         H            0.370491608739    -2.029919064371    -0.572869165202     1.007825032230
         H            1.157342608739     0.997321935629     1.611318834798     1.007825032230
         H            2.061156608739    -0.789215064371    -1.873593165202     1.007825032230
         H            1.917209608739     1.635731935629    -1.274420165202     1.007825032230
         H            3.296077608739    -0.095087064371     0.826808834798     1.007825032230
         H            0.521997608739    -1.888587064371     1.710672834798     1.007825032230
         H            0.665762608739     3.108755935629     0.682346834798     1.007825032230
         H            2.973765608739    -2.547929064371     0.093816834798     1.007825032230
         H            3.721651608739     2.548630935629    -0.059706165202     1.007825032230
         H            4.639949608739    -0.424389064371    -1.097924165202     1.007825032230
         H           -3.808172391261    -1.522893064371     1.733890834798     1.007825032230
         H           -3.930323391261     1.444985935629     0.248548834798     1.007825032230
         H           -2.229539391261     1.892324935629    -0.059933165202     1.007825032230
         H           -3.800298391261     3.130326935629    -1.603508165202     1.007825032230
         H           -2.716973391261     2.052767935629    -2.505712165202     1.007825032230
         H           -4.400721391261     1.573767935629    -2.213561165202     1.007825032230

  Basis Set: AUG-CC-PVTZ
    Blend: AUG-CC-PVTZ
  Basis Set: (AUG-CC-PVTZ AUX)
    Blend: AUG-CC-PVTZ-JKFIT
	 Reference Energy          =   -1327.8601683986462376 [Eh]
	 Singles Energy            =      -0.0000000000000000 [Eh]
	 Same-Spin Energy          =      -1.0148756587766514 [Eh]
	 Opposite-Spin Energy      =      -3.0766617455252643 [Eh]
	 Correlation Energy        =      -4.0915374043019153 [Eh]
	 Total Energy              =   -1331.9517058029482541 [Eh]

	 ================> DF-SCS-MP2 Energies <==================
	-----------------------------------------------------------
	 SCS Same-Spin Scale       =       0.3333333333333333 [-]
	 SCS Opposite-Spin Scale   =       1.2000000000000000 [-]
	 SCS Same-Spin Energy      =      -0.3382918862588838 [Eh]
	 SCS Opposite-Spin Energy  =      -3.6919940946303171 [Eh]
	 SCS Correlation Energy    =      -4.0302859808892011 [Eh]
	 SCS Total Energy          =   -1331.8904543795354130 [Eh]
	-----------------------------------------------------------

  Dipole Moment: [D]
     X:    -1.1395      Y:     1.8541      Z:     0.7135     Total:     2.2902

*** Psi4 exiting successfully. Buy a developer a beer!
