                               Psi4 1.3.2 release

  ==> Input File <==

--------------------------------------------------------------------------
#psi4
#
memory 32 gb

molecule  {
0 1
  P       -2.2900960    -0.9400430     0.3446780
  O       -0.9821530    -0.2015620     0.9382890
  O        1.3422500    -1.6754830     1.2308510
  O        0.0787050     2.3596040     0.4621680
  O        3.1197536    -2.1496769    -0.8478267
  O        2.8473350     2.5031130     0.3715350
  O        4.1956880     0.4353970    -0.9728740
  O       -2.8268630     0.0333510    -0.8075310
  O       -3.2591210    -0.7232820     1.6216710
  O       -2.1189930    -2.3436440    -0.0996680
  C        0.1181620     0.0300090     0.0163190
  C        0.9330662    -1.1690467    -0.0923084
  C        0.8985890     1.2026440     0.5648510
  C        2.2596600    -1.0143070    -0.8180370
  C        2.1770750     1.3964720    -0.2280410
  C        3.0258420     0.1487050    -0.2103220
  C       -3.1242130     1.4315980    -0.4888860
  C       -3.5363170     2.0851650    -1.7841190
  H       -0.2830920     0.2988010    -0.9702380
  H        0.3702690    -2.0293640    -0.5720320
  H        1.1571200     0.9978770     1.6121560
  H        2.0609340    -0.7886600    -1.8727560
  H        1.9169870     1.6362870    -1.2735830
  H        3.2958550    -0.0945320     0.8276460
  H        0.5217750    -1.8880320     1.7115100
  H        0.6655400     3.1093110     0.6831840
  H        2.9735430    -2.5473740     0.0946540
  H        3.7214290     2.5491860    -0.0588690
  H        4.6397270    -0.4238340    -1.0970870
  H       -3.8083950    -1.5223380     1.7347280
  H       -3.9305460     1.4455410     0.2493860
  H       -2.2297620     1.8928800    -0.0590960
  H       -3.8005210     3.1308820    -1.6026710
  H       -2.7171960     2.0533230    -2.5048750
  H       -4.4009440     1.5743230    -2.2127240
units angstrom
no_reorient  #important for SAPT in psi4, default
symmetry c1  #important for SAPT in psi4, default
}

set PROPERTIES_ORIGIN ["COM"]
properties('MP2/aug-cc-pvtz', properties = ['dipole'])
--------------------------------------------------------------------------

    Molecular point group: c1
  Charge       = 0
  Multiplicity = 1
  Basis Set: AUG-CC-PVTZ
    Blend: AUG-CC-PVTZ
  Basis Set: (AUG-CC-PVTZ AUX)
    Blend: AUG-CC-PVTZ-JKFIT

    Orbital Energies [Eh]
    ---------------------

    Doubly Occupied:

       1A    -80.118166     2A    -20.615643     3A    -20.609841
       4A    -20.600079     5A    -20.583353     6A    -20.579954
       7A    -20.576551     8A    -20.574223     9A    -20.571603
      10A    -20.524045    11A    -11.322176    12A    -11.307361
      13A    -11.300655    14A    -11.300269    15A    -11.299753
      16A    -11.296527    17A    -11.289567    18A    -11.230547
      19A     -7.633621    20A     -5.532126    21A     -5.531757
      22A     -5.530540    23A     -1.462127    24A     -1.408330
      25A     -1.394857    26A     -1.388095    27A     -1.387333
      28A     -1.368673    29A     -1.360085    30A     -1.348478
      31A     -1.304510    32A     -1.128248    33A     -1.041334
      34A     -1.019526    35A     -1.003082    36A     -0.879541
      37A     -0.865180    38A     -0.860142    39A     -0.823531
      40A     -0.808630    41A     -0.753460    42A     -0.744814
      43A     -0.730720    44A     -0.727973    45A     -0.709085
      46A     -0.687108    47A     -0.674084    48A     -0.671374
      49A     -0.661231    50A     -0.654371    51A     -0.644857
      52A     -0.634063    53A     -0.627140    54A     -0.613951
      55A     -0.604540    56A     -0.597961    57A     -0.582402
      58A     -0.576631    59A     -0.570620    60A     -0.559882
      61A     -0.554663    62A     -0.547788    63A     -0.540900
      64A     -0.534112    65A     -0.526562    66A     -0.520003
      67A     -0.513238    68A     -0.504796    69A     -0.496115
      70A     -0.493981    71A     -0.480645    72A     -0.477741
      73A     -0.465394    74A     -0.455254    75A     -0.453602
      76A     -0.432233

  @DF-RHF Final Energy: -1327.84428467333373

   => Energetics <=

    Nuclear Repulsion Energy =           1772.8660339587397630
    One-Electron Energy =               -5357.8139388842291737
    Two-Electron Energy =                2257.1036202521559062
    Total Energy =                      -1327.8442846733337319
  Basis Set: (AUG-CC-PVTZ AUX)
    Blend: AUG-CC-PVTZ-RI
    Molecular point group: c1

    Geometry (in Angstrom), charge = 0, multiplicity = 1:

       Center              X                  Y                   Z               Mass
    ------------   -----------------  -----------------  -----------------  -----------------
         P           -2.292098485361    -0.945250320119     0.347547481647    30.973761998420
         O           -0.984155485361    -0.206769320119     0.941158481647    15.994914619570
         O            1.340247514639    -1.680690320119     1.233720481647    15.994914619570
         O            0.076702514639     2.354396679881     0.465037481647    15.994914619570
         O            3.117751114639    -2.154884220119    -0.844957218353    15.994914619570
         O            2.845332514639     2.497905679881     0.374404481647    15.994914619570
         O            4.193685514639     0.430189679881    -0.970004518353    15.994914619570
         O           -2.828865485361     0.028143679881    -0.804661518353    15.994914619570
         O           -3.261123485361    -0.728489320119     1.624540481647    15.994914619570
         O           -2.120995485361    -2.348851320119    -0.096798518353    15.994914619570
         C            0.116159514639     0.024801679881     0.019188481647    12.000000000000
         C            0.931063714639    -1.174254020119    -0.089438918353    12.000000000000
         C            0.896586514639     1.197436679881     0.567720481647    12.000000000000
         C            2.257657514639    -1.019514320119    -0.815167518353    12.000000000000
         C            2.175072514639     1.391264679881    -0.225171518353    12.000000000000
         C            3.023839514639     0.143497679881    -0.207452518353    12.000000000000
         C           -3.126215485361     1.426390679881    -0.486016518353    12.000000000000
         C           -3.538319485361     2.079957679881    -1.781249518353    12.000000000000
         H           -0.285094485361     0.293593679881    -0.967368518353     1.007825032230
         H            0.368266514639    -2.034571320119    -0.569162518353     1.007825032230
         H            1.155117514639     0.992669679881     1.615025481647     1.007825032230
         H            2.058931514639    -0.793867320119    -1.869886518353     1.007825032230
         H            1.914984514639     1.631079679881    -1.270713518353     1.007825032230
         H            3.293852514639    -0.099739320119     0.830515481647     1.007825032230
         H            0.519772514639    -1.893239320119     1.714379481647     1.007825032230
         H            0.663537514639     3.104103679881     0.686053481647     1.007825032230
         H            2.971540514639    -2.552581320119     0.097523481647     1.007825032230
         H            3.719426514639     2.543978679881    -0.055999518353     1.007825032230
         H            4.637724514639    -0.429041320119    -1.094217518353     1.007825032230
         H           -3.810397485361    -1.527545320119     1.737597481647     1.007825032230
         H           -3.932548485361     1.440333679881     0.252255481647     1.007825032230
         H           -2.231764485361     1.887672679881    -0.056226518353     1.007825032230
         H           -3.802523485361     3.125674679881    -1.599801518353     1.007825032230
         H           -2.719198485361     2.048115679881    -2.502005518353     1.007825032230
         H           -4.402946485361     1.569115679881    -2.209854518353     1.007825032230

  Basis Set: AUG-CC-PVTZ
    Blend: AUG-CC-PVTZ
  Basis Set: (AUG-CC-PVTZ AUX)
    Blend: AUG-CC-PVTZ-JKFIT
	 Reference Energy          =   -1327.8442846733337319 [Eh]
	 Singles Energy            =      -0.0000000000000000 [Eh]
	 Same-Spin Energy          =      -1.0165966739906129 [Eh]
	 Opposite-Spin Energy      =      -3.0802248146273574 [Eh]
	 Correlation Energy        =      -4.0968214886179704 [Eh]
	 Total Energy              =   -1331.9411061619516659 [Eh]

	 ================> DF-SCS-MP2 Energies <==================
	-----------------------------------------------------------
	 SCS Same-Spin Scale       =       0.3333333333333333 [-]
	 SCS Opposite-Spin Scale   =       1.2000000000000000 [-]
	 SCS Same-Spin Energy      =      -0.3388655579968710 [Eh]
	 SCS Opposite-Spin Energy  =      -3.6962697775528288 [Eh]
	 SCS Correlation Energy    =      -4.0351353355496995 [Eh]
	 SCS Total Energy          =   -1331.8794200088834714 [Eh]
	-----------------------------------------------------------

  Dipole Moment: [D]
     X:    -1.2806      Y:     1.8545      Z:     0.6920     Total:     2.3575

*** Psi4 exiting successfully. Buy a developer a beer!
