                               Psi4 1.3.2 release

  ==> Input File <==

--------------------------------------------------------------------------
#psi4
#
memory 32 gb

molecule  {
0 1
  P       -2.2900960    -0.9400430     0.3446780
  O       -0.9821530    -0.2015620     0.9382890
  O        1.3422500    -1.6754830     1.2308510
  O        0.0787050     2.3596040     0.4621680
  O        3.0685150    -2.1870720    -0.8085900
  O        2.8473350     2.5031130     0.3715350
  O        4.1956880     0.4353970    -0.9728740
  O       -2.8268630     0.0333510    -0.8075310
  O       -3.2591210    -0.7232820     1.6216710
  O       -2.1189930    -2.3436440    -0.0996680
  C        0.1181620     0.0300090     0.0163190
  C        0.9532920    -1.2442050    -0.0757250
  C        0.8985890     1.2026440     0.5648510
  C        2.2596600    -1.0143070    -0.8180370
  C        2.1573101     1.4008853    -0.2135751
  C        3.0258420     0.1487050    -0.2103220
  C       -3.1242130     1.4315980    -0.4888860
  C       -3.5363170     2.0851650    -1.7841190
  H       -0.2830920     0.2988010    -0.9702380
  H        0.3702690    -2.0293640    -0.5720320
  H        1.1571200     0.9978770     1.6121560
  H        2.0609340    -0.7886600    -1.8727560
  H        1.9169870     1.6362870    -1.2735830
  H        3.2958550    -0.0945320     0.8276460
  H        0.5217750    -1.8880320     1.7115100
  H        0.6655400     3.1093110     0.6831840
  H        2.9735430    -2.5473740     0.0946540
  H        3.7252939     2.5626814    -0.0492385
  H        4.6397270    -0.4238340    -1.0970870
  H       -3.8083950    -1.5223380     1.7347280
  H       -3.9305460     1.4455410     0.2493860
  H       -2.2297620     1.8928800    -0.0590960
  H       -3.8005210     3.1308820    -1.6026710
  H       -2.7171960     2.0533230    -2.5048750
  H       -4.4009440     1.5743230    -2.2127240
units angstrom
no_reorient  #important for SAPT in psi4, default
symmetry c1  #important for SAPT in psi4, default
}

set PROPERTIES_ORIGIN ["COM"]
properties('MP2/aug-cc-pvtz', properties = ['dipole'])
--------------------------------------------------------------------------

    Molecular point group: c1
  Charge       = 0
  Multiplicity = 1
  Basis Set: AUG-CC-PVTZ
    Blend: AUG-CC-PVTZ
  Basis Set: (AUG-CC-PVTZ AUX)
    Blend: AUG-CC-PVTZ-JKFIT

    Orbital Energies [Eh]
    ---------------------

    Doubly Occupied:

       1A    -80.117176     2A    -20.614909     3A    -20.607452
       4A    -20.599097     5A    -20.583170     6A    -20.575892
       7A    -20.574162     8A    -20.574025     9A    -20.573499
      10A    -20.523600    11A    -11.321470    12A    -11.303581
      13A    -11.299495    14A    -11.298847    15A    -11.298293
      16A    -11.297316    17A    -11.291825    18A    -11.229928
      19A     -7.632623    20A     -5.531129    21A     -5.530758
      22A     -5.529553    23A     -1.460551    24A     -1.410786
      25A     -1.394167    26A     -1.393193    27A     -1.387008
      28A     -1.372828    29A     -1.363544    30A     -1.353359
      31A     -1.303996    32A     -1.120037    33A     -1.040537
      34A     -1.010521    35A     -1.005929    36A     -0.881555
      37A     -0.865350    38A     -0.857957    39A     -0.822740
      40A     -0.810379    41A     -0.751822    42A     -0.744716
      43A     -0.731405    44A     -0.728983    45A     -0.708813
      46A     -0.687235    47A     -0.677964    48A     -0.673751
      49A     -0.662368    50A     -0.661045    51A     -0.644039
      52A     -0.635657    53A     -0.627141    54A     -0.614922
      55A     -0.604213    56A     -0.598243    57A     -0.581663
      58A     -0.575679    59A     -0.571224    60A     -0.558651
      61A     -0.555672    62A     -0.548886    63A     -0.541175
      64A     -0.535378    65A     -0.530097    66A     -0.522738
      67A     -0.512799    68A     -0.504126    69A     -0.497608
      70A     -0.485126    71A     -0.480039    72A     -0.476743
      73A     -0.464284    74A     -0.453080    75A     -0.450019
      76A     -0.435708

  @DF-RHF Final Energy: -1327.86100151687947

   => Energetics <=

    Nuclear Repulsion Energy =           1772.6131600674036690
    One-Electron Energy =               -5357.3578352379226999
    Two-Electron Energy =                2256.8836736536400167
    Total Energy =                      -1327.8610015168792415
  Basis Set: (AUG-CC-PVTZ AUX)
    Blend: AUG-CC-PVTZ-RI
    Molecular point group: c1

    Geometry (in Angstrom), charge = 0, multiplicity = 1:

       Center              X                  Y                   Z               Mass
    ------------   -----------------  -----------------  -----------------  -----------------
         P           -2.289286126050    -0.940274046571     0.344041678854    30.973761998420
         O           -0.981343126050    -0.201793046571     0.937652678854    15.994914619570
         O            1.343059873950    -1.675714046571     1.230214678854    15.994914619570
         O            0.079514873950     2.359372953429     0.461531678854    15.994914619570
         O            3.069324873950    -2.187303046571    -0.809226321146    15.994914619570
         O            2.848144873950     2.502881953429     0.370898678854    15.994914619570
         O            4.196497873950     0.435165953429    -0.973510321146    15.994914619570
         O           -2.826053126050     0.033119953429    -0.808167321146    15.994914619570
         O           -3.258311126050    -0.723513046571     1.621034678854    15.994914619570
         O           -2.118183126050    -2.343875046571    -0.100304321146    15.994914619570
         C            0.118971873950     0.029777953429     0.015682678854    12.000000000000
         C            0.954101873950    -1.244436046571    -0.076361321146    12.000000000000
         C            0.899398873950     1.202412953429     0.564214678854    12.000000000000
         C            2.260469873950    -1.014538046571    -0.818673321146    12.000000000000
         C            2.158119973950     1.400654253429    -0.214211421146    12.000000000000
         C            3.026651873950     0.148473953429    -0.210958321146    12.000000000000
         C           -3.123403126050     1.431366953429    -0.489522321146    12.000000000000
         C           -3.535507126050     2.084933953429    -1.784755321146    12.000000000000
         H           -0.282282126050     0.298569953429    -0.970874321146     1.007825032230
         H            0.371078873950    -2.029595046571    -0.572668321146     1.007825032230
         H            1.157929873950     0.997645953429     1.611519678854     1.007825032230
         H            2.061743873950    -0.788891046571    -1.873392321146     1.007825032230
         H            1.917796873950     1.636055953429    -1.274219321146     1.007825032230
         H            3.296664873950    -0.094763046571     0.827009678854     1.007825032230
         H            0.522584873950    -1.888263046571     1.710873678854     1.007825032230
         H            0.666349873950     3.109079953429     0.682547678854     1.007825032230
         H            2.974352873950    -2.547605046571     0.094017678854     1.007825032230
         H            3.726103773950     2.562450353429    -0.049874821146     1.007825032230
         H            4.640536873950    -0.424065046571    -1.097723321146     1.007825032230
         H           -3.807585126050    -1.522569046571     1.734091678854     1.007825032230
         H           -3.929736126050     1.445309953429     0.248749678854     1.007825032230
         H           -2.228952126050     1.892648953429    -0.059732321146     1.007825032230
         H           -3.799711126050     3.130650953429    -1.603307321146     1.007825032230
         H           -2.716386126050     2.053091953429    -2.505511321146     1.007825032230
         H           -4.400134126050     1.574091953429    -2.213360321146     1.007825032230

  Basis Set: AUG-CC-PVTZ
    Blend: AUG-CC-PVTZ
  Basis Set: (AUG-CC-PVTZ AUX)
    Blend: AUG-CC-PVTZ-JKFIT
	 Reference Energy          =   -1327.8610015168794689 [Eh]
	 Singles Energy            =      -0.0000000000000000 [Eh]
	 Same-Spin Energy          =      -1.0145654035680605 [Eh]
	 Opposite-Spin Energy      =      -3.0759336829852346 [Eh]
	 Correlation Energy        =      -4.0904990865532955 [Eh]
	 Total Energy              =   -1331.9515006034328053 [Eh]

	 ================> DF-SCS-MP2 Energies <==================
	-----------------------------------------------------------
	 SCS Same-Spin Scale       =       0.3333333333333333 [-]
	 SCS Opposite-Spin Scale   =       1.2000000000000000 [-]
	 SCS Same-Spin Energy      =      -0.3381884678560201 [Eh]
	 SCS Opposite-Spin Energy  =      -3.6911204195822815 [Eh]
	 SCS Correlation Energy    =      -4.0293088874383018 [Eh]
	 SCS Total Energy          =   -1331.8903104043176882 [Eh]
	-----------------------------------------------------------

  Dipole Moment: [D]
     X:    -1.1271      Y:     1.8786      Z:     0.7409     Total:     2.3127

*** Psi4 exiting successfully. Buy a developer a beer!
