                               Psi4 1.3.2 release

  ==> Input File <==

--------------------------------------------------------------------------
#psi4
#
memory 32 gb

molecule  {
0 1
  P       -2.2900960    -0.9400430     0.3446780
  O       -0.9821530    -0.2015620     0.9382890
  O        1.3422500    -1.6754830     1.2308510
  O        0.0787050     2.3596040     0.4621680
  O        3.0509357    -2.1988275    -0.7955116
  O        2.8473350     2.5031130     0.3715350
  O        4.1956880     0.4353970    -0.9728740
  O       -2.8268630     0.0333510    -0.8075310
  O       -3.2591210    -0.7232820     1.6216710
  O       -2.1189930    -2.3436440    -0.0996680
  C        0.1181620     0.0300090     0.0163190
  C        0.9608327    -1.2691279    -0.0706473
  C        0.8985890     1.2026440     0.5648510
  C        2.2596600    -1.0143070    -0.8180370
  C        2.1770750     1.3964720    -0.2280410
  C        3.0258420     0.1487050    -0.2103220
  C       -3.1242130     1.4315980    -0.4888860
  C       -3.5363170     2.0851650    -1.7841190
  H       -0.2830920     0.2988010    -0.9702380
  H        0.3702690    -2.0293640    -0.5720320
  H        1.1571200     0.9978770     1.6121560
  H        2.0609340    -0.7886600    -1.8727560
  H        1.9169870     1.6362870    -1.2735830
  H        3.2958550    -0.0945320     0.8276460
  H        0.5217750    -1.8880320     1.7115100
  H        0.6655400     3.1093110     0.6831840
  H        2.9735430    -2.5473740     0.0946540
  H        3.7214290     2.5491860    -0.0588690
  H        4.6397270    -0.4238340    -1.0970870
  H       -3.8083950    -1.5223380     1.7347280
  H       -3.9305460     1.4455410     0.2493860
  H       -2.2297620     1.8928800    -0.0590960
  H       -3.8005210     3.1308820    -1.6026710
  H       -2.7171960     2.0533230    -2.5048750
  H       -4.4009440     1.5743230    -2.2127240
units angstrom
no_reorient  #important for SAPT in psi4, default
symmetry c1  #important for SAPT in psi4, default
}

set PROPERTIES_ORIGIN ["COM"]
properties('MP2/aug-cc-pvtz', properties = ['dipole'])
--------------------------------------------------------------------------

    Molecular point group: c1
  Charge       = 0
  Multiplicity = 1
  Basis Set: AUG-CC-PVTZ
    Blend: AUG-CC-PVTZ
  Basis Set: (AUG-CC-PVTZ AUX)
    Blend: AUG-CC-PVTZ-JKFIT

    Orbital Energies [Eh]
    ---------------------

    Doubly Occupied:

       1A    -80.116506     2A    -20.614407     3A    -20.606068
       4A    -20.598529     5A    -20.584203     6A    -20.576909
       7A    -20.574975     8A    -20.573176     9A    -20.571708
      10A    -20.523204    11A    -11.319891    12A    -11.302689
      13A    -11.299240    14A    -11.299063    15A    -11.298232
      16A    -11.296762    17A    -11.292141    18A    -11.229617
      19A     -7.631953    20A     -5.530460    21A     -5.530085
      22A     -5.528889    23A     -1.459661    24A     -1.412794
      25A     -1.395402    26A     -1.394013    27A     -1.386522
      28A     -1.373861    29A     -1.365650    30A     -1.355031
      31A     -1.303576    32A     -1.116615    33A     -1.040152
      34A     -1.009980    35A     -1.003397    36A     -0.880632
      37A     -0.864874    38A     -0.859019    39A     -0.822055
      40A     -0.811221    41A     -0.751303    42A     -0.745872
      43A     -0.732134    44A     -0.728209    45A     -0.707714
      46A     -0.687354    47A     -0.680799    48A     -0.673732
      49A     -0.663531    50A     -0.661673    51A     -0.642763
      52A     -0.635027    53A     -0.627514    54A     -0.615821
      55A     -0.603309    56A     -0.598688    57A     -0.581615
      58A     -0.575186    59A     -0.571265    60A     -0.559878
      61A     -0.556928    62A     -0.548961    63A     -0.541103
      64A     -0.538088    65A     -0.530369    66A     -0.521970
      67A     -0.512879    68A     -0.503951    69A     -0.497215
      70A     -0.482715    71A     -0.479222    72A     -0.475972
      73A     -0.461090    74A     -0.456124    75A     -0.447280
      76A     -0.437478

  @DF-RHF Final Energy: -1327.86228626694651

   => Energetics <=

    Nuclear Repulsion Energy =           1772.3375104584379187
    One-Electron Energy =               -5356.8238018017391369
    Two-Electron Energy =                2256.6240050763544787
    Total Energy =                      -1327.8622862669467395
  Basis Set: (AUG-CC-PVTZ AUX)
    Blend: AUG-CC-PVTZ-RI
    Molecular point group: c1

    Geometry (in Angstrom), charge = 0, multiplicity = 1:

       Center              X                  Y                   Z               Mass
    ------------   -----------------  -----------------  -----------------  -----------------
         P           -2.289433985884    -0.938352010669     0.343740271768    30.973761998420
         O           -0.981490985884    -0.199871010669     0.937351271768    15.994914619570
         O            1.342912014116    -1.673792010669     1.229913271768    15.994914619570
         O            0.079367014116     2.361294989331     0.461230271768    15.994914619570
         O            3.051597714116    -2.197136510669    -0.796449328232    15.994914619570
         O            2.847997014116     2.504803989331     0.370597271768    15.994914619570
         O            4.196350014116     0.437087989331    -0.973811728232    15.994914619570
         O           -2.826200985884     0.035041989331    -0.808468728232    15.994914619570
         O           -3.258458985884    -0.721591010669     1.620733271768    15.994914619570
         O           -2.118330985884    -2.341953010669    -0.100605728232    15.994914619570
         C            0.118824014116     0.031699989331     0.015381271768    12.000000000000
         C            0.961494714116    -1.267436910669    -0.071585028232    12.000000000000
         C            0.899251014116     1.204334989331     0.563913271768    12.000000000000
         C            2.260322014116    -1.012616010669    -0.818974728232    12.000000000000
         C            2.177737014116     1.398162989331    -0.228978728232    12.000000000000
         C            3.026504014116     0.150395989331    -0.211259728232    12.000000000000
         C           -3.123550985884     1.433288989331    -0.489823728232    12.000000000000
         C           -3.535654985884     2.086855989331    -1.785056728232    12.000000000000
         H           -0.282429985884     0.300491989331    -0.971175728232     1.007825032230
         H            0.370931014116    -2.027673010669    -0.572969728232     1.007825032230
         H            1.157782014116     0.999567989331     1.611218271768     1.007825032230
         H            2.061596014116    -0.786969010669    -1.873693728232     1.007825032230
         H            1.917649014116     1.637977989331    -1.274520728232     1.007825032230
         H            3.296517014116    -0.092841010669     0.826708271768     1.007825032230
         H            0.522437014116    -1.886341010669     1.710572271768     1.007825032230
         H            0.666202014116     3.111001989331     0.682246271768     1.007825032230
         H            2.974205014116    -2.545683010669     0.093716271768     1.007825032230
         H            3.722091014116     2.550876989331    -0.059806728232     1.007825032230
         H            4.640389014116    -0.422143010669    -1.098024728232     1.007825032230
         H           -3.807732985884    -1.520647010669     1.733790271768     1.007825032230
         H           -3.929883985884     1.447231989331     0.248448271768     1.007825032230
         H           -2.229099985884     1.894570989331    -0.060033728232     1.007825032230
         H           -3.799858985884     3.132572989331    -1.603608728232     1.007825032230
         H           -2.716533985884     2.055013989331    -2.505812728232     1.007825032230
         H           -4.400281985884     1.576013989331    -2.213661728232     1.007825032230

  Basis Set: AUG-CC-PVTZ
    Blend: AUG-CC-PVTZ
  Basis Set: (AUG-CC-PVTZ AUX)
    Blend: AUG-CC-PVTZ-JKFIT
	 Reference Energy          =   -1327.8622862669465121 [Eh]
	 Singles Energy            =      -0.0000000000000000 [Eh]
	 Same-Spin Energy          =      -1.0141313135746572 [Eh]
	 Opposite-Spin Energy      =      -3.0750739240514102 [Eh]
	 Correlation Energy        =      -4.0892052376260679 [Eh]
	 Total Energy              =   -1331.9514915045726866 [Eh]

	 ================> DF-SCS-MP2 Energies <==================
	-----------------------------------------------------------
	 SCS Same-Spin Scale       =       0.3333333333333333 [-]
	 SCS Opposite-Spin Scale   =       1.2000000000000000 [-]
	 SCS Same-Spin Energy      =      -0.3380437711915524 [Eh]
	 SCS Opposite-Spin Energy  =      -3.6900887088616923 [Eh]
	 SCS Correlation Energy    =      -4.0281324800532445 [Eh]
	 SCS Total Energy          =   -1331.8904187469997851 [Eh]
	-----------------------------------------------------------

  Dipole Moment: [D]
     X:    -1.0494      Y:     1.8608      Z:     0.7300     Total:     2.2576

*** Psi4 exiting successfully. Buy a developer a beer!
