                               Psi4 1.3.2 release

  ==> Input File <==

--------------------------------------------------------------------------
#psi4
#
memory 32 gb

molecule  {
0 1
  P       -2.2900960    -0.9400430     0.3446780
  O       -0.9821530    -0.2015620     0.9382890
  O        1.3422500    -1.6754830     1.2308510
  O        0.0787050     2.3596040     0.4621680
  O        3.0685150    -2.1870720    -0.8085900
  O        2.8473350     2.5031130     0.3715350
  O        4.1956880     0.4353970    -0.9728740
  O       -2.8268630     0.0333510    -0.8075310
  O       -3.2591210    -0.7232820     1.6216710
  O       -2.1189930    -2.3436440    -0.0996680
  C        0.1181620     0.0300090     0.0163190
  C        0.9532920    -1.2442050    -0.0757250
  C        0.8985890     1.2026440     0.5648510
  C        2.2596600    -1.0143070    -0.8180370
  C        2.1770750     1.3964720    -0.2280410
  C        3.0250606     0.1480565    -0.2234529
  C       -3.1242130     1.4315980    -0.4888860
  C       -3.5363170     2.0851650    -1.7841190
  H       -0.2830920     0.2988010    -0.9702380
  H        0.3702690    -2.0293640    -0.5720320
  H        1.1571200     0.9978770     1.6121560
  H        2.0609340    -0.7886600    -1.8727560
  H        1.9219460     1.6285773    -1.2765406
  H        3.2958550    -0.0945320     0.8276460
  H        0.5217750    -1.8880320     1.7115100
  H        0.6655400     3.1093110     0.6831840
  H        2.9735430    -2.5473740     0.0946540
  H        3.7214290     2.5491860    -0.0588690
  H        4.6397270    -0.4238340    -1.0970870
  H       -3.8083950    -1.5223380     1.7347280
  H       -3.9305460     1.4455410     0.2493860
  H       -2.2297620     1.8928800    -0.0590960
  H       -3.8005210     3.1308820    -1.6026710
  H       -2.7171960     2.0533230    -2.5048750
  H       -4.4009440     1.5743230    -2.2127240
units angstrom
no_reorient  #important for SAPT in psi4, default
symmetry c1  #important for SAPT in psi4, default
}

set PROPERTIES_ORIGIN ["COM"]
properties('MP2/aug-cc-pvtz', properties = ['dipole'])
--------------------------------------------------------------------------

    Molecular point group: c1
  Charge       = 0
  Multiplicity = 1
  Basis Set: AUG-CC-PVTZ
    Blend: AUG-CC-PVTZ
  Basis Set: (AUG-CC-PVTZ AUX)
    Blend: AUG-CC-PVTZ-JKFIT

    Orbital Energies [Eh]
    ---------------------

    Doubly Occupied:

       1A    -80.116949     2A    -20.614731     3A    -20.607038
       4A    -20.598936     5A    -20.583027     6A    -20.577195
       7A    -20.574888     8A    -20.574708     9A    -20.573467
      10A    -20.523450    11A    -11.320780    12A    -11.303772
      13A    -11.299377    14A    -11.299127    15A    -11.298755
      16A    -11.296708    17A    -11.291725    18A    -11.229853
      19A     -7.632399    20A     -5.530905    21A     -5.530532
      22A     -5.529330    23A     -1.460289    24A     -1.411143
      25A     -1.395432    26A     -1.393087    27A     -1.386899
      28A     -1.373573    29A     -1.364040    30A     -1.354689
      31A     -1.303845    32A     -1.119325    33A     -1.040457
      34A     -1.012355    35A     -1.003647    36A     -0.880244
      37A     -0.864888    38A     -0.859668    39A     -0.822021
      40A     -0.810129    41A     -0.751887    42A     -0.745607
      43A     -0.731728    44A     -0.728558    45A     -0.707972
      46A     -0.687310    47A     -0.678322    48A     -0.673966
      49A     -0.662840    50A     -0.661099    51A     -0.643276
      52A     -0.635227    53A     -0.627325    54A     -0.615394
      55A     -0.603719    56A     -0.598097    57A     -0.581930
      58A     -0.575547    59A     -0.571158    60A     -0.559376
      61A     -0.557071    62A     -0.548514    63A     -0.541223
      64A     -0.537067    65A     -0.529973    66A     -0.521770
      67A     -0.513310    68A     -0.503841    69A     -0.497128
      70A     -0.484648    71A     -0.479853    72A     -0.476579
      73A     -0.462547    74A     -0.454254    75A     -0.450243
      76A     -0.436752

  @DF-RHF Final Energy: -1327.86122637810422

   => Energetics <=

    Nuclear Repulsion Energy =           1772.5249433328392570
    One-Electron Energy =               -5357.1753521284354065
    Two-Electron Energy =                2256.7891824174921567
    Total Energy =                      -1327.8612263781042202
  Basis Set: (AUG-CC-PVTZ AUX)
    Blend: AUG-CC-PVTZ-RI
    Molecular point group: c1

    Geometry (in Angstrom), charge = 0, multiplicity = 1:

       Center              X                  Y                   Z               Mass
    ------------   -----------------  -----------------  -----------------  -----------------
         P           -2.290080765541    -0.939988993665     0.345235343319    30.973761998420
         O           -0.982137765541    -0.201507993665     0.938846343319    15.994914619570
         O            1.342265234459    -1.675428993665     1.231408343319    15.994914619570
         O            0.078720234459     2.359658006335     0.462725343319    15.994914619570
         O            3.068530234459    -2.187017993665    -0.808032656681    15.994914619570
         O            2.847350234459     2.503167006335     0.372092343319    15.994914619570
         O            4.195703234459     0.435451006335    -0.972316656681    15.994914619570
         O           -2.826847765541     0.033405006335    -0.806973656681    15.994914619570
         O           -3.259105765541    -0.723227993665     1.622228343319    15.994914619570
         O           -2.118977765541    -2.343589993665    -0.099110656681    15.994914619570
         C            0.118177234459     0.030063006335     0.016876343319    12.000000000000
         C            0.953307234459    -1.244150993665    -0.075167656681    12.000000000000
         C            0.898604234459     1.202698006335     0.565408343319    12.000000000000
         C            2.259675234459    -1.014252993665    -0.817479656681    12.000000000000
         C            2.177090234459     1.396526006335    -0.227483656681    12.000000000000
         C            3.025075834459     0.148110506335    -0.222895556681    12.000000000000
         C           -3.124197765541     1.431652006335    -0.488328656681    12.000000000000
         C           -3.536301765541     2.085219006335    -1.783561656681    12.000000000000
         H           -0.283076765541     0.298855006335    -0.969680656681     1.007825032230
         H            0.370284234459    -2.029309993665    -0.571474656681     1.007825032230
         H            1.157135234459     0.997931006335     1.612713343319     1.007825032230
         H            2.060949234459    -0.788605993665    -1.872198656681     1.007825032230
         H            1.921961234459     1.628631306335    -1.275983256681     1.007825032230
         H            3.295870234459    -0.094477993665     0.828203343319     1.007825032230
         H            0.521790234459    -1.887977993665     1.712067343319     1.007825032230
         H            0.665555234459     3.109365006335     0.683741343319     1.007825032230
         H            2.973558234459    -2.547319993665     0.095211343319     1.007825032230
         H            3.721444234459     2.549240006335    -0.058311656681     1.007825032230
         H            4.639742234459    -0.423779993665    -1.096529656681     1.007825032230
         H           -3.808379765541    -1.522283993665     1.735285343319     1.007825032230
         H           -3.930530765541     1.445595006335     0.249943343319     1.007825032230
         H           -2.229746765541     1.892934006335    -0.058538656681     1.007825032230
         H           -3.800505765541     3.130936006335    -1.602113656681     1.007825032230
         H           -2.717180765541     2.053377006335    -2.504317656681     1.007825032230
         H           -4.400928765541     1.574377006335    -2.212166656681     1.007825032230

  Basis Set: AUG-CC-PVTZ
    Blend: AUG-CC-PVTZ
  Basis Set: (AUG-CC-PVTZ AUX)
    Blend: AUG-CC-PVTZ-JKFIT
	 Reference Energy          =   -1327.8612263781042202 [Eh]
	 Singles Energy            =      -0.0000000000000000 [Eh]
	 Same-Spin Energy          =      -1.0146590819368284 [Eh]
	 Opposite-Spin Energy      =      -3.0760675630545466 [Eh]
	 Correlation Energy        =      -4.0907266449913751 [Eh]
	 Total Energy              =   -1331.9519530230954842 [Eh]

	 ================> DF-SCS-MP2 Energies <==================
	-----------------------------------------------------------
	 SCS Same-Spin Scale       =       0.3333333333333333 [-]
	 SCS Opposite-Spin Scale   =       1.2000000000000000 [-]
	 SCS Same-Spin Energy      =      -0.3382196939789428 [Eh]
	 SCS Opposite-Spin Energy  =      -3.6912810756654557 [Eh]
	 SCS Correlation Energy    =      -4.0295007696443985 [Eh]
	 SCS Total Energy          =   -1331.8907271477485210 [Eh]
	-----------------------------------------------------------

  Dipole Moment: [D]
     X:    -1.1005      Y:     1.8672      Z:     0.7039     Total:     2.2788

*** Psi4 exiting successfully. Buy a developer a beer!
