                               Psi4 1.3.2 release

  ==> Input File <==

--------------------------------------------------------------------------
#psi4
#
memory 32 gb

molecule  {
0 1
  P       -2.2900960    -0.9400430     0.3446780
  O       -0.9903187    -0.1596581     0.9014736
  O        1.3422500    -1.6754830     1.2308510
  O        0.0787050     2.3596040     0.4621680
  O        3.0685150    -2.1870720    -0.8085900
  O        2.8473350     2.5031130     0.3715350
  O        4.1956880     0.4353970    -0.9728740
  O       -2.7847041     0.0682743    -0.7963124
  O       -3.2591210    -0.7232820     1.6216710
  O       -2.1189930    -2.3436440    -0.0996680
  C        0.1181620     0.0300090     0.0163190
  C        0.9532920    -1.2442050    -0.0757250
  C        0.8985890     1.2026440     0.5648510
  C        2.2596600    -1.0143070    -0.8180370
  C        2.1770750     1.3964720    -0.2280410
  C        3.0258420     0.1487050    -0.2103220
  C       -3.1242130     1.4315980    -0.4888860
  C       -3.5363170     2.0851650    -1.7841190
  H       -0.2830920     0.2988010    -0.9702380
  H        0.3702690    -2.0293640    -0.5720320
  H        1.1571200     0.9978770     1.6121560
  H        2.0609340    -0.7886600    -1.8727560
  H        1.9169870     1.6362870    -1.2735830
  H        3.2958550    -0.0945320     0.8276460
  H        0.5217750    -1.8880320     1.7115100
  H        0.6655400     3.1093110     0.6831840
  H        2.9735430    -2.5473740     0.0946540
  H        3.7214290     2.5491860    -0.0588690
  H        4.6397270    -0.4238340    -1.0970870
  H       -3.8083950    -1.5223380     1.7347280
  H       -3.9305460     1.4455410     0.2493860
  H       -2.2297620     1.8928800    -0.0590960
  H       -3.8005210     3.1308820    -1.6026710
  H       -2.7171960     2.0533230    -2.5048750
  H       -4.4009440     1.5743230    -2.2127240
units angstrom
no_reorient  #important for SAPT in psi4, default
symmetry c1  #important for SAPT in psi4, default
}

set PROPERTIES_ORIGIN ["COM"]
properties('MP2/aug-cc-pvtz', properties = ['dipole'])
--------------------------------------------------------------------------

    Molecular point group: c1
  Charge       = 0
  Multiplicity = 1
  Basis Set: AUG-CC-PVTZ
    Blend: AUG-CC-PVTZ
  Basis Set: (AUG-CC-PVTZ AUX)
    Blend: AUG-CC-PVTZ-JKFIT

    Orbital Energies [Eh]
    ---------------------

    Doubly Occupied:

       1A    -80.120359     2A    -20.619077     3A    -20.604236
       4A    -20.595823     5A    -20.583754     6A    -20.575578
       7A    -20.574458     8A    -20.573491     9A    -20.571544
      10A    -20.529247    11A    -11.317142    12A    -11.303148
      13A    -11.299027    14A    -11.296500    15A    -11.295154
      16A    -11.295059    17A    -11.290717    18A    -11.227706
      19A     -7.635606    20A     -5.534090    21A     -5.533886
      22A     -5.532494    23A     -1.464860    24A     -1.411780
      25A     -1.396628    26A     -1.392843    27A     -1.390997
      28A     -1.372989    29A     -1.363157    30A     -1.353130
      31A     -1.309080    32A     -1.117683    33A     -1.038949
      34A     -1.011006    35A     -1.002640    36A     -0.883532
      37A     -0.865351    38A     -0.858393    39A     -0.821924
      40A     -0.809658    41A     -0.751982    42A     -0.746281
      43A     -0.732451    44A     -0.730216    45A     -0.709297
      46A     -0.686998    47A     -0.679024    48A     -0.675056
      49A     -0.663404    50A     -0.660753    51A     -0.643767
      52A     -0.634852    53A     -0.629361    54A     -0.616005
      55A     -0.602991    56A     -0.597812    57A     -0.582722
      58A     -0.578640    59A     -0.570854    60A     -0.559251
      61A     -0.556361    62A     -0.547134    63A     -0.542031
      64A     -0.536002    65A     -0.527549    66A     -0.520961
      67A     -0.510343    68A     -0.503082    69A     -0.497519
      70A     -0.483967    71A     -0.481022    72A     -0.474715
      73A     -0.461983    74A     -0.454742    75A     -0.448989
      76A     -0.435983

  @DF-RHF Final Energy: -1327.86104570769430

   => Energetics <=

    Nuclear Repulsion Energy =           1774.4038186588632016
    One-Electron Energy =               -5360.9161343012401630
    Two-Electron Energy =                2258.6512699346826594
    Total Energy =                      -1327.8610457076943021
  Basis Set: (AUG-CC-PVTZ AUX)
    Blend: AUG-CC-PVTZ-RI
    Molecular point group: c1

    Geometry (in Angstrom), charge = 0, multiplicity = 1:

       Center              X                  Y                   Z               Mass
    ------------   -----------------  -----------------  -----------------  -----------------
         P           -2.291983478129    -0.944308899694     0.346099282105    30.973761998420
         O           -0.992206178129    -0.163923999694     0.902894882105    15.994914619570
         O            1.340362521871    -1.679748899694     1.232272282105    15.994914619570
         O            0.076817521871     2.355338100306     0.463589282105    15.994914619570
         O            3.066627521871    -2.191337899694    -0.807168717895    15.994914619570
         O            2.845447521871     2.498847100306     0.372956282105    15.994914619570
         O            4.193800521871     0.431131100306    -0.971452717895    15.994914619570
         O           -2.786591578129     0.064008400306    -0.794891117895    15.994914619570
         O           -3.261008478129    -0.727547899694     1.623092282105    15.994914619570
         O           -2.120880478129    -2.347909899694    -0.098246717895    15.994914619570
         C            0.116274521871     0.025743100306     0.017740282105    12.000000000000
         C            0.951404521871    -1.248470899694    -0.074303717895    12.000000000000
         C            0.896701521871     1.198378100306     0.566272282105    12.000000000000
         C            2.257772521871    -1.018572899694    -0.816615717895    12.000000000000
         C            2.175187521871     1.392206100306    -0.226619717895    12.000000000000
         C            3.023954521871     0.144439100306    -0.208900717895    12.000000000000
         C           -3.126100478129     1.427332100306    -0.487464717895    12.000000000000
         C           -3.538204478129     2.080899100306    -1.782697717895    12.000000000000
         H           -0.284979478129     0.294535100306    -0.968816717895     1.007825032230
         H            0.368381521871    -2.033629899694    -0.570610717895     1.007825032230
         H            1.155232521871     0.993611100306     1.613577282105     1.007825032230
         H            2.059046521871    -0.792925899694    -1.871334717895     1.007825032230
         H            1.915099521871     1.632021100306    -1.272161717895     1.007825032230
         H            3.293967521871    -0.098797899694     0.829067282105     1.007825032230
         H            0.519887521871    -1.892297899694     1.712931282105     1.007825032230
         H            0.663652521871     3.105045100306     0.684605282105     1.007825032230
         H            2.971655521871    -2.551639899694     0.096075282105     1.007825032230
         H            3.719541521871     2.544920100306    -0.057447717895     1.007825032230
         H            4.637839521871    -0.428099899694    -1.095665717895     1.007825032230
         H           -3.810282478129    -1.526603899694     1.736149282105     1.007825032230
         H           -3.932433478129     1.441275100306     0.250807282105     1.007825032230
         H           -2.231649478129     1.888614100306    -0.057674717895     1.007825032230
         H           -3.802408478129     3.126616100306    -1.601249717895     1.007825032230
         H           -2.719083478129     2.049057100306    -2.503453717895     1.007825032230
         H           -4.402831478129     1.570057100306    -2.211302717895     1.007825032230

  Basis Set: AUG-CC-PVTZ
    Blend: AUG-CC-PVTZ
  Basis Set: (AUG-CC-PVTZ AUX)
    Blend: AUG-CC-PVTZ-JKFIT
	 Reference Energy          =   -1327.8610457076943021 [Eh]
	 Singles Energy            =      -0.0000000000000000 [Eh]
	 Same-Spin Energy          =      -1.0145563758105629 [Eh]
	 Opposite-Spin Energy      =      -3.0752851239824142 [Eh]
	 Correlation Energy        =      -4.0898414997929766 [Eh]
	 Total Energy              =   -1331.9508872074873125 [Eh]

	 ================> DF-SCS-MP2 Energies <==================
	-----------------------------------------------------------
	 SCS Same-Spin Scale       =       0.3333333333333333 [-]
	 SCS Opposite-Spin Scale   =       1.2000000000000000 [-]
	 SCS Same-Spin Energy      =      -0.3381854586035209 [Eh]
	 SCS Opposite-Spin Energy  =      -3.6903421487788970 [Eh]
	 SCS Correlation Energy    =      -4.0285276073824177 [Eh]
	 SCS Total Energy          =   -1331.8895733150766318 [Eh]
	-----------------------------------------------------------

  Dipole Moment: [D]
     X:    -1.2475      Y:     1.5613      Z:     0.8204     Total:     2.1603

*** Psi4 exiting successfully. Buy a developer a beer!
