                               Psi4 1.3.2 release

  ==> Input File <==

--------------------------------------------------------------------------
#psi4
#
memory 32 gb

molecule  {
0 1
  P       -2.2900960    -0.9400430     0.3446780
  O       -0.9821530    -0.2015620     0.9382890
  O        1.3422500    -1.6754830     1.2308510
  O        0.0787050     2.3596040     0.4621680
  O        3.0685150    -2.1870720    -0.8085900
  O        2.8473350     2.5031130     0.3715350
  O        4.1956880     0.4353970    -0.9728740
  O       -2.8100178     0.0221798    -0.7335657
  O       -3.2591210    -0.7232820     1.6216710
  O       -2.1189930    -2.3436440    -0.0996680
  C        0.1181620     0.0300090     0.0163190
  C        0.9532920    -1.2442050    -0.0757250
  C        0.8985890     1.2026440     0.5648510
  C        2.2596600    -1.0143070    -0.8180370
  C        2.1770750     1.3964720    -0.2280410
  C        3.0258420     0.1487050    -0.2103220
  C       -3.1242130     1.4315980    -0.4888860
  C       -3.5461092     2.1527543    -1.7444915
  H       -0.2830920     0.2988010    -0.9702380
  H        0.3702690    -2.0293640    -0.5720320
  H        1.1571200     0.9978770     1.6121560
  H        2.0609340    -0.7886600    -1.8727560
  H        1.9169870     1.6362870    -1.2735830
  H        3.2958550    -0.0945320     0.8276460
  H        0.5217750    -1.8880320     1.7115100
  H        0.6655400     3.1093110     0.6831840
  H        2.9735430    -2.5473740     0.0946540
  H        3.7214290     2.5491860    -0.0588690
  H        4.6397270    -0.4238340    -1.0970870
  H       -3.8083950    -1.5223380     1.7347280
  H       -3.9305460     1.4455410     0.2493860
  H       -2.2297620     1.8928800    -0.0590960
  H       -3.8005210     3.1308820    -1.6026710
  H       -2.7171960     2.0533230    -2.5048750
  H       -4.4009440     1.5743230    -2.2127240
units angstrom
no_reorient  #important for SAPT in psi4, default
symmetry c1  #important for SAPT in psi4, default
}

set PROPERTIES_ORIGIN ["COM"]
properties('MP2/aug-cc-pvtz', properties = ['dipole'])
--------------------------------------------------------------------------

    Molecular point group: c1
  Charge       = 0
  Multiplicity = 1
  Basis Set: AUG-CC-PVTZ
    Blend: AUG-CC-PVTZ
  Basis Set: (AUG-CC-PVTZ AUX)
    Blend: AUG-CC-PVTZ-JKFIT

    Orbital Energies [Eh]
    ---------------------

    Doubly Occupied:

       1A    -80.109528     2A    -20.608594     3A    -20.601420
       4A    -20.600159     5A    -20.581767     6A    -20.576222
       7A    -20.573818     8A    -20.573514     9A    -20.572876
      10A    -20.520532    11A    -11.319107    12A    -11.305797
      13A    -11.302227    14A    -11.298471    15A    -11.297575
      16A    -11.295937    17A    -11.290724    18A    -11.235967
      19A     -7.626309    20A     -5.524915    21A     -5.524608
      22A     -5.523146    23A     -1.467230    24A     -1.410924
      25A     -1.395017    26A     -1.392399    27A     -1.389765
      28A     -1.371465    29A     -1.363161    30A     -1.353081
      31A     -1.301358    32A     -1.117885    33A     -1.049772
      34A     -1.010674    35A     -1.002464    36A     -0.886402
      37A     -0.870008    38A     -0.858028    39A     -0.819246
      40A     -0.809350    41A     -0.750836    42A     -0.745131
      43A     -0.733102    44A     -0.730772    45A     -0.706892
      46A     -0.687332    47A     -0.677695    48A     -0.673840
      49A     -0.661329    50A     -0.659396    51A     -0.641824
      52A     -0.633713    53A     -0.632249    54A     -0.617588
      55A     -0.602014    56A     -0.597618    57A     -0.594427
      58A     -0.580053    59A     -0.570388    60A     -0.558409
      61A     -0.555891    62A     -0.554794    63A     -0.540147
      64A     -0.535833    65A     -0.525147    66A     -0.522186
      67A     -0.511298    68A     -0.502899    69A     -0.494276
      70A     -0.484229    71A     -0.477492    72A     -0.474785
      73A     -0.461025    74A     -0.455234    75A     -0.448584
      76A     -0.435357

  @DF-RHF Final Energy: -1327.85496401212185

   => Energetics <=

    Nuclear Repulsion Energy =           1774.8184971947785016
    One-Electron Energy =               -5361.8164630459104956
    Two-Electron Energy =                2259.1430018390101395
    Total Energy =                      -1327.8549640121218545
  Basis Set: (AUG-CC-PVTZ AUX)
    Blend: AUG-CC-PVTZ-RI
    Molecular point group: c1

    Geometry (in Angstrom), charge = 0, multiplicity = 1:

       Center              X                  Y                   Z               Mass
    ------------   -----------------  -----------------  -----------------  -----------------
         P           -2.290623394085    -0.942238313064     0.338920187568    30.973761998420
         O           -0.982680394085    -0.203757313064     0.932531187568    15.994914619570
         O            1.341722605915    -1.677678313064     1.225093187568    15.994914619570
         O            0.078177605915     2.357408686936     0.456410187568    15.994914619570
         O            3.067987605915    -2.189267313064    -0.814347812432    15.994914619570
         O            2.846807605915     2.500917686936     0.365777187568    15.994914619570
         O            4.195160605915     0.433201686936    -0.978631812432    15.994914619570
         O           -2.810545194085     0.019984486936    -0.739323512432    15.994914619570
         O           -3.259648394085    -0.725477313064     1.615913187568    15.994914619570
         O           -2.119520394085    -2.345839313064    -0.105425812432    15.994914619570
         C            0.117634605915     0.027813686936     0.010561187568    12.000000000000
         C            0.952764605915    -1.246400313064    -0.081482812432    12.000000000000
         C            0.898061605915     1.200448686936     0.559093187568    12.000000000000
         C            2.259132605915    -1.016502313064    -0.823794812432    12.000000000000
         C            2.176547605915     1.394276686936    -0.233798812432    12.000000000000
         C            3.025314605915     0.146509686936    -0.216079812432    12.000000000000
         C           -3.124740394085     1.429402686936    -0.494643812432    12.000000000000
         C           -3.546636594085     2.150558986936    -1.750249312432    12.000000000000
         H           -0.283619394085     0.296605686936    -0.975995812432     1.007825032230
         H            0.369741605915    -2.031559313064    -0.577789812432     1.007825032230
         H            1.156592605915     0.995681686936     1.606398187568     1.007825032230
         H            2.060406605915    -0.790855313064    -1.878513812432     1.007825032230
         H            1.916459605915     1.634091686936    -1.279340812432     1.007825032230
         H            3.295327605915    -0.096727313064     0.821888187568     1.007825032230
         H            0.521247605915    -1.890227313064     1.705752187568     1.007825032230
         H            0.665012605915     3.107115686936     0.677426187568     1.007825032230
         H            2.973015605915    -2.549569313064     0.088896187568     1.007825032230
         H            3.720901605915     2.546990686936    -0.064626812432     1.007825032230
         H            4.639199605915    -0.426029313064    -1.102844812432     1.007825032230
         H           -3.808922394085    -1.524533313064     1.728970187568     1.007825032230
         H           -3.931073394085     1.443345686936     0.243628187568     1.007825032230
         H           -2.230289394085     1.890684686936    -0.064853812432     1.007825032230
         H           -3.801048394085     3.128686686936    -1.608428812432     1.007825032230
         H           -2.717723394085     2.051127686936    -2.510632812432     1.007825032230
         H           -4.401471394085     1.572127686936    -2.218481812432     1.007825032230

  Basis Set: AUG-CC-PVTZ
    Blend: AUG-CC-PVTZ
  Basis Set: (AUG-CC-PVTZ AUX)
    Blend: AUG-CC-PVTZ-JKFIT
	 Reference Energy          =   -1327.8549640121218545 [Eh]
	 Singles Energy            =      -0.0000000000000000 [Eh]
	 Same-Spin Energy          =      -1.0137123193691795 [Eh]
	 Opposite-Spin Energy      =      -3.0737431649276554 [Eh]
	 Correlation Energy        =      -4.0874554842968349 [Eh]
	 Total Energy              =   -1331.9424194964187791 [Eh]

	 ================> DF-SCS-MP2 Energies <==================
	-----------------------------------------------------------
	 SCS Same-Spin Scale       =       0.3333333333333333 [-]
	 SCS Opposite-Spin Scale   =       1.2000000000000000 [-]
	 SCS Same-Spin Energy      =      -0.3379041064563931 [Eh]
	 SCS Opposite-Spin Energy  =      -3.6884917979131862 [Eh]
	 SCS Correlation Energy    =      -4.0263959043695792 [Eh]
	 SCS Total Energy          =   -1331.8813599164914194 [Eh]
	-----------------------------------------------------------

  Dipole Moment: [D]
     X:    -1.2979      Y:     2.0962      Z:     0.4547     Total:     2.5071

*** Psi4 exiting successfully. Buy a developer a beer!
