                               Psi4 1.3.2 release

  ==> Input File <==

--------------------------------------------------------------------------
#psi4
#
memory 32 gb

molecule  {
0 1
  P       -2.2900960    -0.9400430     0.3446780
  O       -0.9821530    -0.2015620     0.9382890
  O        1.3422500    -1.6754830     1.2308510
  O        0.0787050     2.3596040     0.4621680
  O        3.0685150    -2.1870720    -0.8085900
  O        2.8473350     2.5031130     0.3715350
  O        4.1956880     0.4353970    -0.9728740
  O       -2.8297510     0.0355864    -0.8197791
  O       -3.2591210    -0.7232820     1.6216710
  O       -2.1189930    -2.3436440    -0.0996680
  C        0.1181620     0.0300090     0.0163190
  C        0.9532920    -1.2442050    -0.0757250
  C        0.8985890     1.2026440     0.5648510
  C        2.2596600    -1.0143070    -0.8180370
  C        2.1770750     1.3964720    -0.2280410
  C        3.0258420     0.1487050    -0.2103220
  C       -3.1242130     1.4315980    -0.4888860
  C       -3.5345744     2.0737209    -1.7903812
  H       -0.2830920     0.2988010    -0.9702380
  H        0.3702690    -2.0293640    -0.5720320
  H        1.1571200     0.9978770     1.6121560
  H        2.0609340    -0.7886600    -1.8727560
  H        1.9169870     1.6362870    -1.2735830
  H        3.2958550    -0.0945320     0.8276460
  H        0.5217750    -1.8880320     1.7115100
  H        0.6655400     3.1093110     0.6831840
  H        2.9735430    -2.5473740     0.0946540
  H        3.7214290     2.5491860    -0.0588690
  H        4.6397270    -0.4238340    -1.0970870
  H       -3.8083950    -1.5223380     1.7347280
  H       -3.9305460     1.4455410     0.2493860
  H       -2.2297620     1.8928800    -0.0590960
  H       -3.8005210     3.1308820    -1.6026710
  H       -2.7171960     2.0533230    -2.5048750
  H       -4.4009440     1.5743230    -2.2127240
units angstrom
no_reorient  #important for SAPT in psi4, default
symmetry c1  #important for SAPT in psi4, default
}

set PROPERTIES_ORIGIN ["COM"]
properties('MP2/aug-cc-pvtz', properties = ['dipole'])
--------------------------------------------------------------------------

    Molecular point group: c1
  Charge       = 0
  Multiplicity = 1
  Basis Set: AUG-CC-PVTZ
    Blend: AUG-CC-PVTZ
  Basis Set: (AUG-CC-PVTZ AUX)
    Blend: AUG-CC-PVTZ-JKFIT

    Orbital Energies [Eh]
    ---------------------

    Doubly Occupied:

       1A    -80.118109     2A    -20.615737     3A    -20.607967
       4A    -20.598801     5A    -20.583388     6A    -20.576924
       7A    -20.574770     8A    -20.574224     9A    -20.573607
      10A    -20.523931    11A    -11.321072    12A    -11.303787
      13A    -11.299531    14A    -11.298838    15A    -11.298504
      16A    -11.296851    17A    -11.291592    18A    -11.229113
      19A     -7.633382    20A     -5.531895    21A     -5.531463
      22A     -5.530321    23A     -1.459660    24A     -1.410962
      25A     -1.395019    26A     -1.393284    27A     -1.385594
      28A     -1.372903    29A     -1.364125    30A     -1.354001
      31A     -1.304260    32A     -1.119299    33A     -1.039032
      34A     -1.012283    35A     -1.003653    36A     -0.880086
      37A     -0.863784    38A     -0.859280    39A     -0.822857
      40A     -0.810903    41A     -0.751922    42A     -0.745349
      43A     -0.731484    44A     -0.728028    45A     -0.708112
      46A     -0.687196    47A     -0.678281    48A     -0.673737
      49A     -0.662591    50A     -0.661253    51A     -0.643374
      52A     -0.635241    53A     -0.626979    54A     -0.614876
      55A     -0.603941    56A     -0.598677    57A     -0.581878
      58A     -0.574708    59A     -0.570892    60A     -0.559650
      61A     -0.556845    62A     -0.547705    63A     -0.539734
      64A     -0.536662    65A     -0.530685    66A     -0.521363
      67A     -0.513202    68A     -0.504545    69A     -0.497451
      70A     -0.484905    71A     -0.479895    72A     -0.476758
      73A     -0.462623    74A     -0.456024    75A     -0.450380
      76A     -0.436474

  @DF-RHF Final Energy: -1327.86015616719442

   => Energetics <=

    Nuclear Repulsion Energy =           1772.0663128764072098
    One-Electron Energy =               -5356.2565192913452847
    Two-Electron Energy =                2256.3300502477436567
    Total Energy =                      -1327.8601561671944182
  Basis Set: (AUG-CC-PVTZ AUX)
    Blend: AUG-CC-PVTZ-RI
    Molecular point group: c1

    Geometry (in Angstrom), charge = 0, multiplicity = 1:

       Center              X                  Y                   Z               Mass
    ------------   -----------------  -----------------  -----------------  -----------------
         P           -2.290008200645    -0.939690368952     0.345618950135    30.973761998420
         O           -0.982065200645    -0.201209368952     0.939229950135    15.994914619570
         O            1.342337799355    -1.675130368952     1.231791950135    15.994914619570
         O            0.078792799355     2.359956631048     0.463108950135    15.994914619570
         O            3.068602799355    -2.186719368952    -0.807649049865    15.994914619570
         O            2.847422799355     2.503465631048     0.372475950135    15.994914619570
         O            4.195775799355     0.435749631048    -0.971933049865    15.994914619570
         O           -2.829663200645     0.035939031048    -0.818838149865    15.994914619570
         O           -3.259033200645    -0.722929368952     1.622611950135    15.994914619570
         O           -2.118905200645    -2.343291368952    -0.098727049865    15.994914619570
         C            0.118249799355     0.030361631048     0.017259950135    12.000000000000
         C            0.953379799355    -1.243852368952    -0.074784049865    12.000000000000
         C            0.898676799355     1.202996631048     0.565791950135    12.000000000000
         C            2.259747799355    -1.013954368952    -0.817096049865    12.000000000000
         C            2.177162799355     1.396824631048    -0.227100049865    12.000000000000
         C            3.025929799355     0.149057631048    -0.209381049865    12.000000000000
         C           -3.124125200645     1.431950631048    -0.487945049865    12.000000000000
         C           -3.534486600645     2.074073531048    -1.789440249865    12.000000000000
         H           -0.283004200645     0.299153631048    -0.969297049865     1.007825032230
         H            0.370356799355    -2.029011368952    -0.571091049865     1.007825032230
         H            1.157207799355     0.998229631048     1.613096950135     1.007825032230
         H            2.061021799355    -0.788307368952    -1.871815049865     1.007825032230
         H            1.917074799355     1.636639631048    -1.272642049865     1.007825032230
         H            3.295942799355    -0.094179368952     0.828586950135     1.007825032230
         H            0.521862799355    -1.887679368952     1.712450950135     1.007825032230
         H            0.665627799355     3.109663631048     0.684124950135     1.007825032230
         H            2.973630799355    -2.547021368952     0.095594950135     1.007825032230
         H            3.721516799355     2.549538631048    -0.057928049865     1.007825032230
         H            4.639814799355    -0.423481368952    -1.096146049865     1.007825032230
         H           -3.808307200645    -1.521985368952     1.735668950135     1.007825032230
         H           -3.930458200645     1.445893631048     0.250326950135     1.007825032230
         H           -2.229674200645     1.893232631048    -0.058155049865     1.007825032230
         H           -3.800433200645     3.131234631048    -1.601730049865     1.007825032230
         H           -2.717108200645     2.053675631048    -2.503934049865     1.007825032230
         H           -4.400856200645     1.574675631048    -2.211783049865     1.007825032230

  Basis Set: AUG-CC-PVTZ
    Blend: AUG-CC-PVTZ
  Basis Set: (AUG-CC-PVTZ AUX)
    Blend: AUG-CC-PVTZ-JKFIT
	 Reference Energy          =   -1327.8601561671944182 [Eh]
	 Singles Energy            =      -0.0000000000000000 [Eh]
	 Same-Spin Energy          =      -1.0148016985306891 [Eh]
	 Opposite-Spin Energy      =      -3.0766040971309185 [Eh]
	 Correlation Energy        =      -4.0914057956616077 [Eh]
	 Total Energy              =   -1331.9515619628559762 [Eh]

	 ================> DF-SCS-MP2 Energies <==================
	-----------------------------------------------------------
	 SCS Same-Spin Scale       =       0.3333333333333333 [-]
	 SCS Opposite-Spin Scale   =       1.2000000000000000 [-]
	 SCS Same-Spin Energy      =      -0.3382672328435630 [Eh]
	 SCS Opposite-Spin Energy  =      -3.6919249165571020 [Eh]
	 SCS Correlation Energy    =      -4.0301921494006647 [Eh]
	 SCS Total Energy          =   -1331.8903483165950092 [Eh]
	-----------------------------------------------------------

  Dipole Moment: [D]
     X:    -1.0822      Y:     1.8215      Z:     0.7652     Total:     2.2527

*** Psi4 exiting successfully. Buy a developer a beer!
