                               Psi4 1.3.2 release

  ==> Input File <==

--------------------------------------------------------------------------
#psi4
#
memory 32 gb

molecule  {
0 1
  P       -2.2900960    -0.9400430     0.3446780
  O       -0.9821530    -0.2015620     0.9382890
  O        1.3422500    -1.6754830     1.2308510
  O        0.0787050     2.3596040     0.4621680
  O        3.0685150    -2.1870720    -0.8085900
  O        2.8473350     2.5031130     0.3715350
  O        4.1956880     0.4353970    -0.9728740
  O       -2.8268630     0.0333510    -0.8075310
  O       -3.2591210    -0.7232820     1.6216710
  O       -2.1189930    -2.3436440    -0.0996680
  C        0.1181620     0.0300090     0.0163190
  C        0.9293743    -1.2476947    -0.0695185
  C        0.8985890     1.2026440     0.5648510
  C        2.2596600    -1.0143070    -0.8180370
  C        2.1770750     1.3964720    -0.2280410
  C        3.0258420     0.1487050    -0.2103220
  C       -3.1242130     1.4315980    -0.4888860
  C       -3.5363170     2.0851650    -1.7841190
  H       -0.2830920     0.2988010    -0.9702380
  H        0.3702690    -2.0293640    -0.5720320
  H        1.1571200     0.9978770     1.6121560
  H        2.0609340    -0.7886600    -1.8727560
  H        1.9169870     1.6362870    -1.2735830
  H        3.2958550    -0.0945320     0.8276460
  H        0.5127717    -1.8837579     1.6977308
  H        0.6655400     3.1093110     0.6831840
  H        2.9735430    -2.5473740     0.0946540
  H        3.7214290     2.5491860    -0.0588690
  H        4.6397270    -0.4238340    -1.0970870
  H       -3.8083950    -1.5223380     1.7347280
  H       -3.9305460     1.4455410     0.2493860
  H       -2.2297620     1.8928800    -0.0590960
  H       -3.8005210     3.1308820    -1.6026710
  H       -2.7171960     2.0533230    -2.5048750
  H       -4.4009440     1.5743230    -2.2127240
units angstrom
no_reorient  #important for SAPT in psi4, default
symmetry c1  #important for SAPT in psi4, default
}

set PROPERTIES_ORIGIN ["COM"]
properties('MP2/aug-cc-pvtz', properties = ['dipole'])
--------------------------------------------------------------------------

    Molecular point group: c1
  Charge       = 0
  Multiplicity = 1
  Basis Set: AUG-CC-PVTZ
    Blend: AUG-CC-PVTZ
  Basis Set: (AUG-CC-PVTZ AUX)
    Blend: AUG-CC-PVTZ-JKFIT

    Orbital Energies [Eh]
    ---------------------

    Doubly Occupied:

       1A    -80.117127     2A    -20.614847     3A    -20.606782
       4A    -20.599123     5A    -20.584171     6A    -20.576763
       7A    -20.574431     8A    -20.573934     9A    -20.573897
      10A    -20.523714    11A    -11.320660    12A    -11.302939
      13A    -11.299742    14A    -11.299543    15A    -11.299153
      16A    -11.296691    17A    -11.291244    18A    -11.229990
      19A     -7.632580    20A     -5.531087    21A     -5.530714
      22A     -5.529511    23A     -1.460591    24A     -1.411079
      25A     -1.394964    26A     -1.392963    27A     -1.387012
      28A     -1.373078    29A     -1.364201    30A     -1.353818
      31A     -1.304142    32A     -1.118122    33A     -1.040608
      34A     -1.013128    35A     -1.000903    36A     -0.880090
      37A     -0.864930    38A     -0.859898    39A     -0.822284
      40A     -0.809774    41A     -0.751969    42A     -0.745391
      43A     -0.732244    44A     -0.728731    45A     -0.708031
      46A     -0.687642    47A     -0.676975    48A     -0.673822
      49A     -0.661890    50A     -0.660725    51A     -0.643869
      52A     -0.635138    53A     -0.626995    54A     -0.615424
      55A     -0.603861    56A     -0.598726    57A     -0.581918
      58A     -0.575673    59A     -0.572035    60A     -0.559688
      61A     -0.557270    62A     -0.549507    63A     -0.541473
      64A     -0.536548    65A     -0.529702    66A     -0.521595
      67A     -0.512707    68A     -0.503175    69A     -0.497469
      70A     -0.483571    71A     -0.480279    72A     -0.476757
      73A     -0.462538    74A     -0.455814    75A     -0.451423
      76A     -0.436341

  @DF-RHF Final Energy: -1327.86045622446954

   => Energetics <=

    Nuclear Repulsion Energy =           1772.5055990675655266
    One-Electron Energy =               -5357.1378167499078700
    Two-Electron Energy =                2256.7717614578727989
    Total Energy =                      -1327.8604562244695444
  Basis Set: (AUG-CC-PVTZ AUX)
    Blend: AUG-CC-PVTZ-RI
    Molecular point group: c1

    Geometry (in Angstrom), charge = 0, multiplicity = 1:

       Center              X                  Y                   Z               Mass
    ------------   -----------------  -----------------  -----------------  -----------------
         P           -2.289068108027    -0.939912562545     0.344467649997    30.973761998420
         O           -0.981125108027    -0.201431562545     0.938078649997    15.994914619570
         O            1.343277891973    -1.675352562545     1.230640649997    15.994914619570
         O            0.079732891973     2.359734437455     0.461957649997    15.994914619570
         O            3.069542891973    -2.186941562545    -0.808800350003    15.994914619570
         O            2.848362891973     2.503243437455     0.371324649997    15.994914619570
         O            4.196715891973     0.435527437455    -0.973084350003    15.994914619570
         O           -2.825835108027     0.033481437455    -0.807741350003    15.994914619570
         O           -3.258093108027    -0.723151562545     1.621460649997    15.994914619570
         O           -2.117965108027    -2.343513562545    -0.099878350003    15.994914619570
         C            0.119189891973     0.030139437455     0.016108649997    12.000000000000
         C            0.930402191973    -1.247564262545    -0.069728850003    12.000000000000
         C            0.899616891973     1.202774437455     0.564640649997    12.000000000000
         C            2.260687891973    -1.014176562545    -0.818247350003    12.000000000000
         C            2.178102891973     1.396602437455    -0.228251350003    12.000000000000
         C            3.026869891973     0.148835437455    -0.210532350003    12.000000000000
         C           -3.123185108027     1.431728437455    -0.489096350003    12.000000000000
         C           -3.535289108027     2.085295437455    -1.784329350003    12.000000000000
         H           -0.282064108027     0.298931437455    -0.970448350003     1.007825032230
         H            0.371296891973    -2.029233562545    -0.572242350003     1.007825032230
         H            1.158147891973     0.998007437455     1.611945649997     1.007825032230
         H            2.061961891973    -0.788529562545    -1.872966350003     1.007825032230
         H            1.918014891973     1.636417437455    -1.273793350003     1.007825032230
         H            3.296882891973    -0.094401562545     0.827435649997     1.007825032230
         H            0.513799591973    -1.883627462545     1.697520449997     1.007825032230
         H            0.666567891973     3.109441437455     0.682973649997     1.007825032230
         H            2.974570891973    -2.547243562545     0.094443649997     1.007825032230
         H            3.722456891973     2.549316437455    -0.059079350003     1.007825032230
         H            4.640754891973    -0.423703562545    -1.097297350003     1.007825032230
         H           -3.807367108027    -1.522207562545     1.734517649997     1.007825032230
         H           -3.929518108027     1.445671437455     0.249175649997     1.007825032230
         H           -2.228734108027     1.893010437455    -0.059306350003     1.007825032230
         H           -3.799493108027     3.131012437455    -1.602881350003     1.007825032230
         H           -2.716168108027     2.053453437455    -2.505085350003     1.007825032230
         H           -4.399916108027     1.574453437455    -2.212934350003     1.007825032230

  Basis Set: AUG-CC-PVTZ
    Blend: AUG-CC-PVTZ
  Basis Set: (AUG-CC-PVTZ AUX)
    Blend: AUG-CC-PVTZ-JKFIT
	 Reference Energy          =   -1327.8604562244695444 [Eh]
	 Singles Energy            =      -0.0000000000000000 [Eh]
	 Same-Spin Energy          =      -1.0146496600517847 [Eh]
	 Opposite-Spin Energy      =      -3.0762896982423094 [Eh]
	 Correlation Energy        =      -4.0909393582940936 [Eh]
	 Total Energy              =   -1331.9513955827635527 [Eh]

	 ================> DF-SCS-MP2 Energies <==================
	-----------------------------------------------------------
	 SCS Same-Spin Scale       =       0.3333333333333333 [-]
	 SCS Opposite-Spin Scale   =       1.2000000000000000 [-]
	 SCS Same-Spin Energy      =      -0.3382165533505949 [Eh]
	 SCS Opposite-Spin Energy  =      -3.6915476378907712 [Eh]
	 SCS Correlation Energy    =      -4.0297641912413660 [Eh]
	 SCS Total Energy          =   -1331.8902204157109281 [Eh]
	-----------------------------------------------------------

  Dipole Moment: [D]
     X:    -1.1362      Y:     1.8696      Z:     0.7090     Total:     2.2998

*** Psi4 exiting successfully. Buy a developer a beer!
