                               Psi4 1.4a3.dev225

  ==> Input File <==

--------------------------------------------------------------------------
#psi4
#
memory 32 gb

molecule  {
0 1
  P       -2.3219140    -1.0563120    -0.0968450
  O       -1.0285840    -0.5623410     0.7549430
  O        1.3695440    -1.8069540     1.2202350
  O       -0.1592450     2.1412630     0.5207450
  O        3.3269040    -2.0858120    -0.6453880
  O        2.5724350     2.5270130     0.6374560
  O        4.2203020     0.6406430    -0.6358120
  O       -2.8737010     0.2643620    -0.8096810
  O       -3.3065970    -1.3497020     1.1531960
  O       -2.1044560    -2.1814480    -1.0350500
  C        0.1200290    -0.1583450    -0.0432010
  C        1.0698050    -1.3527180    -0.1046720
  C        0.7441670     1.0454510     0.6308160
  C        2.4193320    -0.9866070    -0.7068450
  C        2.0603010     1.3853380    -0.0470020
  C        3.0180900     0.2181970     0.0056710
  C       -3.2473180     1.4231610     0.0025120
  C       -3.2076300     2.6262440    -0.9075720
  H       -0.2047330     0.1313700    -1.0514980
  H        0.5965010    -2.1549610    -0.6866410
  H        0.9371260     0.8063110     1.6860210
  H        2.3054700    -0.7437210    -1.7704410
  H        1.8669013     1.6321789    -1.0836976
  H        3.2142070    -0.0417910     1.0561650
  H        0.5126160    -2.0057500     1.6426110
  H        0.3598300     2.9232990     0.7925780
  H        3.1793900    -2.4823080     0.2360710
  H        3.4672560     2.6739710     0.2770410
  H        4.7639490    -0.1654590    -0.7244900
  H       -3.7873380    -2.1826420     0.9908450
  H       -4.2474700     1.2335250     0.4005830
  H       -2.5352900     1.5309660     0.8217280
  H       -3.5402110     3.5125760    -0.3587690
  H       -2.1856630     2.7912820    -1.2511950
  H       -3.8637180     2.4807570    -1.7684970
units angstrom
no_reorient  #important for SAPT in psi4, default
symmetry c1  #important for SAPT in psi4, default
}

set PROPERTIES_ORIGIN ["COM"]
properties('MP2/aug-cc-pvtz', properties = ['dipole'])
--------------------------------------------------------------------------

    Molecular point group: c1
  Charge       = 0
  Multiplicity = 1
  Basis Set: AUG-CC-PVTZ
    Blend: AUG-CC-PVTZ
  Basis Set: (AUG-CC-PVTZ AUX)
    Blend: AUG-CC-PVTZ-JKFIT

    Orbital Energies [Eh]
    ---------------------

    Doubly Occupied:

       1A    -80.116859     2A    -20.615031     3A    -20.608126
       4A    -20.596062     5A    -20.584094     6A    -20.578143
       7A    -20.575344     8A    -20.575190     9A    -20.574669
      10A    -20.522572    11A    -11.321461    12A    -11.305282
      13A    -11.300422    14A    -11.300353    15A    -11.296185
      16A    -11.296043    17A    -11.292812    18A    -11.222940
      19A     -7.632122    20A     -5.530657    21A     -5.530154
      22A     -5.529093    23A     -1.458531    24A     -1.410938
      25A     -1.395418    26A     -1.392717    27A     -1.385220
      28A     -1.372753    29A     -1.364192    30A     -1.354227
      31A     -1.302756    32A     -1.119022    33A     -1.035556
      34A     -1.011645    35A     -1.003886    36A     -0.878010
      37A     -0.862497    38A     -0.860023    39A     -0.823164
      40A     -0.810956    41A     -0.754854    42A     -0.746053
      43A     -0.729485    44A     -0.726301    45A     -0.705605
      46A     -0.687249    47A     -0.679417    48A     -0.674384
      49A     -0.662331    50A     -0.659400    51A     -0.642274
      52A     -0.637645    53A     -0.623940    54A     -0.613206
      55A     -0.604498    56A     -0.597082    57A     -0.580960
      58A     -0.577752    59A     -0.570311    60A     -0.560356
      61A     -0.555338    62A     -0.548158    63A     -0.538797
      64A     -0.537837    65A     -0.530129    66A     -0.517934
      67A     -0.508750    68A     -0.503494    69A     -0.494703
      70A     -0.487500    71A     -0.478724    72A     -0.475525
      73A     -0.462935    74A     -0.457609    75A     -0.451196
      76A     -0.436715

  @DF-RHF Final Energy: -1327.86109563672085

   => Energetics <=

    Nuclear Repulsion Energy =           1774.7397423318257097
    One-Electron Energy =               -5361.6745383406832843
    Two-Electron Energy =                2259.0737003721369547
    Total Energy =                      -1327.8610956367206200
  Basis Set: (AUG-CC-PVTZ AUX)
    Blend: AUG-CC-PVTZ-RI
    Molecular point group: c1

    Geometry (in Angstrom), charge = 0, multiplicity = 1:

       Center              X                  Y                   Z               Mass
    ------------   -----------------  -----------------  -----------------  -----------------
         P           -2.311165111812    -1.018516993944    -0.099356453727    30.973761998420
         O           -1.017835111812    -0.524545993944     0.752431546273    15.994914619570
         O            1.380292888188    -1.769158993944     1.217723546273    15.994914619570
         O           -0.148496111812     2.179058006056     0.518233546273    15.994914619570
         O            3.337652888188    -2.048016993944    -0.647899453727    15.994914619570
         O            2.583183888188     2.564808006056     0.634944546273    15.994914619570
         O            4.231050888188     0.678438006056    -0.638323453727    15.994914619570
         O           -2.862952111812     0.302157006056    -0.812192453727    15.994914619570
         O           -3.295848111812    -1.311906993944     1.150684546273    15.994914619570
         O           -2.093707111812    -2.143652993944    -1.037561453727    15.994914619570
         C            0.130777888188    -0.120549993944    -0.045712453727    12.000000000000
         C            1.080553888188    -1.314922993944    -0.107183453727    12.000000000000
         C            0.754915888188     1.083246006056     0.628304546273    12.000000000000
         C            2.430080888188    -0.948811993944    -0.709356453727    12.000000000000
         C            2.071049888188     1.423133006056    -0.049513453727    12.000000000000
         C            3.028838888188     0.255992006056     0.003159546273    12.000000000000
         C           -3.236569111812     1.460956006056     0.000000546273    12.000000000000
         C           -3.196881111812     2.664039006056    -0.910083453727    12.000000000000
         H           -0.193984111812     0.169165006056    -1.054009453727     1.007825032230
         H            0.607249888188    -2.117165993944    -0.689152453727     1.007825032230
         H            0.947874888188     0.844106006056     1.683509546273     1.007825032230
         H            2.316218888188    -0.705925993944    -1.772952453727     1.007825032230
         H            1.877650188188     1.669973906056    -1.086209053727     1.007825032230
         H            3.224955888188    -0.003995993944     1.053653546273     1.007825032230
         H            0.523364888188    -1.967954993944     1.640099546273     1.007825032230
         H            0.370578888188     2.961094006056     0.790066546273     1.007825032230
         H            3.190138888188    -2.444512993944     0.233559546273     1.007825032230
         H            3.478004888188     2.711766006056     0.274529546273     1.007825032230
         H            4.774697888188    -0.127663993944    -0.727001453727     1.007825032230
         H           -3.776589111812    -2.144846993944     0.988333546273     1.007825032230
         H           -4.236721111812     1.271320006056     0.398071546273     1.007825032230
         H           -2.524541111812     1.568761006056     0.819216546273     1.007825032230
         H           -3.529462111812     3.550371006056    -0.361280453727     1.007825032230
         H           -2.174914111812     2.829077006056    -1.253706453727     1.007825032230
         H           -3.852969111812     2.518552006056    -1.771008453727     1.007825032230

  Basis Set: AUG-CC-PVTZ
    Blend: AUG-CC-PVTZ
  Basis Set: (AUG-CC-PVTZ AUX)
    Blend: AUG-CC-PVTZ-JKFIT
	 Reference Energy          =   -1327.8610956367208473 [Eh]
	 Singles Energy            =      -0.0000000000000000 [Eh]
	 Same-Spin Energy          =      -1.0146642287626668 [Eh]
	 Opposite-Spin Energy      =      -3.0764091425069058 [Eh]
	 Correlation Energy        =      -4.0910733712695730 [Eh]
	 Total Energy              =   -1331.9521690079905056 [Eh]

	 ================> DF-SCS-MP2 Energies <==================
	-----------------------------------------------------------
	 SCS Same-Spin Scale       =       0.3333333333333333 [-]
	 SCS Opposite-Spin Scale   =       1.2000000000000000 [-]
	 SCS Same-Spin Energy      =      -0.3382214095875556 [Eh]
	 SCS Opposite-Spin Energy  =      -3.6916909710082866 [Eh]
	 SCS Correlation Energy    =      -4.0299123805958423 [Eh]
	 SCS Total Energy          =   -1331.8910080173166079 [Eh]
	-----------------------------------------------------------

  Dipole Moment: [D]
     X:    -0.8674      Y:     1.4173      Z:     1.8665     Total:     2.4989

*** Psi4 exiting successfully. Buy a developer a beer!
