                               Psi4 1.3.2 release

  ==> Input File <==

--------------------------------------------------------------------------
#psi4
#
memory 32 gb

molecule  {
0 1
  P       -2.2900960    -0.9400430     0.3446780
  O       -0.9821530    -0.2015620     0.9382890
  O        1.3422500    -1.6754830     1.2308510
  O        0.0787050     2.3596040     0.4621680
  O        3.0685150    -2.1870720    -0.8085900
  O        2.8473350     2.5031130     0.3715350
  O        4.1956880     0.4353970    -0.9728740
  O       -2.8268630     0.0333510    -0.8075310
  O       -3.2591210    -0.7232820     1.6216710
  O       -2.1189930    -2.3436440    -0.0996680
  C        0.1181620     0.0300090     0.0163190
  C        0.9532920    -1.2442050    -0.0757250
  C        0.8889004     1.1955647     0.5616974
  C        2.2596600    -1.0143070    -0.8180370
  C        2.1770750     1.3964720    -0.2280410
  C        3.0258420     0.1487050    -0.2103220
  C       -3.1242130     1.4315980    -0.4888860
  C       -3.5363170     2.0851650    -1.7841190
  H       -0.2830920     0.2988010    -0.9702380
  H        0.3702690    -2.0293640    -0.5720320
  H        1.1571200     0.9978770     1.6121560
  H        2.0609340    -0.7886600    -1.8727560
  H        1.9169870     1.6362870    -1.2735830
  H        3.2958550    -0.0945320     0.8276460
  H        0.5217750    -1.8880320     1.7115100
  H        0.6590334     3.1147003     0.6820145
  H        2.9735430    -2.5473740     0.0946540
  H        3.7214290     2.5491860    -0.0588690
  H        4.6397270    -0.4238340    -1.0970870
  H       -3.8083950    -1.5223380     1.7347280
  H       -3.9305460     1.4455410     0.2493860
  H       -2.2297620     1.8928800    -0.0590960
  H       -3.8005210     3.1308820    -1.6026710
  H       -2.7171960     2.0533230    -2.5048750
  H       -4.4009440     1.5743230    -2.2127240
units angstrom
no_reorient  #important for SAPT in psi4, default
symmetry c1  #important for SAPT in psi4, default
}

set PROPERTIES_ORIGIN ["COM"]
properties('MP2/aug-cc-pvtz', properties = ['dipole'])
--------------------------------------------------------------------------

    Molecular point group: c1
  Charge       = 0
  Multiplicity = 1
  Basis Set: AUG-CC-PVTZ
    Blend: AUG-CC-PVTZ
  Basis Set: (AUG-CC-PVTZ AUX)
    Blend: AUG-CC-PVTZ-JKFIT

    Orbital Energies [Eh]
    ---------------------

    Doubly Occupied:

       1A    -80.117022     2A    -20.614800     3A    -20.607129
       4A    -20.599020     5A    -20.583279     6A    -20.576713
       7A    -20.574638     8A    -20.573902     9A    -20.573009
      10A    -20.523536    11A    -11.320672    12A    -11.303923
      13A    -11.299423    14A    -11.299389    15A    -11.298833
      16A    -11.296868    17A    -11.291195    18A    -11.229910
      19A     -7.632476    20A     -5.530983    21A     -5.530608
      22A     -5.529407    23A     -1.460474    24A     -1.410866
      25A     -1.394582    26A     -1.392813    27A     -1.386930
      28A     -1.372560    29A     -1.363794    30A     -1.353680
      31A     -1.303940    32A     -1.119659    33A     -1.040522
      34A     -1.013031    35A     -1.003071    36A     -0.880058
      37A     -0.864910    38A     -0.859373    39A     -0.822402
      40A     -0.810548    41A     -0.751827    42A     -0.745192
      43A     -0.731652    44A     -0.728918    45A     -0.708163
      46A     -0.687203    47A     -0.678269    48A     -0.673703
      49A     -0.662002    50A     -0.660941    51A     -0.643041
      52A     -0.635191    53A     -0.627316    54A     -0.615420
      55A     -0.603265    56A     -0.598477    57A     -0.582244
      58A     -0.575595    59A     -0.571130    60A     -0.558999
      61A     -0.556714    62A     -0.548485    63A     -0.541227
      64A     -0.536745    65A     -0.529976    66A     -0.521904
      67A     -0.513015    68A     -0.504238    69A     -0.497305
      70A     -0.484850    71A     -0.479966    72A     -0.476719
      73A     -0.461655    74A     -0.455450    75A     -0.449791
      76A     -0.436416

  @DF-RHF Final Energy: -1327.86132727026870

   => Energetics <=

    Nuclear Repulsion Energy =           1772.5713463474846776
    One-Electron Energy =               -5357.2794319406693830
    Two-Electron Energy =                2256.8467583229157754
    Total Energy =                      -1327.8613272702687027
  Basis Set: (AUG-CC-PVTZ AUX)
    Blend: AUG-CC-PVTZ-RI
    Molecular point group: c1

    Geometry (in Angstrom), charge = 0, multiplicity = 1:

       Center              X                  Y                   Z               Mass
    ------------   -----------------  -----------------  -----------------  -----------------
         P           -2.289669596688    -0.939766929256     0.344813454608    30.973761998420
         O           -0.981726596688    -0.201285929256     0.938424454608    15.994914619570
         O            1.342676403312    -1.675206929256     1.230986454608    15.994914619570
         O            0.079131403312     2.359880070744     0.462303454608    15.994914619570
         O            3.068941403312    -2.186795929256    -0.808454545392    15.994914619570
         O            2.847761403312     2.503389070744     0.371670454608    15.994914619570
         O            4.196114403312     0.435673070744    -0.972738545392    15.994914619570
         O           -2.826436596688     0.033627070744    -0.807395545392    15.994914619570
         O           -3.258694596688    -0.723005929256     1.621806454608    15.994914619570
         O           -2.118566596688    -2.343367929256    -0.099532545392    15.994914619570
         C            0.118588403312     0.030285070744     0.016454454608    12.000000000000
         C            0.953718403312    -1.243928929256    -0.075589545392    12.000000000000
         C            0.889326803312     1.195840770744     0.561832854608    12.000000000000
         C            2.260086403312    -1.014030929256    -0.817901545392    12.000000000000
         C            2.177501403312     1.396748070744    -0.227905545392    12.000000000000
         C            3.026268403312     0.148981070744    -0.210186545392    12.000000000000
         C           -3.123786596688     1.431874070744    -0.488750545392    12.000000000000
         C           -3.535890596688     2.085441070744    -1.783983545392    12.000000000000
         H           -0.282665596688     0.299077070744    -0.970102545392     1.007825032230
         H            0.370695403312    -2.029087929256    -0.571896545392     1.007825032230
         H            1.157546403312     0.998153070744     1.612291454608     1.007825032230
         H            2.061360403312    -0.788383929256    -1.872620545392     1.007825032230
         H            1.917413403312     1.636563070744    -1.273447545392     1.007825032230
         H            3.296281403312    -0.094255929256     0.827781454608     1.007825032230
         H            0.522201403312    -1.887755929256     1.711645454608     1.007825032230
         H            0.659459803312     3.114976370744     0.682149954608     1.007825032230
         H            2.973969403312    -2.547097929256     0.094789454608     1.007825032230
         H            3.721855403312     2.549462070744    -0.058733545392     1.007825032230
         H            4.640153403312    -0.423557929256    -1.096951545392     1.007825032230
         H           -3.807968596688    -1.522061929256     1.734863454608     1.007825032230
         H           -3.930119596688     1.445817070744     0.249521454608     1.007825032230
         H           -2.229335596688     1.893156070744    -0.058960545392     1.007825032230
         H           -3.800094596688     3.131158070744    -1.602535545392     1.007825032230
         H           -2.716769596688     2.053599070744    -2.504739545392     1.007825032230
         H           -4.400517596688     1.574599070744    -2.212588545392     1.007825032230

  Basis Set: AUG-CC-PVTZ
    Blend: AUG-CC-PVTZ
  Basis Set: (AUG-CC-PVTZ AUX)
    Blend: AUG-CC-PVTZ-JKFIT
	 Reference Energy          =   -1327.8613272702687027 [Eh]
	 Singles Energy            =      -0.0000000000000000 [Eh]
	 Same-Spin Energy          =      -1.0146080979008374 [Eh]
	 Opposite-Spin Energy      =      -3.0760450966235209 [Eh]
	 Correlation Energy        =      -4.0906531945243580 [Eh]
	 Total Energy              =   -1331.9519804647929959 [Eh]

	 ================> DF-SCS-MP2 Energies <==================
	-----------------------------------------------------------
	 SCS Same-Spin Scale       =       0.3333333333333333 [-]
	 SCS Opposite-Spin Scale   =       1.2000000000000000 [-]
	 SCS Same-Spin Energy      =      -0.3382026993002791 [Eh]
	 SCS Opposite-Spin Energy  =      -3.6912541159482251 [Eh]
	 SCS Correlation Energy    =      -4.0294568152485040 [Eh]
	 SCS Total Energy          =   -1331.8907840855172253 [Eh]
	-----------------------------------------------------------

  Dipole Moment: [D]
     X:    -1.1284      Y:     1.8628      Z:     0.7204     Total:     2.2940

*** Psi4 exiting successfully. Buy a developer a beer!
