                               Psi4 1.3.2 release

  ==> Input File <==

--------------------------------------------------------------------------
#psi4
#
memory 32 gb

molecule  {
0 1
  P       -2.2900960    -0.9400430     0.3446780
  O       -0.9821530    -0.2015620     0.9382890
  O        1.3422500    -1.6754830     1.2308510
  O        0.0787050     2.3596040     0.4621680
  O        3.0685150    -2.1870720    -0.8085900
  O        2.8473350     2.5031130     0.3715350
  O        4.1956880     0.4353970    -0.9728740
  O       -2.8268630     0.0333510    -0.8075310
  O       -3.2591210    -0.7232820     1.6216710
  O       -2.1189930    -2.3436440    -0.0996680
  C        0.1181620     0.0300090     0.0163190
  C        0.9532920    -1.2442050    -0.0757250
  C        0.8985890     1.2026440     0.5648510
  C        2.2596600    -1.0143070    -0.8180370
  C        2.1770750     1.3964720    -0.2280410
  C        3.0258420     0.1487050    -0.2103220
  C       -3.1242130     1.4315980    -0.4888860
  C       -3.5363170     2.0851650    -1.7841190
  H       -0.2830920     0.2988010    -0.9702380
  H        0.3702690    -2.0293640    -0.5720320
  H        1.1571200     0.9978770     1.6121560
  H        2.0609340    -0.7886600    -1.8727560
  H        1.8698599     1.6797407    -1.4630317
  H        3.2958550    -0.0945320     0.8276460
  H        0.5217750    -1.8880320     1.7115100
  H        0.6655400     3.1093110     0.6831840
  H        2.9735430    -2.5473740     0.0946540
  H        3.7214290     2.5491860    -0.0588690
  H        4.6397270    -0.4238340    -1.0970870
  H       -3.8083950    -1.5223380     1.7347280
  H       -3.9305460     1.4455410     0.2493860
  H       -2.2297620     1.8928800    -0.0590960
  H       -3.8005210     3.1308820    -1.6026710
  H       -2.7171960     2.0533230    -2.5048750
  H       -4.4009440     1.5743230    -2.2127240
units angstrom
no_reorient  #important for SAPT in psi4, default
symmetry c1  #important for SAPT in psi4, default
}

set PROPERTIES_ORIGIN ["COM"]
properties('MP2/aug-cc-pvtz', properties = ['dipole'])
--------------------------------------------------------------------------

    Molecular point group: c1
  Charge       = 0
  Multiplicity = 1
  Basis Set: AUG-CC-PVTZ
    Blend: AUG-CC-PVTZ
  Basis Set: (AUG-CC-PVTZ AUX)
    Blend: AUG-CC-PVTZ-JKFIT

    Orbital Energies [Eh]
    ---------------------

    Doubly Occupied:

       1A    -80.116924     2A    -20.614724     3A    -20.607035
       4A    -20.598770     5A    -20.583496     6A    -20.581775
       7A    -20.574762     8A    -20.574456     9A    -20.573685
      10A    -20.523400    11A    -11.320703    12A    -11.319110
      13A    -11.303579    14A    -11.301033    15A    -11.299226
      16A    -11.299179    17A    -11.294198    18A    -11.229555
      19A     -7.632369    20A     -5.530876    21A     -5.530503
      22A     -5.529300    23A     -1.460264    24A     -1.411247
      25A     -1.395832    26A     -1.393421    27A     -1.386757
      28A     -1.373069    29A     -1.364952    30A     -1.354918
      31A     -1.303794    32A     -1.118265    33A     -1.040193
      34A     -1.011499    35A     -1.001852    36A     -0.879771
      37A     -0.864610    38A     -0.857072    39A     -0.821224
      40A     -0.803971    41A     -0.748762    42A     -0.745544
      43A     -0.729965    44A     -0.726766    45A     -0.708562
      46A     -0.684521    47A     -0.677923    48A     -0.672527
      49A     -0.663125    50A     -0.661430    51A     -0.642087
      52A     -0.635678    53A     -0.626439    54A     -0.614454
      55A     -0.602504    56A     -0.596875    57A     -0.581043
      58A     -0.575468    59A     -0.571110    60A     -0.557776
      61A     -0.555169    62A     -0.548322    63A     -0.540744
      64A     -0.536015    65A     -0.529595    66A     -0.521636
      67A     -0.511203    68A     -0.503813    69A     -0.496866
      70A     -0.484979    71A     -0.479660    72A     -0.476571
      73A     -0.461676    74A     -0.453072    75A     -0.443314
      76A     -0.436970

  @DF-RHF Final Energy: -1327.84123011991596

   => Energetics <=

    Nuclear Repulsion Energy =           1771.3191190002366966
    One-Electron Energy =               -5354.7536270165728638
    Two-Electron Energy =                2255.5932778964202043
    Total Energy =                      -1327.8412301199159629
  Basis Set: (AUG-CC-PVTZ AUX)
    Blend: AUG-CC-PVTZ-RI
    Molecular point group: c1

    Geometry (in Angstrom), charge = 0, multiplicity = 1:

       Center              X                  Y                   Z               Mass
    ------------   -----------------  -----------------  -----------------  -----------------
         P           -2.289931085881    -0.940195011666     0.345340805693    30.973761998420
         O           -0.981988085881    -0.201714011666     0.938951805693    15.994914619570
         O            1.342414914119    -1.675635011666     1.231513805693    15.994914619570
         O            0.078869914119     2.359451988334     0.462830805693    15.994914619570
         O            3.068679914119    -2.187224011666    -0.807927194307    15.994914619570
         O            2.847499914119     2.502960988334     0.372197805693    15.994914619570
         O            4.195852914119     0.435244988334    -0.972211194307    15.994914619570
         O           -2.826698085881     0.033198988334    -0.806868194307    15.994914619570
         O           -3.258956085881    -0.723434011666     1.622333805693    15.994914619570
         O           -2.118828085881    -2.343796011666    -0.099005194307    15.994914619570
         C            0.118326914119     0.029856988334     0.016981805693    12.000000000000
         C            0.953456914119    -1.244357011666    -0.075062194307    12.000000000000
         C            0.898753914119     1.202491988334     0.565513805693    12.000000000000
         C            2.259824914119    -1.014459011666    -0.817374194307    12.000000000000
         C            2.177239914119     1.396319988334    -0.227378194307    12.000000000000
         C            3.026006914119     0.148552988334    -0.209659194307    12.000000000000
         C           -3.124048085881     1.431445988334    -0.488223194307    12.000000000000
         C           -3.536152085881     2.085012988334    -1.783456194307    12.000000000000
         H           -0.282927085881     0.298648988334    -0.969575194307     1.007825032230
         H            0.370433914119    -2.029516011666    -0.571369194307     1.007825032230
         H            1.157284914119     0.997724988334     1.612818805693     1.007825032230
         H            2.061098914119    -0.788812011666    -1.872093194307     1.007825032230
         H            1.870024814119     1.679588688334    -1.462368894307     1.007825032230
         H            3.296019914119    -0.094684011666     0.828308805693     1.007825032230
         H            0.521939914119    -1.888184011666     1.712172805693     1.007825032230
         H            0.665704914119     3.109158988334     0.683846805693     1.007825032230
         H            2.973707914119    -2.547526011666     0.095316805693     1.007825032230
         H            3.721593914119     2.549033988334    -0.058206194307     1.007825032230
         H            4.639891914119    -0.423986011666    -1.096424194307     1.007825032230
         H           -3.808230085881    -1.522490011666     1.735390805693     1.007825032230
         H           -3.930381085881     1.445388988334     0.250048805693     1.007825032230
         H           -2.229597085881     1.892727988334    -0.058433194307     1.007825032230
         H           -3.800356085881     3.130729988334    -1.602008194307     1.007825032230
         H           -2.717031085881     2.053170988334    -2.504212194307     1.007825032230
         H           -4.400779085881     1.574170988334    -2.212061194307     1.007825032230

  Basis Set: AUG-CC-PVTZ
    Blend: AUG-CC-PVTZ
  Basis Set: (AUG-CC-PVTZ AUX)
    Blend: AUG-CC-PVTZ-JKFIT
	 Reference Energy          =   -1327.8412301199159629 [Eh]
	 Singles Energy            =      -0.0000000000000000 [Eh]
	 Same-Spin Energy          =      -1.0151628199608385 [Eh]
	 Opposite-Spin Energy      =      -3.0782814292990763 [Eh]
	 Correlation Energy        =      -4.0934442492599148 [Eh]
	 Total Energy              =   -1331.9346743691758093 [Eh]

	 ================> DF-SCS-MP2 Energies <==================
	-----------------------------------------------------------
	 SCS Same-Spin Scale       =       0.3333333333333333 [-]
	 SCS Opposite-Spin Scale   =       1.2000000000000000 [-]
	 SCS Same-Spin Energy      =      -0.3383876066536128 [Eh]
	 SCS Opposite-Spin Energy  =      -3.6939377151588912 [Eh]
	 SCS Correlation Energy    =      -4.0323253218125039 [Eh]
	 SCS Total Energy          =   -1331.8735554417285130 [Eh]
	-----------------------------------------------------------

  Dipole Moment: [D]
     X:    -1.0440      Y:     1.8755      Z:     0.8679     Total:     2.3154

*** Psi4 exiting successfully. Buy a developer a beer!
