                               Psi4 1.3.2 release

  ==> Input File <==

--------------------------------------------------------------------------
#psi4
#
memory 32 gb

molecule  {
0 1
  P       -2.2900960    -0.9400430     0.3446780
  O       -0.9821530    -0.2015620     0.9382890
  O        1.3422500    -1.6754830     1.2308510
  O        0.0787050     2.3596040     0.4621680
  O        3.0685150    -2.1870720    -0.8085900
  O        2.8473350     2.5031130     0.3715350
  O        4.1956880     0.4353970    -0.9728740
  O       -2.8268630     0.0333510    -0.8075310
  O       -3.2591210    -0.7232820     1.6216710
  O       -2.1189930    -2.3436440    -0.0996680
  C        0.1181620     0.0300090     0.0163190
  C        0.9532920    -1.2442050    -0.0757250
  C        0.8985890     1.2026440     0.5648510
  C        2.2596600    -1.0143070    -0.8180370
  C        2.1770750     1.3964720    -0.2280410
  C        3.0258420     0.1487050    -0.2103220
  C       -3.1242130     1.4315980    -0.4888860
  C       -3.5363170     2.0851650    -1.7841190
  H       -0.3196218     0.3232716    -1.0600532
  H        0.3702690    -2.0293640    -0.5720320
  H        1.1571200     0.9978770     1.6121560
  H        2.0609340    -0.7886600    -1.8727560
  H        1.9169870     1.6362870    -1.2735830
  H        3.2958550    -0.0945320     0.8276460
  H        0.5217750    -1.8880320     1.7115100
  H        0.6655400     3.1093110     0.6831840
  H        2.9735430    -2.5473740     0.0946540
  H        3.7214290     2.5491860    -0.0588690
  H        4.6397270    -0.4238340    -1.0970870
  H       -3.8083950    -1.5223380     1.7347280
  H       -3.9305460     1.4455410     0.2493860
  H       -2.2297620     1.8928800    -0.0590960
  H       -3.8005210     3.1308820    -1.6026710
  H       -2.7171960     2.0533230    -2.5048750
  H       -4.4009440     1.5743230    -2.2127240
units angstrom
no_reorient  #important for SAPT in psi4, default
symmetry c1  #important for SAPT in psi4, default
}

set PROPERTIES_ORIGIN ["COM"]
properties('MP2/aug-cc-pvtz', properties = ['dipole'])
--------------------------------------------------------------------------

    Molecular point group: c1
  Charge       = 0
  Multiplicity = 1
  Basis Set: AUG-CC-PVTZ
    Blend: AUG-CC-PVTZ
  Basis Set: (AUG-CC-PVTZ AUX)
    Blend: AUG-CC-PVTZ-JKFIT

    Orbital Energies [Eh]
    ---------------------

    Doubly Occupied:

       1A    -80.117236     2A    -20.614967     3A    -20.608425
       4A    -20.598722     5A    -20.583786     6A    -20.576722
       7A    -20.574594     8A    -20.574053     9A    -20.573399
      10A    -20.523506    11A    -11.331260    12A    -11.304180
      13A    -11.299385    14A    -11.299239    15A    -11.299227
      16A    -11.296570    17A    -11.291386    18A    -11.229805
      19A     -7.632671    20A     -5.531177    21A     -5.530808
      22A     -5.529598    23A     -1.460570    24A     -1.411018
      25A     -1.394876    26A     -1.393130    27A     -1.386846
      28A     -1.373006    29A     -1.364015    30A     -1.353861
      31A     -1.303897    32A     -1.117745    33A     -1.040350
      34A     -1.009189    35A     -1.003570    36A     -0.880076
      37A     -0.864404    38A     -0.858705    39A     -0.821346
      40A     -0.805050    41A     -0.751832    42A     -0.743058
      43A     -0.731604    44A     -0.727298    45A     -0.706307
      46A     -0.686629    47A     -0.678304    48A     -0.671963
      49A     -0.662291    50A     -0.660303    51A     -0.643222
      52A     -0.635140    53A     -0.627350    54A     -0.614984
      55A     -0.603047    56A     -0.598532    57A     -0.580550
      58A     -0.575608    59A     -0.570968    60A     -0.558696
      61A     -0.556134    62A     -0.547660    63A     -0.540951
      64A     -0.536261    65A     -0.527012    66A     -0.521654
      67A     -0.513009    68A     -0.503433    69A     -0.496402
      70A     -0.482439    71A     -0.479806    72A     -0.476347
      73A     -0.462592    74A     -0.455624    75A     -0.450375
      76A     -0.436324

  @DF-RHF Final Energy: -1327.85426940592856

   => Energetics <=

    Nuclear Repulsion Energy =           1771.8662130321363293
    One-Electron Energy =               -5355.8888034973533649
    Two-Electron Energy =                2256.1683210592887008
    Total Energy =                      -1327.8542694059283349
  Basis Set: (AUG-CC-PVTZ AUX)
    Blend: AUG-CC-PVTZ-RI
    Molecular point group: c1

    Geometry (in Angstrom), charge = 0, multiplicity = 1:

       Center              X                  Y                   Z               Mass
    ------------   -----------------  -----------------  -----------------  -----------------
         P           -2.289968162137    -0.940128596420     0.344992222828    30.973761998420
         O           -0.982025162137    -0.201647596420     0.938603222828    15.994914619570
         O            1.342377837863    -1.675568596420     1.231165222828    15.994914619570
         O            0.078832837863     2.359518403580     0.462482222828    15.994914619570
         O            3.068642837863    -2.187157596420    -0.808275777172    15.994914619570
         O            2.847462837863     2.503027403580     0.371849222828    15.994914619570
         O            4.195815837863     0.435311403580    -0.972559777172    15.994914619570
         O           -2.826735162137     0.033265403580    -0.807216777172    15.994914619570
         O           -3.258993162137    -0.723367596420     1.621985222828    15.994914619570
         O           -2.118865162137    -2.343729596420    -0.099353777172    15.994914619570
         C            0.118289837863     0.029923403580     0.016633222828    12.000000000000
         C            0.953419837863    -1.244290596420    -0.075410777172    12.000000000000
         C            0.898716837863     1.202558403580     0.565165222828    12.000000000000
         C            2.259787837863    -1.014392596420    -0.817722777172    12.000000000000
         C            2.177202837863     1.396386403580    -0.227726777172    12.000000000000
         C            3.025969837863     0.148619403580    -0.210007777172    12.000000000000
         C           -3.124085162137     1.431512403580    -0.488571777172    12.000000000000
         C           -3.536189162137     2.085079403580    -1.783804777172    12.000000000000
         H           -0.319493962137     0.323186003580    -1.059738977172     1.007825032230
         H            0.370396837863    -2.029449596420    -0.571717777172     1.007825032230
         H            1.157247837863     0.997791403580     1.612470222828     1.007825032230
         H            2.061061837863    -0.788745596420    -1.872441777172     1.007825032230
         H            1.917114837863     1.636201403580    -1.273268777172     1.007825032230
         H            3.295982837863    -0.094617596420     0.827960222828     1.007825032230
         H            0.521902837863    -1.888117596420     1.711824222828     1.007825032230
         H            0.665667837863     3.109225403580     0.683498222828     1.007825032230
         H            2.973670837863    -2.547459596420     0.094968222828     1.007825032230
         H            3.721556837863     2.549100403580    -0.058554777172     1.007825032230
         H            4.639854837863    -0.423919596420    -1.096772777172     1.007825032230
         H           -3.808267162137    -1.522423596420     1.735042222828     1.007825032230
         H           -3.930418162137     1.445455403580     0.249700222828     1.007825032230
         H           -2.229634162137     1.892794403580    -0.058781777172     1.007825032230
         H           -3.800393162137     3.130796403580    -1.602356777172     1.007825032230
         H           -2.717068162137     2.053237403580    -2.504560777172     1.007825032230
         H           -4.400816162137     1.574237403580    -2.212409777172     1.007825032230

  Basis Set: AUG-CC-PVTZ
    Blend: AUG-CC-PVTZ
  Basis Set: (AUG-CC-PVTZ AUX)
    Blend: AUG-CC-PVTZ-JKFIT
	 Reference Energy          =   -1327.8542694059285623 [Eh]
	 Singles Energy            =      -0.0000000000000000 [Eh]
	 Same-Spin Energy          =      -1.0150362337221925 [Eh]
	 Opposite-Spin Energy      =      -3.0772990869367876 [Eh]
	 Correlation Energy        =      -4.0923353206589805 [Eh]
	 Total Energy              =   -1331.9466047265875659 [Eh]

	 ================> DF-SCS-MP2 Energies <==================
	-----------------------------------------------------------
	 SCS Same-Spin Scale       =       0.3333333333333333 [-]
	 SCS Opposite-Spin Scale   =       1.2000000000000000 [-]
	 SCS Same-Spin Energy      =      -0.3383454112407308 [Eh]
	 SCS Opposite-Spin Energy  =      -3.6927589043241449 [Eh]
	 SCS Correlation Energy    =      -4.0311043155648756 [Eh]
	 SCS Total Energy          =   -1331.8853737214933517 [Eh]
	-----------------------------------------------------------

  Dipole Moment: [D]
     X:    -1.1286      Y:     1.8521      Z:     0.7520     Total:     2.2955

*** Psi4 exiting successfully. Buy a developer a beer!
