                               Psi4 1.3.2 release

  ==> Input File <==

--------------------------------------------------------------------------
#psi4
#
memory 32 gb

molecule  {
0 1
  P       -2.2900960    -0.9400430     0.3446780
  O       -0.9821530    -0.2015620     0.9382890
  O        1.3422500    -1.6754830     1.2308510
  O        0.0787050     2.3596040     0.4621680
  O        3.0685150    -2.1870720    -0.8085900
  O        2.8473350     2.5031130     0.3715350
  O        4.1956880     0.4353970    -0.9728740
  O       -2.8268630     0.0333510    -0.8075310
  O       -3.2591210    -0.7232820     1.6216710
  O       -2.1189930    -2.3436440    -0.0996680
  C        0.1181620     0.0300090     0.0163190
  C        0.9532920    -1.2442050    -0.0757250
  C        0.8985890     1.2026440     0.5648510
  C        2.2527979    -1.0330996    -0.8354595
  C        2.1770750     1.3964720    -0.2280410
  C        3.0258420     0.1487050    -0.2103220
  C       -3.1242130     1.4315980    -0.4888860
  C       -3.5363170     2.0851650    -1.7841190
  H       -0.2830920     0.2988010    -0.9702380
  H        0.3841477    -2.0311843    -0.5850867
  H        1.1571200     0.9978770     1.6121560
  H        2.0609340    -0.7886600    -1.8727560
  H        1.9169870     1.6362870    -1.2735830
  H        3.2958550    -0.0945320     0.8276460
  H        0.5217750    -1.8880320     1.7115100
  H        0.6655400     3.1093110     0.6831840
  H        2.9735430    -2.5473740     0.0946540
  H        3.7214290     2.5491860    -0.0588690
  H        4.6397270    -0.4238340    -1.0970870
  H       -3.8083950    -1.5223380     1.7347280
  H       -3.9305460     1.4455410     0.2493860
  H       -2.2297620     1.8928800    -0.0590960
  H       -3.8005210     3.1308820    -1.6026710
  H       -2.7171960     2.0533230    -2.5048750
  H       -4.4009440     1.5743230    -2.2127240
units angstrom
no_reorient  #important for SAPT in psi4, default
symmetry c1  #important for SAPT in psi4, default
}

set PROPERTIES_ORIGIN ["COM"]
properties('MP2/aug-cc-pvtz', properties = ['dipole'])
--------------------------------------------------------------------------

    Molecular point group: c1
  Charge       = 0
  Multiplicity = 1
  Basis Set: AUG-CC-PVTZ
    Blend: AUG-CC-PVTZ
  Basis Set: (AUG-CC-PVTZ AUX)
    Blend: AUG-CC-PVTZ-JKFIT

    Orbital Energies [Eh]
    ---------------------

    Doubly Occupied:

       1A    -80.116760     2A    -20.614602     3A    -20.606960
       4A    -20.598820     5A    -20.583603     6A    -20.576302
       7A    -20.575612     8A    -20.573293     9A    -20.573210
      10A    -20.523141    11A    -11.321026    12A    -11.303165
      13A    -11.299285    14A    -11.298976    15A    -11.298335
      16A    -11.295975    17A    -11.291084    18A    -11.229796
      19A     -7.632209    20A     -5.530715    21A     -5.530343
      22A     -5.529139    23A     -1.460157    24A     -1.411171
      25A     -1.394442    26A     -1.393740    27A     -1.386770
      28A     -1.372357    29A     -1.365302    30A     -1.354265
      31A     -1.303524    32A     -1.117167    33A     -1.040335
      34A     -1.009516    35A     -1.003478    36A     -0.879252
      37A     -0.864592    38A     -0.859491    39A     -0.822479
      40A     -0.811201    41A     -0.751600    42A     -0.744525
      43A     -0.731055    44A     -0.728476    45A     -0.707586
      46A     -0.686187    47A     -0.680230    48A     -0.673308
      49A     -0.661779    50A     -0.661145    51A     -0.642809
      52A     -0.634779    53A     -0.627610    54A     -0.615518
      55A     -0.603729    56A     -0.599982    57A     -0.581811
      58A     -0.575612    59A     -0.570806    60A     -0.559268
      61A     -0.556746    62A     -0.548438    63A     -0.541320
      64A     -0.538106    65A     -0.530445    66A     -0.521669
      67A     -0.513039    68A     -0.504280    69A     -0.496805
      70A     -0.485194    71A     -0.479732    72A     -0.476361
      73A     -0.462280    74A     -0.455245    75A     -0.450285
      76A     -0.430385

  @DF-RHF Final Energy: -1327.86123892371052

   => Energetics <=

    Nuclear Repulsion Energy =           1772.0609570707129024
    One-Electron Energy =               -5356.2849253220338142
    Two-Electron Energy =                2256.3627293276103956
    Total Energy =                      -1327.8612389237105162
  Basis Set: (AUG-CC-PVTZ AUX)
    Blend: AUG-CC-PVTZ-RI
    Molecular point group: c1

    Geometry (in Angstrom), charge = 0, multiplicity = 1:

       Center              X                  Y                   Z               Mass
    ------------   -----------------  -----------------  -----------------  -----------------
         P           -2.289858663629    -0.939253754597     0.345449448338    30.973761998420
         O           -0.981915663629    -0.200772754597     0.939060448338    15.994914619570
         O            1.342487336371    -1.674693754597     1.231622448338    15.994914619570
         O            0.078942336371     2.360393245403     0.462939448338    15.994914619570
         O            3.068752336371    -2.186282754597    -0.807818551662    15.994914619570
         O            2.847572336371     2.503902245403     0.372306448338    15.994914619570
         O            4.195925336371     0.436186245403    -0.972102551662    15.994914619570
         O           -2.826625663629     0.034140245403    -0.806759551662    15.994914619570
         O           -3.258883663629    -0.722492754597     1.622442448338    15.994914619570
         O           -2.118755663629    -2.342854754597    -0.098896551662    15.994914619570
         C            0.118399336371     0.030798245403     0.017090448338    12.000000000000
         C            0.953529336371    -1.243415754597    -0.074953551662    12.000000000000
         C            0.898826336371     1.203433245403     0.565622448338    12.000000000000
         C            2.253035236371    -1.032310354597    -0.834688051662    12.000000000000
         C            2.177312336371     1.397261245403    -0.227269551662    12.000000000000
         C            3.026079336371     0.149494245403    -0.209550551662    12.000000000000
         C           -3.123975663629     1.432387245403    -0.488114551662    12.000000000000
         C           -3.536079663629     2.085954245403    -1.783347551662    12.000000000000
         H           -0.282854663629     0.299590245403    -0.969466551662     1.007825032230
         H            0.384385036371    -2.030395054597    -0.584315251662     1.007825032230
         H            1.157357336371     0.998666245403     1.612927448338     1.007825032230
         H            2.061171336371    -0.787870754597    -1.871984551662     1.007825032230
         H            1.917224336371     1.637076245403    -1.272811551662     1.007825032230
         H            3.296092336371    -0.093742754597     0.828417448338     1.007825032230
         H            0.522012336371    -1.887242754597     1.712281448338     1.007825032230
         H            0.665777336371     3.110100245403     0.683955448338     1.007825032230
         H            2.973780336371    -2.546584754597     0.095425448338     1.007825032230
         H            3.721666336371     2.549975245403    -0.058097551662     1.007825032230
         H            4.639964336371    -0.423044754597    -1.096315551662     1.007825032230
         H           -3.808157663629    -1.521548754597     1.735499448338     1.007825032230
         H           -3.930308663629     1.446330245403     0.250157448338     1.007825032230
         H           -2.229524663629     1.893669245403    -0.058324551662     1.007825032230
         H           -3.800283663629     3.131671245403    -1.601899551662     1.007825032230
         H           -2.716958663629     2.054112245403    -2.504103551662     1.007825032230
         H           -4.400706663629     1.575112245403    -2.211952551662     1.007825032230

  Basis Set: AUG-CC-PVTZ
    Blend: AUG-CC-PVTZ
  Basis Set: (AUG-CC-PVTZ AUX)
    Blend: AUG-CC-PVTZ-JKFIT
	 Reference Energy          =   -1327.8612389237105162 [Eh]
	 Singles Energy            =      -0.0000000000000000 [Eh]
	 Same-Spin Energy          =      -1.0144224186518385 [Eh]
	 Opposite-Spin Energy      =      -3.0757630303292101 [Eh]
	 Correlation Energy        =      -4.0901854489810487 [Eh]
	 Total Energy              =   -1331.9514243726914628 [Eh]

	 ================> DF-SCS-MP2 Energies <==================
	-----------------------------------------------------------
	 SCS Same-Spin Scale       =       0.3333333333333333 [-]
	 SCS Opposite-Spin Scale   =       1.2000000000000000 [-]
	 SCS Same-Spin Energy      =      -0.3381408062172795 [Eh]
	 SCS Opposite-Spin Energy  =      -3.6909156363950517 [Eh]
	 SCS Correlation Energy    =      -4.0290564426123314 [Eh]
	 SCS Total Energy          =   -1331.8902953663227891 [Eh]
	-----------------------------------------------------------

  Dipole Moment: [D]
     X:    -1.0945      Y:     1.8092      Z:     0.6976     Total:     2.2266

*** Psi4 exiting successfully. Buy a developer a beer!
