                               Psi4 1.3.2 release

  ==> Input File <==

--------------------------------------------------------------------------
#psi4
#
memory 32 gb

molecule  {
0 1
  P       -2.2900960    -0.9400430     0.3446780
  O       -0.9821530    -0.2015620     0.9382890
  O        1.3422500    -1.6754830     1.2308510
  O        0.0787050     2.3596040     0.4621680
  O        3.0685150    -2.1870720    -0.8085900
  O        2.8473350     2.5031130     0.3715350
  O        4.1956880     0.4353970    -0.9728740
  O       -2.8268630     0.0333510    -0.8075310
  O       -3.2591210    -0.7232820     1.6216710
  O       -2.1189930    -2.3436440    -0.0996680
  C        0.1181620     0.0300090     0.0163190
  C        0.9532920    -1.2442050    -0.0757250
  C        0.8985890     1.2026440     0.5648510
  C        2.2596600    -1.0143070    -0.8180370
  C        2.1770750     1.3964720    -0.2280410
  C        3.0289595     0.1366626    -0.2101683
  C       -3.1242130     1.4315980    -0.4888860
  C       -3.5363170     2.0851650    -1.7841190
  H       -0.2830920     0.2988010    -0.9702380
  H        0.3702690    -2.0293640    -0.5720320
  H        1.1571200     0.9978770     1.6121560
  H        2.0609340    -0.7886600    -1.8727560
  H        1.9169870     1.6362870    -1.2735830
  H        3.2958550    -0.0945320     0.8276460
  H        0.5217750    -1.8880320     1.7115100
  H        0.6655400     3.1093110     0.6831840
  H        2.9735430    -2.5473740     0.0946540
  H        3.7214290     2.5491860    -0.0588690
  H        4.6335321    -0.4276333    -1.0926596
  H       -3.8083950    -1.5223380     1.7347280
  H       -3.9305460     1.4455410     0.2493860
  H       -2.2297620     1.8928800    -0.0590960
  H       -3.8005210     3.1308820    -1.6026710
  H       -2.7171960     2.0533230    -2.5048750
  H       -4.4009440     1.5743230    -2.2127240
units angstrom
no_reorient  #important for SAPT in psi4, default
symmetry c1  #important for SAPT in psi4, default
}

set PROPERTIES_ORIGIN ["COM"]
properties('MP2/aug-cc-pvtz', properties = ['dipole'])
--------------------------------------------------------------------------

    Molecular point group: c1
  Charge       = 0
  Multiplicity = 1
  Basis Set: AUG-CC-PVTZ
    Blend: AUG-CC-PVTZ
  Basis Set: (AUG-CC-PVTZ AUX)
    Blend: AUG-CC-PVTZ-JKFIT

    Orbital Energies [Eh]
    ---------------------

    Doubly Occupied:

       1A    -80.116972     2A    -20.614756     3A    -20.607055
       4A    -20.598950     5A    -20.583319     6A    -20.576846
       7A    -20.574604     8A    -20.574514     9A    -20.573256
      10A    -20.523486    11A    -11.320773    12A    -11.303827
      13A    -11.299376    14A    -11.299222    15A    -11.298336
      16A    -11.296894    17A    -11.291307    18A    -11.229857
      19A     -7.632423    20A     -5.530929    21A     -5.530556
      22A     -5.529354    23A     -1.460310    24A     -1.410998
      25A     -1.394755    26A     -1.393080    27A     -1.386890
      28A     -1.373006    29A     -1.363952    30A     -1.354066
      31A     -1.303881    32A     -1.118729    33A     -1.040450
      34A     -1.011645    35A     -1.003370    36A     -0.880609
      37A     -0.865020    38A     -0.858497    39A     -0.822398
      40A     -0.810852    41A     -0.751696    42A     -0.745243
      43A     -0.731404    44A     -0.728618    45A     -0.707890
      46A     -0.687512    47A     -0.678206    48A     -0.673640
      49A     -0.661739    50A     -0.661000    51A     -0.643112
      52A     -0.634510    53A     -0.627393    54A     -0.615404
      55A     -0.603632    56A     -0.598919    57A     -0.582027
      58A     -0.575577    59A     -0.571377    60A     -0.559337
      61A     -0.557015    62A     -0.548590    63A     -0.541220
      64A     -0.536732    65A     -0.530014    66A     -0.521721
      67A     -0.513107    68A     -0.504552    69A     -0.497036
      70A     -0.484819    71A     -0.479865    72A     -0.476687
      73A     -0.462345    74A     -0.454232    75A     -0.450153
      76A     -0.437783

  @DF-RHF Final Energy: -1327.86111528790821

   => Energetics <=

    Nuclear Repulsion Energy =           1772.4196221022382360
    One-Electron Energy =               -5356.9750193832423975
    Two-Electron Energy =                2256.6942819930959558
    Total Energy =                      -1327.8611152879079782
  Basis Set: (AUG-CC-PVTZ AUX)
    Blend: AUG-CC-PVTZ-RI
    Molecular point group: c1

    Geometry (in Angstrom), charge = 0, multiplicity = 1:

       Center              X                  Y                   Z               Mass
    ------------   -----------------  -----------------  -----------------  -----------------
         P           -2.290204161689    -0.939528029521     0.344656098031    30.973761998420
         O           -0.982261161689    -0.201047029521     0.938267098031    15.994914619570
         O            1.342141838311    -1.674968029521     1.230829098031    15.994914619570
         O            0.078596838311     2.360118970479     0.462146098031    15.994914619570
         O            3.068406838311    -2.186557029521    -0.808611901969    15.994914619570
         O            2.847226838311     2.503627970479     0.371513098031    15.994914619570
         O            4.195579838311     0.435911970479    -0.972895901969    15.994914619570
         O           -2.826971161689     0.033865970479    -0.807552901969    15.994914619570
         O           -3.259229161689    -0.722767029521     1.621649098031    15.994914619570
         O           -2.119101161689    -2.343129029521    -0.099689901969    15.994914619570
         C            0.118053838311     0.030523970479     0.016297098031    12.000000000000
         C            0.953183838311    -1.243690029521    -0.075746901969    12.000000000000
         C            0.898480838311     1.203158970479     0.564829098031    12.000000000000
         C            2.259551838311    -1.013792029521    -0.818058901969    12.000000000000
         C            2.176966838311     1.396986970479    -0.228062901969    12.000000000000
         C            3.028851338311     0.137177570479    -0.210190201969    12.000000000000
         C           -3.124321161689     1.432112970479    -0.488907901969    12.000000000000
         C           -3.536425161689     2.085679970479    -1.784140901969    12.000000000000
         H           -0.283200161689     0.299315970479    -0.970259901969     1.007825032230
         H            0.370160838311    -2.028849029521    -0.572053901969     1.007825032230
         H            1.157011838311     0.998391970479     1.612134098031     1.007825032230
         H            2.060825838311    -0.788145029521    -1.872777901969     1.007825032230
         H            1.916878838311     1.636801970479    -1.273604901969     1.007825032230
         H            3.295746838311    -0.094017029521     0.827624098031     1.007825032230
         H            0.521666838311    -1.887517029521     1.711488098031     1.007825032230
         H            0.665431838311     3.109825970479     0.683162098031     1.007825032230
         H            2.973434838311    -2.546859029521     0.094632098031     1.007825032230
         H            3.721320838311     2.549700970479    -0.058890901969     1.007825032230
         H            4.633423938311    -0.427118329521    -1.092681501969     1.007825032230
         H           -3.808503161689    -1.521823029521     1.734706098031     1.007825032230
         H           -3.930654161689     1.446055970479     0.249364098031     1.007825032230
         H           -2.229870161689     1.893394970479    -0.059117901969     1.007825032230
         H           -3.800629161689     3.131396970479    -1.602692901969     1.007825032230
         H           -2.717304161689     2.053837970479    -2.504896901969     1.007825032230
         H           -4.401052161689     1.574837970479    -2.212745901969     1.007825032230

  Basis Set: AUG-CC-PVTZ
    Blend: AUG-CC-PVTZ
  Basis Set: (AUG-CC-PVTZ AUX)
    Blend: AUG-CC-PVTZ-JKFIT
	 Reference Energy          =   -1327.8611152879082056 [Eh]
	 Singles Energy            =      -0.0000000000000000 [Eh]
	 Same-Spin Energy          =      -1.0146298201320880 [Eh]
	 Opposite-Spin Energy      =      -3.0761880651718205 [Eh]
	 Correlation Energy        =      -4.0908178853039088 [Eh]
	 Total Energy              =   -1331.9519331732121827 [Eh]

	 ================> DF-SCS-MP2 Energies <==================
	-----------------------------------------------------------
	 SCS Same-Spin Scale       =       0.3333333333333333 [-]
	 SCS Opposite-Spin Scale   =       1.2000000000000000 [-]
	 SCS Same-Spin Energy      =      -0.3382099400440293 [Eh]
	 SCS Opposite-Spin Energy  =      -3.6914256782061843 [Eh]
	 SCS Correlation Energy    =      -4.0296356182502135 [Eh]
	 SCS Total Energy          =   -1331.8907509061584733 [Eh]
	-----------------------------------------------------------

  Dipole Moment: [D]
     X:    -1.1175      Y:     1.8560      Z:     0.7270     Total:     2.2851

*** Psi4 exiting successfully. Buy a developer a beer!
