                               Psi4 1.3.2 release

  ==> Input File <==

--------------------------------------------------------------------------
#psi4
#
memory 32 gb

molecule  {
0 1
  P       -2.2900960    -0.9400430     0.3446780
  O       -0.9821530    -0.2015620     0.9382890
  O        1.3422500    -1.6754830     1.2308510
  O        0.0787050     2.3596040     0.4621680
  O        3.0685150    -2.1870720    -0.8085900
  O        2.8473350     2.5031130     0.3715350
  O        4.1956880     0.4353970    -0.9728740
  O       -2.8268630     0.0333510    -0.8075310
  O       -3.2591210    -0.7232820     1.6216710
  O       -2.1189930    -2.3436440    -0.0996680
  C        0.1181620     0.0300090     0.0163190
  C        0.9532920    -1.2442050    -0.0757250
  C        0.8985890     1.2026440     0.5648510
  C        2.2596600    -1.0143070    -0.8180370
  C        2.1770750     1.3964720    -0.2280410
  C        3.0258420     0.1487050    -0.2103220
  C       -3.1242130     1.4315980    -0.4888860
  C       -3.5363170     2.0851650    -1.7841190
  H       -0.2830920     0.2988010    -0.9702380
  H        0.3702690    -2.0293640    -0.5720320
  H        1.1571200     0.9978770     1.6121560
  H        2.0246946    -0.7475114    -2.0650929
  H        1.9169870     1.6362870    -1.2735830
  H        3.2958550    -0.0945320     0.8276460
  H        0.5217750    -1.8880320     1.7115100
  H        0.6655400     3.1093110     0.6831840
  H        2.9735430    -2.5473740     0.0946540
  H        3.7214290     2.5491860    -0.0588690
  H        4.6397270    -0.4238340    -1.0970870
  H       -3.8083950    -1.5223380     1.7347280
  H       -3.9305460     1.4455410     0.2493860
  H       -2.2297620     1.8928800    -0.0590960
  H       -3.8005210     3.1308820    -1.6026710
  H       -2.7171960     2.0533230    -2.5048750
  H       -4.4009440     1.5743230    -2.2127240
units angstrom
no_reorient  #important for SAPT in psi4, default
symmetry c1  #important for SAPT in psi4, default
}

set PROPERTIES_ORIGIN ["COM"]
properties('MP2/aug-cc-pvtz', properties = ['dipole'])
--------------------------------------------------------------------------

    Molecular point group: c1
  Charge       = 0
  Multiplicity = 1
  Basis Set: AUG-CC-PVTZ
    Blend: AUG-CC-PVTZ
  Basis Set: (AUG-CC-PVTZ AUX)
    Blend: AUG-CC-PVTZ-JKFIT

    Orbital Energies [Eh]
    ---------------------

    Doubly Occupied:

       1A    -80.116944     2A    -20.614755     3A    -20.607082
       4A    -20.598820     5A    -20.584692     6A    -20.578129
       7A    -20.576804     8A    -20.574266     9A    -20.573481
      10A    -20.523456    11A    -11.321617    12A    -11.320701
      13A    -11.305429    14A    -11.299263    15A    -11.298671
      16A    -11.296552    17A    -11.293865    18A    -11.229689
      19A     -7.632394    20A     -5.530900    21A     -5.530527
      22A     -5.529325    23A     -1.460312    24A     -1.411693
      25A     -1.394927    26A     -1.393887    27A     -1.386820
      28A     -1.373174    29A     -1.365117    30A     -1.354590
      31A     -1.303849    32A     -1.118038    33A     -1.040299
      34A     -1.011962    35A     -0.999911    36A     -0.880821
      37A     -0.864988    38A     -0.853950    39A     -0.820944
      40A     -0.802804    41A     -0.752340    42A     -0.743838
      43A     -0.731337    44A     -0.728618    45A     -0.708124
      46A     -0.686206    47A     -0.678754    48A     -0.673659
      49A     -0.662726    50A     -0.660979    51A     -0.643119
      52A     -0.634412    53A     -0.627309    54A     -0.615171
      55A     -0.603064    56A     -0.595525    57A     -0.580608
      58A     -0.574667    59A     -0.571754    60A     -0.559268
      61A     -0.553621    62A     -0.548482    63A     -0.541239
      64A     -0.534419    65A     -0.527013    66A     -0.517942
      67A     -0.509901    68A     -0.501392    69A     -0.495723
      70A     -0.481848    71A     -0.479902    72A     -0.476200
      73A     -0.462562    74A     -0.456383    75A     -0.450291
      76A     -0.436499

  @DF-RHF Final Energy: -1327.84098089111467

   => Energetics <=

    Nuclear Repulsion Energy =           1771.2940433148057764
    One-Electron Energy =               -5354.7093659132215180
    Two-Electron Energy =                2255.5743417073008459
    Total Energy =                      -1327.8409808911146683
  Basis Set: (AUG-CC-PVTZ AUX)
    Blend: AUG-CC-PVTZ-RI
    Molecular point group: c1

    Geometry (in Angstrom), charge = 0, multiplicity = 1:

       Center              X                  Y                   Z               Mass
    ------------   -----------------  -----------------  -----------------  -----------------
         P           -2.289969178145    -0.940186946925     0.345350910497    30.973761998420
         O           -0.982026178145    -0.201705946925     0.938961910497    15.994914619570
         O            1.342376821855    -1.675626946925     1.231523910497    15.994914619570
         O            0.078831821855     2.359460053075     0.462840910497    15.994914619570
         O            3.068641821855    -2.187215946925    -0.807917089503    15.994914619570
         O            2.847461821855     2.502969053075     0.372207910497    15.994914619570
         O            4.195814821855     0.435253053075    -0.972201089503    15.994914619570
         O           -2.826736178145     0.033207053075    -0.806858089503    15.994914619570
         O           -3.258994178145    -0.723425946925     1.622343910497    15.994914619570
         O           -2.118866178145    -2.343787946925    -0.098995089503    15.994914619570
         C            0.118288821855     0.029865053075     0.016991910497    12.000000000000
         C            0.953418821855    -1.244348946925    -0.075052089503    12.000000000000
         C            0.898715821855     1.202500053075     0.565523910497    12.000000000000
         C            2.259786821855    -1.014450946925    -0.817364089503    12.000000000000
         C            2.177201821855     1.396328053075    -0.227368089503    12.000000000000
         C            3.025968821855     0.148561053075    -0.209649089503    12.000000000000
         C           -3.124086178145     1.431454053075    -0.488213089503    12.000000000000
         C           -3.536190178145     2.085021053075    -1.783446089503    12.000000000000
         H           -0.282965178145     0.298657053075    -0.969565089503     1.007825032230
         H            0.370395821855    -2.029507946925    -0.571359089503     1.007825032230
         H            1.157246821855     0.997733053075     1.612828910497     1.007825032230
         H            2.024821421855    -0.747655346925    -2.064419989503     1.007825032230
         H            1.917113821855     1.636143053075    -1.272910089503     1.007825032230
         H            3.295981821855    -0.094675946925     0.828318910497     1.007825032230
         H            0.521901821855    -1.888175946925     1.712182910497     1.007825032230
         H            0.665666821855     3.109167053075     0.683856910497     1.007825032230
         H            2.973669821855    -2.547517946925     0.095326910497     1.007825032230
         H            3.721555821855     2.549042053075    -0.058196089503     1.007825032230
         H            4.639853821855    -0.423977946925    -1.096414089503     1.007825032230
         H           -3.808268178145    -1.522481946925     1.735400910497     1.007825032230
         H           -3.930419178145     1.445397053075     0.250058910497     1.007825032230
         H           -2.229635178145     1.892736053075    -0.058423089503     1.007825032230
         H           -3.800394178145     3.130738053075    -1.601998089503     1.007825032230
         H           -2.717069178145     2.053179053075    -2.504202089503     1.007825032230
         H           -4.400817178145     1.574179053075    -2.212051089503     1.007825032230

  Basis Set: AUG-CC-PVTZ
    Blend: AUG-CC-PVTZ
  Basis Set: (AUG-CC-PVTZ AUX)
    Blend: AUG-CC-PVTZ-JKFIT
	 Reference Energy          =   -1327.8409808911146683 [Eh]
	 Singles Energy            =      -0.0000000000000000 [Eh]
	 Same-Spin Energy          =      -1.0150074950515566 [Eh]
	 Opposite-Spin Energy      =      -3.0780763304844920 [Eh]
	 Correlation Energy        =      -4.0930838255360484 [Eh]
	 Total Energy              =   -1331.9340647166507097 [Eh]

	 ================> DF-SCS-MP2 Energies <==================
	-----------------------------------------------------------
	 SCS Same-Spin Scale       =       0.3333333333333333 [-]
	 SCS Opposite-Spin Scale   =       1.2000000000000000 [-]
	 SCS Same-Spin Energy      =      -0.3383358316838522 [Eh]
	 SCS Opposite-Spin Energy  =      -3.6936915965813903 [Eh]
	 SCS Correlation Energy    =      -4.0320274282652422 [Eh]
	 SCS Total Energy          =   -1331.8730083193800056 [Eh]
	-----------------------------------------------------------

  Dipole Moment: [D]
     X:    -1.0709      Y:     1.8171      Z:     0.8018     Total:     2.2564

*** Psi4 exiting successfully. Buy a developer a beer!
