                               Psi4 1.3.2 release

  ==> Input File <==

--------------------------------------------------------------------------
#psi4
#
memory 32 gb

molecule  {
0 1
  P       -2.3022304    -0.9384232     0.3700687
  O       -0.9821530    -0.2015620     0.9382890
  O        1.3422500    -1.6754830     1.2308510
  O        0.0787050     2.3596040     0.4621680
  O        3.0685150    -2.1870720    -0.8085900
  O        2.8473350     2.5031130     0.3715350
  O        4.1956880     0.4353970    -0.9728740
  O       -2.8268630     0.0333510    -0.8075310
  O       -3.2591210    -0.7232820     1.6216710
  O       -2.1189930    -2.3436440    -0.0996680
  C        0.1312949     0.0409351     0.0350859
  C        0.9532920    -1.2442050    -0.0757250
  C        0.8985890     1.2026440     0.5648510
  C        2.2596600    -1.0143070    -0.8180370
  C        2.1770750     1.3964720    -0.2280410
  C        3.0258420     0.1487050    -0.2103220
  C       -3.1242130     1.4315980    -0.4888860
  C       -3.5363170     2.0851650    -1.7841190
  H       -0.2830920     0.2988010    -0.9702380
  H        0.3702690    -2.0293640    -0.5720320
  H        1.1571200     0.9978770     1.6121560
  H        2.0609340    -0.7886600    -1.8727560
  H        1.9169870     1.6362870    -1.2735830
  H        3.2958550    -0.0945320     0.8276460
  H        0.5217750    -1.8880320     1.7115100
  H        0.6655400     3.1093110     0.6831840
  H        2.9735430    -2.5473740     0.0946540
  H        3.7214290     2.5491860    -0.0588690
  H        4.6397270    -0.4238340    -1.0970870
  H       -3.8083950    -1.5223380     1.7347280
  H       -3.9305460     1.4455410     0.2493860
  H       -2.2297620     1.8928800    -0.0590960
  H       -3.8005210     3.1308820    -1.6026710
  H       -2.7171960     2.0533230    -2.5048750
  H       -4.4009440     1.5743230    -2.2127240
units angstrom
no_reorient  #important for SAPT in psi4, default
symmetry c1  #important for SAPT in psi4, default
}

set PROPERTIES_ORIGIN ["COM"]
properties('MP2/aug-cc-pvtz', properties = ['dipole'])
--------------------------------------------------------------------------

    Molecular point group: c1
  Charge       = 0
  Multiplicity = 1
  Basis Set: AUG-CC-PVTZ
    Blend: AUG-CC-PVTZ
  Basis Set: (AUG-CC-PVTZ AUX)
    Blend: AUG-CC-PVTZ-JKFIT

    Orbital Energies [Eh]
    ---------------------

    Doubly Occupied:

       1A    -80.117892     2A    -20.622732     3A    -20.605186
       4A    -20.595913     5A    -20.582135     6A    -20.576822
       7A    -20.574220     8A    -20.573909     9A    -20.573442
      10A    -20.521462    11A    -11.320936    12A    -11.303111
      13A    -11.298741    14A    -11.297672    15A    -11.297335
      16A    -11.296852    17A    -11.291247    18A    -11.228563
      19A     -7.633138    20A     -5.531734    21A     -5.531286
      22A     -5.529991    23A     -1.463429    24A     -1.412721
      25A     -1.397780    26A     -1.393382    27A     -1.385591
      28A     -1.371877    29A     -1.363795    30A     -1.353633
      31A     -1.297637    32A     -1.120241    33A     -1.037990
      34A     -1.012534    35A     -1.003797    36A     -0.881309
      37A     -0.862678    38A     -0.859459    39A     -0.826189
      40A     -0.808823    41A     -0.752064    42A     -0.745268
      43A     -0.732480    44A     -0.727729    45A     -0.709799
      46A     -0.686959    47A     -0.678923    48A     -0.674754
      49A     -0.664282    50A     -0.661101    51A     -0.643698
      52A     -0.634552    53A     -0.626744    54A     -0.614349
      55A     -0.604756    56A     -0.598366    57A     -0.581894
      58A     -0.578985    59A     -0.569594    60A     -0.558746
      61A     -0.555980    62A     -0.546844    63A     -0.540437
      64A     -0.536388    65A     -0.527954    66A     -0.521575
      67A     -0.511733    68A     -0.503098    69A     -0.496312
      70A     -0.481825    71A     -0.476900    72A     -0.473387
      73A     -0.461665    74A     -0.455707    75A     -0.449771
      76A     -0.436138

  @DF-RHF Final Energy: -1327.85974972076929

   => Energetics <=

    Nuclear Repulsion Energy =           1772.1446579489302167
    One-Electron Energy =               -5356.4529417899138934
    Two-Electron Energy =                2256.4485341202143900
    Total Energy =                      -1327.8597497207692868
  Basis Set: (AUG-CC-PVTZ AUX)
    Blend: AUG-CC-PVTZ-RI
    Molecular point group: c1

    Geometry (in Angstrom), charge = 0, multiplicity = 1:

       Center              X                  Y                   Z               Mass
    ------------   -----------------  -----------------  -----------------  -----------------
         P           -2.301472704021    -0.939052509058     0.366556767144    30.973761998420
         O           -0.981395304021    -0.202191309058     0.934777067144    15.994914619570
         O            1.343007695979    -1.676112309058     1.227339067144    15.994914619570
         O            0.079462695979     2.358974690942     0.458656067144    15.994914619570
         O            3.069272695979    -2.187701309058    -0.812101932856    15.994914619570
         O            2.848092695979     2.502483690942     0.368023067144    15.994914619570
         O            4.196445695979     0.434767690942    -0.976385932856    15.994914619570
         O           -2.826105304021     0.032721690942    -0.811042932856    15.994914619570
         O           -3.258363304021    -0.723911309058     1.618159067144    15.994914619570
         O           -2.118235304021    -2.344273309058    -0.103179932856    15.994914619570
         C            0.132052595979     0.040305790942     0.031573967144    12.000000000000
         C            0.954049695979    -1.244834309058    -0.079236932856    12.000000000000
         C            0.899346695979     1.202014690942     0.561339067144    12.000000000000
         C            2.260417695979    -1.014936309058    -0.821548932856    12.000000000000
         C            2.177832695979     1.395842690942    -0.231552932856    12.000000000000
         C            3.026599695979     0.148075690942    -0.213833932856    12.000000000000
         C           -3.123455304021     1.430968690942    -0.492397932856    12.000000000000
         C           -3.535559304021     2.084535690942    -1.787630932856    12.000000000000
         H           -0.282334304021     0.298171690942    -0.973749932856     1.007825032230
         H            0.371026695979    -2.029993309058    -0.575543932856     1.007825032230
         H            1.157877695979     0.997247690942     1.608644067144     1.007825032230
         H            2.061691695979    -0.789289309058    -1.876267932856     1.007825032230
         H            1.917744695979     1.635657690942    -1.277094932856     1.007825032230
         H            3.296612695979    -0.095161309058     0.824134067144     1.007825032230
         H            0.522532695979    -1.888661309058     1.707998067144     1.007825032230
         H            0.666297695979     3.108681690942     0.679672067144     1.007825032230
         H            2.974300695979    -2.548003309058     0.091142067144     1.007825032230
         H            3.722186695979     2.548556690942    -0.062380932856     1.007825032230
         H            4.640484695979    -0.424463309058    -1.100598932856     1.007825032230
         H           -3.807637304021    -1.522967309058     1.731216067144     1.007825032230
         H           -3.929788304021     1.444911690942     0.245874067144     1.007825032230
         H           -2.229004304021     1.892250690942    -0.062607932856     1.007825032230
         H           -3.799763304021     3.130252690942    -1.606182932856     1.007825032230
         H           -2.716438304021     2.052693690942    -2.508386932856     1.007825032230
         H           -4.400186304021     1.573693690942    -2.216235932856     1.007825032230

  Basis Set: AUG-CC-PVTZ
    Blend: AUG-CC-PVTZ
  Basis Set: (AUG-CC-PVTZ AUX)
    Blend: AUG-CC-PVTZ-JKFIT
	 Reference Energy          =   -1327.8597497207692868 [Eh]
	 Singles Energy            =      -0.0000000000000000 [Eh]
	 Same-Spin Energy          =      -1.0148025254155058 [Eh]
	 Opposite-Spin Energy      =      -3.0761948106934192 [Eh]
	 Correlation Energy        =      -4.0909973361089254 [Eh]
	 Total Energy              =   -1331.9507470568782992 [Eh]

	 ================> DF-SCS-MP2 Energies <==================
	-----------------------------------------------------------
	 SCS Same-Spin Scale       =       0.3333333333333333 [-]
	 SCS Opposite-Spin Scale   =       1.2000000000000000 [-]
	 SCS Same-Spin Energy      =      -0.3382675084718352 [Eh]
	 SCS Opposite-Spin Energy  =      -3.6914337728321027 [Eh]
	 SCS Correlation Energy    =      -4.0297012813039377 [Eh]
	 SCS Total Energy          =   -1331.8894510020732014 [Eh]
	-----------------------------------------------------------

  Dipole Moment: [D]
     X:    -1.2108      Y:     1.8371      Z:     0.9727     Total:     2.4057

*** Psi4 exiting successfully. Buy a developer a beer!
