                               Psi4 1.3.2 release

  ==> Input File <==

--------------------------------------------------------------------------
#psi4
#
memory 32 gb

molecule  {
0 1
  P       -2.2956686    -0.9528617     0.3427033
  O       -0.9821530    -0.2015620     0.9382890
  O        1.3422500    -1.6754830     1.2308510
  O        0.0787050     2.3596040     0.4621680
  O        3.0685150    -2.1870720    -0.8085900
  O        2.8473350     2.5031130     0.3715350
  O        4.1956880     0.4353970    -0.9728740
  O       -2.8268630     0.0333510    -0.8075310
  O       -3.2591210    -0.7232820     1.6216710
  O       -2.1189930    -2.3436440    -0.0996680
  C        0.1181620     0.0300090     0.0163190
  C        0.9532920    -1.2442050    -0.0757250
  C        0.8985890     1.2026440     0.5648510
  C        2.2596600    -1.0143070    -0.8180370
  C        2.1770750     1.3964720    -0.2280410
  C        3.0258420     0.1487050    -0.2103220
  C       -3.1242130     1.4315980    -0.4888860
  C       -3.5363170     2.0851650    -1.7841190
  H       -0.2830920     0.2988010    -0.9702380
  H        0.3702690    -2.0293640    -0.5720320
  H        1.1571200     0.9978770     1.6121560
  H        2.0609340    -0.7886600    -1.8727560
  H        1.9169870     1.6362870    -1.2735830
  H        3.2958550    -0.0945320     0.8276460
  H        0.5217750    -1.8880320     1.7115100
  H        0.6655400     3.1093110     0.6831840
  H        2.9735430    -2.5473740     0.0946540
  H        3.7214290     2.5491860    -0.0588690
  H        4.6397270    -0.4238340    -1.0970870
  H       -3.8046022    -1.5258573     1.7279603
  H       -3.9305460     1.4455410     0.2493860
  H       -2.2297620     1.8928800    -0.0590960
  H       -3.8005210     3.1308820    -1.6026710
  H       -2.7171960     2.0533230    -2.5048750
  H       -4.4009440     1.5743230    -2.2127240
units angstrom
no_reorient  #important for SAPT in psi4, default
symmetry c1  #important for SAPT in psi4, default
}

set PROPERTIES_ORIGIN ["COM"]
properties('MP2/aug-cc-pvtz', properties = ['dipole'])
--------------------------------------------------------------------------

    Molecular point group: c1
  Charge       = 0
  Multiplicity = 1
  Basis Set: AUG-CC-PVTZ
    Blend: AUG-CC-PVTZ
  Basis Set: (AUG-CC-PVTZ AUX)
    Blend: AUG-CC-PVTZ-JKFIT

    Orbital Energies [Eh]
    ---------------------

    Doubly Occupied:

       1A    -80.116947     2A    -20.616163     3A    -20.604749
       4A    -20.597929     5A    -20.582753     6A    -20.576292
       7A    -20.574316     8A    -20.573758     9A    -20.572669
      10A    -20.526648    11A    -11.319223    12A    -11.303075
      13A    -11.298953    14A    -11.298673    15A    -11.297749
      16A    -11.296075    17A    -11.291029    18A    -11.229383
      19A     -7.632625    20A     -5.531092    21A     -5.530686
      22A     -5.529645    23A     -1.458682    24A     -1.410232
      25A     -1.393861    26A     -1.392314    27A     -1.385800
      28A     -1.371313    29A     -1.363454    30A     -1.353310
      31A     -1.311731    32A     -1.118119    33A     -1.039688
      34A     -1.010714    35A     -1.002861    36A     -0.879128
      37A     -0.864045    38A     -0.858376    39A     -0.821341
      40A     -0.809876    41A     -0.750916    42A     -0.744119
      43A     -0.730532    44A     -0.726915    45A     -0.707185
      46A     -0.686523    47A     -0.678015    48A     -0.674010
      49A     -0.662471    50A     -0.660563    51A     -0.642392
      52A     -0.633961    53A     -0.626836    54A     -0.614674
      55A     -0.602666    56A     -0.598113    57A     -0.583201
      58A     -0.575804    59A     -0.570180    60A     -0.559786
      61A     -0.556493    62A     -0.548033    63A     -0.541370
      64A     -0.536322    65A     -0.528653    66A     -0.521431
      67A     -0.512299    68A     -0.503708    69A     -0.498110
      70A     -0.484888    71A     -0.482532    72A     -0.478700
      73A     -0.462451    74A     -0.455379    75A     -0.449670
      76A     -0.436160

  @DF-RHF Final Energy: -1327.86106069709172

   => Energetics <=

    Nuclear Repulsion Energy =           1772.0451047730230130
    One-Electron Energy =               -5356.2716548515718387
    Two-Electron Energy =                2256.3654893814568823
    Total Energy =                      -1327.8610606970919434
  Basis Set: (AUG-CC-PVTZ AUX)
    Blend: AUG-CC-PVTZ-RI
    Molecular point group: c1

    Geometry (in Angstrom), charge = 0, multiplicity = 1:

       Center              X                  Y                   Z               Mass
    ------------   -----------------  -----------------  -----------------  -----------------
         P           -2.295082643017    -0.951471038764     0.342939298215    30.973761998420
         O           -0.981567043017    -0.200171338764     0.938524998215    15.994914619570
         O            1.342835956983    -1.674092338764     1.231086998215    15.994914619570
         O            0.079290956983     2.360994661236     0.462403998215    15.994914619570
         O            3.069100956983    -2.185681338764    -0.808354001785    15.994914619570
         O            2.847920956983     2.504503661236     0.371770998215    15.994914619570
         O            4.196273956983     0.436787661236    -0.972638001785    15.994914619570
         O           -2.826277043017     0.034741661236    -0.807295001785    15.994914619570
         O           -3.258535043017    -0.721891338764     1.621906998215    15.994914619570
         O           -2.118407043017    -2.342253338764    -0.099432001785    15.994914619570
         C            0.118747956983     0.031399661236     0.016554998215    12.000000000000
         C            0.953877956983    -1.242814338764    -0.075489001785    12.000000000000
         C            0.899174956983     1.204034661236     0.565086998215    12.000000000000
         C            2.260245956983    -1.012916338764    -0.817801001785    12.000000000000
         C            2.177660956983     1.397862661236    -0.227805001785    12.000000000000
         C            3.026427956983     0.150095661236    -0.210086001785    12.000000000000
         C           -3.123627043017     1.432988661236    -0.488650001785    12.000000000000
         C           -3.535731043017     2.086555661236    -1.783883001785    12.000000000000
         H           -0.282506043017     0.300191661236    -0.970002001785     1.007825032230
         H            0.370854956983    -2.027973338764    -0.571796001785     1.007825032230
         H            1.157705956983     0.999267661236     1.612391998215     1.007825032230
         H            2.061519956983    -0.787269338764    -1.872520001785     1.007825032230
         H            1.917572956983     1.637677661236    -1.273347001785     1.007825032230
         H            3.296440956983    -0.093141338764     0.827881998215     1.007825032230
         H            0.522360956983    -1.886641338764     1.711745998215     1.007825032230
         H            0.666125956983     3.110701661236     0.683419998215     1.007825032230
         H            2.974128956983    -2.545983338764     0.094889998215     1.007825032230
         H            3.722014956983     2.550576661236    -0.058633001785     1.007825032230
         H            4.640312956983    -0.422443338764    -1.096851001785     1.007825032230
         H           -3.804016243017    -1.524466638764     1.728196298215     1.007825032230
         H           -3.929960043017     1.446931661236     0.249621998215     1.007825032230
         H           -2.229176043017     1.894270661236    -0.058860001785     1.007825032230
         H           -3.799935043017     3.132272661236    -1.602435001785     1.007825032230
         H           -2.716610043017     2.054713661236    -2.504639001785     1.007825032230
         H           -4.400358043017     1.575713661236    -2.212488001785     1.007825032230

  Basis Set: AUG-CC-PVTZ
    Blend: AUG-CC-PVTZ
  Basis Set: (AUG-CC-PVTZ AUX)
    Blend: AUG-CC-PVTZ-JKFIT
	 Reference Energy          =   -1327.8610606970917161 [Eh]
	 Singles Energy            =      -0.0000000000000000 [Eh]
	 Same-Spin Energy          =      -1.0145562403400734 [Eh]
	 Opposite-Spin Energy      =      -3.0760876779760946 [Eh]
	 Correlation Energy        =      -4.0906439183161680 [Eh]
	 Total Energy              =   -1331.9517046154078344 [Eh]

	 ================> DF-SCS-MP2 Energies <==================
	-----------------------------------------------------------
	 SCS Same-Spin Scale       =       0.3333333333333333 [-]
	 SCS Opposite-Spin Scale   =       1.2000000000000000 [-]
	 SCS Same-Spin Energy      =      -0.3381854134466911 [Eh]
	 SCS Opposite-Spin Energy  =      -3.6913052135713134 [Eh]
	 SCS Correlation Energy    =      -4.0294906270180046 [Eh]
	 SCS Total Energy          =   -1331.8905513241097651 [Eh]
	-----------------------------------------------------------

  Dipole Moment: [D]
     X:    -1.1928      Y:     1.7236      Z:     0.7100     Total:     2.2131

*** Psi4 exiting successfully. Buy a developer a beer!
