                               Psi4 1.3.2 release

  ==> Input File <==

--------------------------------------------------------------------------
#psi4
#
memory 32 gb

molecule  {
0 1
  P       -2.2900960    -0.9400430     0.3446780
  O       -0.9821530    -0.2015620     0.9382890
  O        1.3422500    -1.6754830     1.2308510
  O        0.0787050     2.3596040     0.4621680
  O        3.0685150    -2.1870720    -0.8085900
  O        2.8473350     2.5031130     0.3715350
  O        4.1956880     0.4353970    -0.9728740
  O       -2.8268630     0.0333510    -0.8075310
  O       -3.2591210    -0.7232820     1.6216710
  O       -2.1189930    -2.3436440    -0.0996680
  C        0.1181620     0.0300090     0.0163190
  C        0.9532920    -1.2442050    -0.0757250
  C        1.0139253     1.0398899     0.5792958
  C        2.2596600    -1.0143070    -0.8180370
  C        2.1770750     1.3964720    -0.2280410
  C        3.0258420     0.1487050    -0.2103220
  C       -3.1242130     1.4315980    -0.4888860
  C       -3.5363170     2.0851650    -1.7841190
  H       -0.2830920     0.2988010    -0.9702380
  H        0.3702690    -2.0293640    -0.5720320
  H        1.1571200     0.9978770     1.6121560
  H        2.0609340    -0.7886600    -1.8727560
  H        1.9169870     1.6362870    -1.2735830
  H        3.2958550    -0.0945320     0.8276460
  H        0.5217750    -1.8880320     1.7115100
  H        0.6655400     3.1093110     0.6831840
  H        2.9735430    -2.5473740     0.0946540
  H        3.7214290     2.5491860    -0.0588690
  H        4.6397270    -0.4238340    -1.0970870
  H       -3.8083950    -1.5223380     1.7347280
  H       -3.9305460     1.4455410     0.2493860
  H       -2.2297620     1.8928800    -0.0590960
  H       -3.8005210     3.1308820    -1.6026710
  H       -2.7171960     2.0533230    -2.5048750
  H       -4.4009440     1.5743230    -2.2127240
units angstrom
no_reorient  #important for SAPT in psi4, default
symmetry c1  #important for SAPT in psi4, default
}

set PROPERTIES_ORIGIN ["COM"]
properties('MP2/aug-cc-pvtz', properties = ['dipole'])
--------------------------------------------------------------------------

    Molecular point group: c1
  Charge       = 0
  Multiplicity = 1
  Basis Set: AUG-CC-PVTZ
    Blend: AUG-CC-PVTZ
  Basis Set: (AUG-CC-PVTZ AUX)
    Blend: AUG-CC-PVTZ-JKFIT

    Orbital Energies [Eh]
    ---------------------

    Doubly Occupied:

       1A    -80.118874     2A    -20.615789     3A    -20.611094
       4A    -20.599068     5A    -20.587709     6A    -20.580643
       7A    -20.578195     8A    -20.576095     9A    -20.548673
      10A    -20.524961    11A    -11.326895    12A    -11.305525
      13A    -11.304090    14A    -11.303408    15A    -11.302630
      16A    -11.296896    17A    -11.294391    18A    -11.228048
      19A     -7.634261    20A     -5.532769    21A     -5.532417
      22A     -5.531187    23A     -1.462053    24A     -1.413473
      25A     -1.397571    26A     -1.390428    27A     -1.386716
      28A     -1.373026    29A     -1.359459    30A     -1.308527
      31A     -1.303558    32A     -1.140184    33A     -1.038994
      34A     -1.022875    35A     -1.013359    36A     -0.883490
      37A     -0.864539    38A     -0.861755    39A     -0.825205
      40A     -0.819535    41A     -0.751534    42A     -0.747792
      43A     -0.733052    44A     -0.728084    45A     -0.711748
      46A     -0.682606    47A     -0.674571    48A     -0.673706
      49A     -0.665103    50A     -0.659926    51A     -0.646836
      52A     -0.630078    53A     -0.623870    54A     -0.619615
      55A     -0.605225    56A     -0.593922    57A     -0.579288
      58A     -0.575391    59A     -0.570983    60A     -0.558046
      61A     -0.550759    62A     -0.548692    63A     -0.541284
      64A     -0.539914    65A     -0.531446    66A     -0.517210
      67A     -0.510154    68A     -0.502916    69A     -0.499795
      70A     -0.483224    71A     -0.480280    72A     -0.477155
      73A     -0.470577    74A     -0.456003    75A     -0.448888
      76A     -0.438031

  @DF-RHF Final Energy: -1327.82490509412401

   => Energetics <=

    Nuclear Repulsion Energy =           1773.3635534611246385
    One-Electron Energy =               -5358.7247708337154108
    Two-Electron Energy =                2257.5363122784665393
    Total Energy =                      -1327.8249050941240057
  Basis Set: (AUG-CC-PVTZ AUX)
    Blend: AUG-CC-PVTZ-RI
    Molecular point group: c1

    Geometry (in Angstrom), charge = 0, multiplicity = 1:

       Center              X                  Y                   Z               Mass
    ------------   -----------------  -----------------  -----------------  -----------------
         P           -2.294900628360    -0.933262997981     0.344076251595    30.973761998420
         O           -0.986957628360    -0.194781997981     0.937687251595    15.994914619570
         O            1.337445371640    -1.668702997981     1.230249251595    15.994914619570
         O            0.073900371640     2.366384002019     0.461566251595    15.994914619570
         O            3.063710371640    -2.180291997981    -0.809191748405    15.994914619570
         O            2.842530371640     2.509893002019     0.370933251595    15.994914619570
         O            4.190883371640     0.442177002019    -0.973475748405    15.994914619570
         O           -2.831667628360     0.040131002019    -0.808132748405    15.994914619570
         O           -3.263925628360    -0.716501997981     1.621069251595    15.994914619570
         O           -2.123797628360    -2.336863997981    -0.100269748405    15.994914619570
         C            0.113357371640     0.036789002019     0.015717251595    12.000000000000
         C            0.948487371640    -1.237424997981    -0.076326748405    12.000000000000
         C            1.009120671640     1.046669902019     0.578694051595    12.000000000000
         C            2.254855371640    -1.007526997981    -0.818638748405    12.000000000000
         C            2.172270371640     1.403252002019    -0.228642748405    12.000000000000
         C            3.021037371640     0.155485002019    -0.210923748405    12.000000000000
         C           -3.129017628360     1.438378002019    -0.489487748405    12.000000000000
         C           -3.541121628360     2.091945002019    -1.784720748405    12.000000000000
         H           -0.287896628360     0.305581002019    -0.970839748405     1.007825032230
         H            0.365464371640    -2.022583997981    -0.572633748405     1.007825032230
         H            1.152315371640     1.004657002019     1.611554251595     1.007825032230
         H            2.056129371640    -0.781879997981    -1.873357748405     1.007825032230
         H            1.912182371640     1.643067002019    -1.274184748405     1.007825032230
         H            3.291050371640    -0.087751997981     0.827044251595     1.007825032230
         H            0.516970371640    -1.881251997981     1.710908251595     1.007825032230
         H            0.660735371640     3.116091002019     0.682582251595     1.007825032230
         H            2.968738371640    -2.540593997981     0.094052251595     1.007825032230
         H            3.716624371640     2.555966002019    -0.059470748405     1.007825032230
         H            4.634922371640    -0.417053997981    -1.097688748405     1.007825032230
         H           -3.813199628360    -1.515557997981     1.734126251595     1.007825032230
         H           -3.935350628360     1.452321002019     0.248784251595     1.007825032230
         H           -2.234566628360     1.899660002019    -0.059697748405     1.007825032230
         H           -3.805325628360     3.137662002019    -1.603272748405     1.007825032230
         H           -2.722000628360     2.060103002019    -2.505476748405     1.007825032230
         H           -4.405748628360     1.581103002019    -2.213325748405     1.007825032230

  Basis Set: AUG-CC-PVTZ
    Blend: AUG-CC-PVTZ
  Basis Set: (AUG-CC-PVTZ AUX)
    Blend: AUG-CC-PVTZ-JKFIT
	 Reference Energy          =   -1327.8249050941240057 [Eh]
	 Singles Energy            =      -0.0000000000000000 [Eh]
	 Same-Spin Energy          =      -1.0171674152938768 [Eh]
	 Opposite-Spin Energy      =      -3.0822728333415723 [Eh]
	 Correlation Energy        =      -4.0994402486354495 [Eh]
	 Total Energy              =   -1331.9243453427593522 [Eh]

	 ================> DF-SCS-MP2 Energies <==================
	-----------------------------------------------------------
	 SCS Same-Spin Scale       =       0.3333333333333333 [-]
	 SCS Opposite-Spin Scale   =       1.2000000000000000 [-]
	 SCS Same-Spin Energy      =      -0.3390558050979589 [Eh]
	 SCS Opposite-Spin Energy  =      -3.6987274000098864 [Eh]
	 SCS Correlation Energy    =      -4.0377832051078455 [Eh]
	 SCS Total Energy          =   -1331.8626882992318770 [Eh]
	-----------------------------------------------------------

  Dipole Moment: [D]
     X:    -0.8044      Y:     1.3272      Z:     0.7004     Total:     1.7027

*** Psi4 exiting successfully. Buy a developer a beer!
