                               Psi4 1.3.2 release

  ==> Input File <==

--------------------------------------------------------------------------
#psi4
#
memory 32 gb

molecule  {
0 1
  P       -2.2900960    -0.9400430     0.3446780
  O       -0.9821530    -0.2015620     0.9382890
  O        1.3422500    -1.6754830     1.2308510
  O        0.0787050     2.3596040     0.4621680
  O        3.0685150    -2.1870720    -0.8085900
  O        2.8473350     2.5031130     0.3715350
  O        4.1956880     0.4353970    -0.9728740
  O       -2.8268630     0.0333510    -0.8075310
  O       -3.2591210    -0.7232820     1.6216710
  O       -2.1189930    -2.3436440    -0.0996680
  C        0.1181620     0.0300090     0.0163190
  C        0.9532920    -1.2442050    -0.0757250
  C        0.8985890     1.2026440     0.5648510
  C        2.2492915    -1.0063092    -0.8201260
  C        2.1673153     1.3896832    -0.2337078
  C        3.0258420     0.1487050    -0.2103220
  C       -3.1242130     1.4315980    -0.4888860
  C       -3.5363170     2.0851650    -1.7841190
  H       -0.2830920     0.2988010    -0.9702380
  H        0.3702690    -2.0293640    -0.5720320
  H        1.1571200     0.9978770     1.6121560
  H        2.0609340    -0.7886600    -1.8727560
  H        1.9169870     1.6362870    -1.2735830
  H        3.2958550    -0.0945320     0.8276460
  H        0.5217750    -1.8880320     1.7115100
  H        0.6655400     3.1093110     0.6831840
  H        2.9735430    -2.5473740     0.0946540
  H        3.7214290     2.5491860    -0.0588690
  H        4.6397270    -0.4238340    -1.0970870
  H       -3.8083950    -1.5223380     1.7347280
  H       -3.9305460     1.4455410     0.2493860
  H       -2.2297620     1.8928800    -0.0590960
  H       -3.8005210     3.1308820    -1.6026710
  H       -2.7171960     2.0533230    -2.5048750
  H       -4.4009440     1.5743230    -2.2127240
units angstrom
no_reorient  #important for SAPT in psi4, default
symmetry c1  #important for SAPT in psi4, default
}

set PROPERTIES_ORIGIN ["COM"]
properties('MP2/aug-cc-pvtz', properties = ['dipole'])
--------------------------------------------------------------------------

    Molecular point group: c1
  Charge       = 0
  Multiplicity = 1
  Basis Set: AUG-CC-PVTZ
    Blend: AUG-CC-PVTZ
  Basis Set: (AUG-CC-PVTZ AUX)
    Blend: AUG-CC-PVTZ-JKFIT

    Orbital Energies [Eh]
    ---------------------

    Doubly Occupied:

       1A    -80.117153     2A    -20.614909     3A    -20.607247
       4A    -20.599159     5A    -20.583620     6A    -20.575311
       7A    -20.574602     8A    -20.573841     9A    -20.573215
      10A    -20.523660    11A    -11.321117    12A    -11.304046
      13A    -11.299584    14A    -11.299340    15A    -11.299053
      16A    -11.296662    17A    -11.292292    18A    -11.230043
      19A     -7.632604    20A     -5.531111    21A     -5.530737
      22A     -5.529536    23A     -1.460518    24A     -1.410134
      25A     -1.393460    26A     -1.391554    27A     -1.386993
      28A     -1.372988    29A     -1.361125    30A     -1.351400
      31A     -1.304055    32A     -1.121337    33A     -1.040664
      34A     -1.012726    35A     -1.005479    36A     -0.880798
      37A     -0.865186    38A     -0.858941    39A     -0.822369
      40A     -0.811550    41A     -0.751580    42A     -0.744969
      43A     -0.731912    44A     -0.728749    45A     -0.707184
      46A     -0.687420    47A     -0.677512    48A     -0.673852
      49A     -0.662026    50A     -0.659678    51A     -0.642476
      52A     -0.635308    53A     -0.626866    54A     -0.615096
      55A     -0.603148    56A     -0.597776    57A     -0.581840
      58A     -0.575746    59A     -0.571200    60A     -0.558712
      61A     -0.556409    62A     -0.548668    63A     -0.541327
      64A     -0.535467    65A     -0.530756    66A     -0.521997
      67A     -0.513194    68A     -0.504975    69A     -0.497431
      70A     -0.485352    71A     -0.480085    72A     -0.476849
      73A     -0.463867    74A     -0.456874    75A     -0.451108
      76A     -0.436869

  @DF-RHF Final Energy: -1327.86056093569732

   => Energetics <=

    Nuclear Repulsion Energy =           1772.6338287326580030
    One-Electron Energy =               -5357.3999811647081515
    Two-Electron Energy =                2256.9055914963528267
    Total Energy =                      -1327.8605609356973218
  Basis Set: (AUG-CC-PVTZ AUX)
    Blend: AUG-CC-PVTZ-RI
    Molecular point group: c1

    Geometry (in Angstrom), charge = 0, multiplicity = 1:

       Center              X                  Y                   Z               Mass
    ------------   -----------------  -----------------  -----------------  -----------------
         P           -2.289257469820    -0.940093346655     0.345001080649    30.973761998420
         O           -0.981314469820    -0.201612346655     0.938612080649    15.994914619570
         O            1.343088530180    -1.675533346655     1.231174080649    15.994914619570
         O            0.079543530180     2.359553653345     0.462491080649    15.994914619570
         O            3.069353530180    -2.187122346655    -0.808266919351    15.994914619570
         O            2.848173530180     2.503062653345     0.371858080649    15.994914619570
         O            4.196526530180     0.435346653345    -0.972550919351    15.994914619570
         O           -2.826024469820     0.033300653345    -0.807207919351    15.994914619570
         O           -3.258282469820    -0.723332346655     1.621994080649    15.994914619570
         O           -2.118154469820    -2.343694346655    -0.099344919351    15.994914619570
         C            0.119000530180     0.029958653345     0.016642080649    12.000000000000
         C            0.954130530180    -1.244255346655    -0.075401919351    12.000000000000
         C            0.899427530180     1.202593653345     0.565174080649    12.000000000000
         C            2.250130030180    -1.006359546655    -0.819802919351    12.000000000000
         C            2.168153830180     1.389632853345    -0.233384719351    12.000000000000
         C            3.026680530180     0.148654653345    -0.209998919351    12.000000000000
         C           -3.123374469820     1.431547653345    -0.488562919351    12.000000000000
         C           -3.535478469820     2.085114653345    -1.783795919351    12.000000000000
         H           -0.282253469820     0.298750653345    -0.969914919351     1.007825032230
         H            0.371107530180    -2.029414346655    -0.571708919351     1.007825032230
         H            1.157958530180     0.997826653345     1.612479080649     1.007825032230
         H            2.061772530180    -0.788710346655    -1.872432919351     1.007825032230
         H            1.917825530180     1.636236653345    -1.273259919351     1.007825032230
         H            3.296693530180    -0.094582346655     0.827969080649     1.007825032230
         H            0.522613530180    -1.888082346655     1.711833080649     1.007825032230
         H            0.666378530180     3.109260653345     0.683507080649     1.007825032230
         H            2.974381530180    -2.547424346655     0.094977080649     1.007825032230
         H            3.722267530180     2.549135653345    -0.058545919351     1.007825032230
         H            4.640565530180    -0.423884346655    -1.096763919351     1.007825032230
         H           -3.807556469820    -1.522388346655     1.735051080649     1.007825032230
         H           -3.929707469820     1.445490653345     0.249709080649     1.007825032230
         H           -2.228923469820     1.892829653345    -0.058772919351     1.007825032230
         H           -3.799682469820     3.130831653345    -1.602347919351     1.007825032230
         H           -2.716357469820     2.053272653345    -2.504551919351     1.007825032230
         H           -4.400105469820     1.574272653345    -2.212400919351     1.007825032230

  Basis Set: AUG-CC-PVTZ
    Blend: AUG-CC-PVTZ
  Basis Set: (AUG-CC-PVTZ AUX)
    Blend: AUG-CC-PVTZ-JKFIT
	 Reference Energy          =   -1327.8605609356973218 [Eh]
	 Singles Energy            =      -0.0000000000000000 [Eh]
	 Same-Spin Energy          =      -1.0147249853439742 [Eh]
	 Opposite-Spin Energy      =      -3.0765257215123247 [Eh]
	 Correlation Energy        =      -4.0912507068562984 [Eh]
	 Total Energy              =   -1331.9518116425535936 [Eh]

	 ================> DF-SCS-MP2 Energies <==================
	-----------------------------------------------------------
	 SCS Same-Spin Scale       =       0.3333333333333333 [-]
	 SCS Opposite-Spin Scale   =       1.2000000000000000 [-]
	 SCS Same-Spin Energy      =      -0.3382416617813247 [Eh]
	 SCS Opposite-Spin Energy  =      -3.6918308658147896 [Eh]
	 SCS Correlation Energy    =      -4.0300725275961140 [Eh]
	 SCS Total Energy          =   -1331.8906334632933977 [Eh]
	-----------------------------------------------------------

  Dipole Moment: [D]
     X:    -1.1656      Y:     1.8642      Z:     0.7042     Total:     2.3086

*** Psi4 exiting successfully. Buy a developer a beer!
