                               Psi4 1.3.2 release

  ==> Input File <==

--------------------------------------------------------------------------
#psi4
#
memory 32 gb

molecule  {
0 1
  P       -2.2900960    -0.9400430     0.3446780
  O       -0.9821530    -0.2015620     0.9382890
  O        1.4137233    -1.6692066     1.2095013
  O        0.0787050     2.3596040     0.4621680
  O        3.0685150    -2.1870720    -0.8085900
  O        2.8473350     2.5031130     0.3715350
  O        4.1956880     0.4353970    -0.9728740
  O       -2.8268630     0.0333510    -0.8075310
  O       -3.2591210    -0.7232820     1.6216710
  O       -2.1189930    -2.3436440    -0.0996680
  C        0.1181620     0.0300090     0.0163190
  C        0.9532920    -1.2442050    -0.0757250
  C        0.8985890     1.2026440     0.5648510
  C        2.2985329    -1.0362444    -0.7521545
  C        2.1770750     1.3964720    -0.2280410
  C        3.0258420     0.1487050    -0.2103220
  C       -3.1242130     1.4315980    -0.4888860
  C       -3.5363170     2.0851650    -1.7841190
  H       -0.2830920     0.2988010    -0.9702380
  H        0.3702690    -2.0293640    -0.5720320
  H        1.1571200     0.9978770     1.6121560
  H        2.0609340    -0.7886600    -1.8727560
  H        1.9169870     1.6362870    -1.2735830
  H        3.2958550    -0.0945320     0.8276460
  H        0.5217750    -1.8880320     1.7115100
  H        0.6655400     3.1093110     0.6831840
  H        2.9735430    -2.5473740     0.0946540
  H        3.7214290     2.5491860    -0.0588690
  H        4.6397270    -0.4238340    -1.0970870
  H       -3.8083950    -1.5223380     1.7347280
  H       -3.9305460     1.4455410     0.2493860
  H       -2.2297620     1.8928800    -0.0590960
  H       -3.8005210     3.1308820    -1.6026710
  H       -2.7171960     2.0533230    -2.5048750
  H       -4.4009440     1.5743230    -2.2127240
units angstrom
no_reorient  #important for SAPT in psi4, default
symmetry c1  #important for SAPT in psi4, default
}

set PROPERTIES_ORIGIN ["COM"]
properties('MP2/aug-cc-pvtz', properties = ['dipole'])
--------------------------------------------------------------------------

    Molecular point group: c1
  Charge       = 0
  Multiplicity = 1
  Basis Set: AUG-CC-PVTZ
    Blend: AUG-CC-PVTZ
  Basis Set: (AUG-CC-PVTZ AUX)
    Blend: AUG-CC-PVTZ-JKFIT

    Orbital Energies [Eh]
    ---------------------

    Doubly Occupied:

       1A    -80.117956     2A    -20.615556     3A    -20.608805
       4A    -20.599584     5A    -20.590821     6A    -20.578775
       7A    -20.576846     8A    -20.573574     9A    -20.573483
      10A    -20.524508    11A    -11.321991    12A    -11.302523
      13A    -11.299783    14A    -11.299373    15A    -11.298829
      16A    -11.296975    17A    -11.288942    18A    -11.230031
      19A     -7.633413    20A     -5.531919    21A     -5.531546
      22A     -5.530344    23A     -1.461253    24A     -1.415362
      25A     -1.398991    26A     -1.393594    27A     -1.387566
      28A     -1.371786    29A     -1.364469    30A     -1.355299
      31A     -1.304883    32A     -1.116734    33A     -1.040803
      34A     -1.013977    35A     -0.998937    36A     -0.881310
      37A     -0.865440    38A     -0.857795    39A     -0.822281
      40A     -0.803542    41A     -0.753449    42A     -0.747554
      43A     -0.732434    44A     -0.728521    45A     -0.708505
      46A     -0.688526    47A     -0.675344    48A     -0.672497
      49A     -0.662392    50A     -0.659453    51A     -0.643531
      52A     -0.634656    53A     -0.629530    54A     -0.614778
      55A     -0.604190    56A     -0.599412    57A     -0.582163
      58A     -0.575867    59A     -0.572959    60A     -0.560051
      61A     -0.556232    62A     -0.550189    63A     -0.542672
      64A     -0.537141    65A     -0.528192    66A     -0.518906
      67A     -0.510990    68A     -0.500133    69A     -0.494379
      70A     -0.480698    71A     -0.480096    72A     -0.476111
      73A     -0.462580    74A     -0.456669    75A     -0.450326
      76A     -0.436659

  @DF-RHF Final Energy: -1327.84178529002929

   => Energetics <=

    Nuclear Repulsion Energy =           1772.7741248303216253
    One-Electron Energy =               -5357.6170502296663471
    Two-Electron Energy =                2257.0011401093152017
    Total Energy =                      -1327.8417852900292928
  Basis Set: (AUG-CC-PVTZ AUX)
    Blend: AUG-CC-PVTZ-RI
    Molecular point group: c1

    Geometry (in Angstrom), charge = 0, multiplicity = 1:

       Center              X                  Y                   Z               Mass
    ------------   -----------------  -----------------  -----------------  -----------------
         P           -2.295683964237    -0.939477621839     0.343118934384    30.973761998420
         O           -0.987740964237    -0.200996621839     0.936729934384    15.994914619570
         O            1.408135335763    -1.668641221839     1.207942234384    15.994914619570
         O            0.073117035763     2.360169378161     0.460608934384    15.994914619570
         O            3.062927035763    -2.186506621839    -0.810149065616    15.994914619570
         O            2.841747035763     2.503678378161     0.369975934384    15.994914619570
         O            4.190100035763     0.435962378161    -0.974433065616    15.994914619570
         O           -2.832450964237     0.033916378161    -0.809090065616    15.994914619570
         O           -3.264708964237    -0.722716621839     1.620111934384    15.994914619570
         O           -2.124580964237    -2.343078621839    -0.101227065616    15.994914619570
         C            0.112574035763     0.030574378161     0.014759934384    12.000000000000
         C            0.947704035763    -1.243639621839    -0.077284065616    12.000000000000
         C            0.893001035763     1.203209378161     0.563291934384    12.000000000000
         C            2.292944935763    -1.035679021839    -0.753713565616    12.000000000000
         C            2.171487035763     1.397037378161    -0.229600065616    12.000000000000
         C            3.020254035763     0.149270378161    -0.211881065616    12.000000000000
         C           -3.129800964237     1.432163378161    -0.490445065616    12.000000000000
         C           -3.541904964237     2.085730378161    -1.785678065616    12.000000000000
         H           -0.288679964237     0.299366378161    -0.971797065616     1.007825032230
         H            0.364681035763    -2.028798621839    -0.573591065616     1.007825032230
         H            1.151532035763     0.998442378161     1.610596934384     1.007825032230
         H            2.055346035763    -0.788094621839    -1.874315065616     1.007825032230
         H            1.911399035763     1.636852378161    -1.275142065616     1.007825032230
         H            3.290267035763    -0.093966621839     0.826086934384     1.007825032230
         H            0.516187035763    -1.887466621839     1.709950934384     1.007825032230
         H            0.659952035763     3.109876378161     0.681624934384     1.007825032230
         H            2.967955035763    -2.546808621839     0.093094934384     1.007825032230
         H            3.715841035763     2.549751378161    -0.060428065616     1.007825032230
         H            4.634139035763    -0.423268621839    -1.098646065616     1.007825032230
         H           -3.813982964237    -1.521772621839     1.733168934384     1.007825032230
         H           -3.936133964237     1.446106378161     0.247826934384     1.007825032230
         H           -2.235349964237     1.893445378161    -0.060655065616     1.007825032230
         H           -3.806108964237     3.131447378161    -1.604230065616     1.007825032230
         H           -2.722783964237     2.053888378161    -2.506434065616     1.007825032230
         H           -4.406531964237     1.574888378161    -2.214283065616     1.007825032230

  Basis Set: AUG-CC-PVTZ
    Blend: AUG-CC-PVTZ
  Basis Set: (AUG-CC-PVTZ AUX)
    Blend: AUG-CC-PVTZ-JKFIT
	 Reference Energy          =   -1327.8417852900292928 [Eh]
	 Singles Energy            =      -0.0000000000000000 [Eh]
	 Same-Spin Energy          =      -1.0166372686761480 [Eh]
	 Opposite-Spin Energy      =      -3.0798608424544116 [Eh]
	 Correlation Energy        =      -4.0964981111305594 [Eh]
	 Total Energy              =   -1331.9382834011598788 [Eh]

	 ================> DF-SCS-MP2 Energies <==================
	-----------------------------------------------------------
	 SCS Same-Spin Scale       =       0.3333333333333333 [-]
	 SCS Opposite-Spin Scale   =       1.2000000000000000 [-]
	 SCS Same-Spin Energy      =      -0.3388790895587160 [Eh]
	 SCS Opposite-Spin Energy  =      -3.6958330109452939 [Eh]
	 SCS Correlation Energy    =      -4.0347121005040103 [Eh]
	 SCS Total Energy          =   -1331.8764973905333591 [Eh]
	-----------------------------------------------------------

  Dipole Moment: [D]
     X:    -1.1956      Y:     1.7593      Z:     0.8773     Total:     2.3009

*** Psi4 exiting successfully. Buy a developer a beer!
