                               Psi4 1.3.2 release

  ==> Input File <==

--------------------------------------------------------------------------
#psi4
#
memory 32 gb

molecule  {
0 1
  P       -2.2900960    -0.9400430     0.3446780
  O       -0.9740112    -0.1821920     0.9525216
  O        1.3422500    -1.6754830     1.2308510
  O        0.0787050     2.3596040     0.4621680
  O        3.0685150    -2.1870720    -0.8085900
  O        2.8473350     2.5031130     0.3715350
  O        4.1956880     0.4353970    -0.9728740
  O       -2.8268630     0.0333510    -0.8075310
  O       -3.2591210    -0.7232820     1.6216710
  O       -2.1189930    -2.3436440    -0.0996680
  C        0.1181620     0.0300090     0.0163190
  C        0.9532920    -1.2442050    -0.0757250
  C        0.8816851     1.2041482     0.5850510
  C        2.2596600    -1.0143070    -0.8180370
  C        2.1770750     1.3964720    -0.2280410
  C        3.0258420     0.1487050    -0.2103220
  C       -3.1242130     1.4315980    -0.4888860
  C       -3.5363170     2.0851650    -1.7841190
  H       -0.2830920     0.2988010    -0.9702380
  H        0.3702690    -2.0293640    -0.5720320
  H        1.1571200     0.9978770     1.6121560
  H        2.0609340    -0.7886600    -1.8727560
  H        1.9169870     1.6362870    -1.2735830
  H        3.2958550    -0.0945320     0.8276460
  H        0.5217750    -1.8880320     1.7115100
  H        0.6655400     3.1093110     0.6831840
  H        2.9735430    -2.5473740     0.0946540
  H        3.7214290     2.5491860    -0.0588690
  H        4.6397270    -0.4238340    -1.0970870
  H       -3.8083950    -1.5223380     1.7347280
  H       -3.9305460     1.4455410     0.2493860
  H       -2.2297620     1.8928800    -0.0590960
  H       -3.8005210     3.1308820    -1.6026710
  H       -2.7171960     2.0533230    -2.5048750
  H       -4.4009440     1.5743230    -2.2127240
units angstrom
no_reorient  #important for SAPT in psi4, default
symmetry c1  #important for SAPT in psi4, default
}

set PROPERTIES_ORIGIN ["COM"]
properties('MP2/aug-cc-pvtz', properties = ['dipole'])
--------------------------------------------------------------------------

    Molecular point group: c1
  Charge       = 0
  Multiplicity = 1
  Basis Set: AUG-CC-PVTZ
    Blend: AUG-CC-PVTZ
  Basis Set: (AUG-CC-PVTZ AUX)
    Blend: AUG-CC-PVTZ-JKFIT

    Orbital Energies [Eh]
    ---------------------

    Doubly Occupied:

       1A    -80.119113     2A    -20.615534     3A    -20.606503
       4A    -20.600324     5A    -20.582810     6A    -20.575466
       7A    -20.574128     8A    -20.573504     9A    -20.573257
      10A    -20.525939    11A    -11.318736    12A    -11.303284
      13A    -11.299874    14A    -11.298788    15A    -11.297052
      16A    -11.295636    17A    -11.290257    18A    -11.230235
      19A     -7.634262    20A     -5.532785    21A     -5.532326
      22A     -5.531195    23A     -1.458064    24A     -1.410435
      25A     -1.393409    26A     -1.392912    27A     -1.387711
      28A     -1.371790    29A     -1.364199    30A     -1.353245
      31A     -1.305814    32A     -1.115662    33A     -1.040931
      34A     -1.009970    35A     -1.000608    36A     -0.877990
      37A     -0.864482    38A     -0.859286    39A     -0.821830
      40A     -0.810755    41A     -0.751617    42A     -0.744419
      43A     -0.731411    44A     -0.727361    45A     -0.706537
      46A     -0.687400    47A     -0.677990    48A     -0.673748
      49A     -0.662015    50A     -0.660186    51A     -0.642660
      52A     -0.633829    53A     -0.626962    54A     -0.615251
      55A     -0.602746    56A     -0.598170    57A     -0.582728
      58A     -0.575991    59A     -0.570210    60A     -0.559470
      61A     -0.556524    62A     -0.548220    63A     -0.541766
      64A     -0.536562    65A     -0.529350    66A     -0.520357
      67A     -0.513133    68A     -0.504098    69A     -0.497273
      70A     -0.484641    71A     -0.481011    72A     -0.477933
      73A     -0.459594    74A     -0.454018    75A     -0.449458
      76A     -0.435616

  @DF-RHF Final Energy: -1327.85886429385118

   => Energetics <=

    Nuclear Repulsion Energy =           1771.6827613460488919
    One-Electron Energy =               -5355.5425385153112074
    Two-Electron Energy =                2256.0009128754109042
    Total Energy =                      -1327.8588642938511839
  Basis Set: (AUG-CC-PVTZ AUX)
    Blend: AUG-CC-PVTZ-RI
    Molecular point group: c1

    Geometry (in Angstrom), charge = 0, multiplicity = 1:

       Center              X                  Y                   Z               Mass
    ------------   -----------------  -----------------  -----------------  -----------------
         P           -2.289843869869    -0.941181185257     0.343046221142    30.973761998420
         O           -0.973759069869    -0.183330185257     0.950889821142    15.994914619570
         O            1.342502130131    -1.676621185257     1.229219221142    15.994914619570
         O            0.078957130131     2.358465814743     0.460536221142    15.994914619570
         O            3.068767130131    -2.188210185257    -0.810221778858    15.994914619570
         O            2.847587130131     2.501974814743     0.369903221142    15.994914619570
         O            4.195940130131     0.434258814743    -0.974505778858    15.994914619570
         O           -2.826610869869     0.032212814743    -0.809162778858    15.994914619570
         O           -3.258868869869    -0.724420185257     1.620039221142    15.994914619570
         O           -2.118740869869    -2.344782185257    -0.101299778858    15.994914619570
         C            0.118414130131     0.028870814743     0.014687221142    12.000000000000
         C            0.953544130131    -1.245343185257    -0.077356778858    12.000000000000
         C            0.881937230131     1.203010014743     0.583419221142    12.000000000000
         C            2.259912130131    -1.015445185257    -0.819668778858    12.000000000000
         C            2.177327130131     1.395333814743    -0.229672778858    12.000000000000
         C            3.026094130131     0.147566814743    -0.211953778858    12.000000000000
         C           -3.123960869869     1.430459814743    -0.490517778858    12.000000000000
         C           -3.536064869869     2.084026814743    -1.785750778858    12.000000000000
         H           -0.282839869869     0.297662814743    -0.971869778858     1.007825032230
         H            0.370521130131    -2.030502185257    -0.573663778858     1.007825032230
         H            1.157372130131     0.996738814743     1.610524221142     1.007825032230
         H            2.061186130131    -0.789798185257    -1.874387778858     1.007825032230
         H            1.917239130131     1.635148814743    -1.275214778858     1.007825032230
         H            3.296107130131    -0.095670185257     0.826014221142     1.007825032230
         H            0.522027130131    -1.889170185257     1.709878221142     1.007825032230
         H            0.665792130131     3.108172814743     0.681552221142     1.007825032230
         H            2.973795130131    -2.548512185257     0.093022221142     1.007825032230
         H            3.721681130131     2.548047814743    -0.060500778858     1.007825032230
         H            4.639979130131    -0.424972185257    -1.098718778858     1.007825032230
         H           -3.808142869869    -1.523476185257     1.733096221142     1.007825032230
         H           -3.930293869869     1.444402814743     0.247754221142     1.007825032230
         H           -2.229509869869     1.891741814743    -0.060727778858     1.007825032230
         H           -3.800268869869     3.129743814743    -1.604302778858     1.007825032230
         H           -2.716943869869     2.052184814743    -2.506506778858     1.007825032230
         H           -4.400691869869     1.573184814743    -2.214355778858     1.007825032230

  Basis Set: AUG-CC-PVTZ
    Blend: AUG-CC-PVTZ
  Basis Set: (AUG-CC-PVTZ AUX)
    Blend: AUG-CC-PVTZ-JKFIT
	 Reference Energy          =   -1327.8588642938511839 [Eh]
	 Singles Energy            =      -0.0000000000000000 [Eh]
	 Same-Spin Energy          =      -1.0148756286867300 [Eh]
	 Opposite-Spin Energy      =      -3.0768816854834999 [Eh]
	 Correlation Energy        =      -4.0917573141702297 [Eh]
	 Total Energy              =   -1331.9506216080214926 [Eh]

	 ================> DF-SCS-MP2 Energies <==================
	-----------------------------------------------------------
	 SCS Same-Spin Scale       =       0.3333333333333333 [-]
	 SCS Opposite-Spin Scale   =       1.2000000000000000 [-]
	 SCS Same-Spin Energy      =      -0.3382918762289100 [Eh]
	 SCS Opposite-Spin Energy  =      -3.6922580225801997 [Eh]
	 SCS Correlation Energy    =      -4.0305498988091095 [Eh]
	 SCS Total Energy          =   -1331.8894141926602970 [Eh]
	-----------------------------------------------------------

  Dipole Moment: [D]
     X:    -1.2529      Y:     1.8186      Z:     0.7126     Total:     2.3205

*** Psi4 exiting successfully. Buy a developer a beer!
