                               Psi4 1.3.2 release

  ==> Input File <==

--------------------------------------------------------------------------
#psi4
#
memory 32 gb

molecule  {
0 1
  P       -2.2900960    -0.9400430     0.3446780
  O       -0.9821530    -0.2015620     0.9382890
  O        1.3422500    -1.6754830     1.2308510
  O        0.0787050     2.3596040     0.4621680
  O        3.0685150    -2.1870720    -0.8085900
  O        2.8473350     2.5031130     0.3715350
  O        4.1956880     0.4353970    -0.9728740
  O       -2.8273368     0.0117357    -0.8252322
  O       -3.2591210    -0.7232820     1.6216710
  O       -2.1271775    -2.3369311    -0.1232714
  C        0.1181620     0.0300090     0.0163190
  C        0.9532920    -1.2442050    -0.0757250
  C        0.8985890     1.2026440     0.5648510
  C        2.2596600    -1.0143070    -0.8180370
  C        2.1770750     1.3964720    -0.2280410
  C        3.0258420     0.1487050    -0.2103220
  C       -3.1242130     1.4315980    -0.4888860
  C       -3.5363170     2.0851650    -1.7841190
  H       -0.2830920     0.2988010    -0.9702380
  H        0.3702690    -2.0293640    -0.5720320
  H        1.1571200     0.9978770     1.6121560
  H        2.0609340    -0.7886600    -1.8727560
  H        1.9169870     1.6362870    -1.2735830
  H        3.2958550    -0.0945320     0.8276460
  H        0.5217750    -1.8880320     1.7115100
  H        0.6655400     3.1093110     0.6831840
  H        2.9735430    -2.5473740     0.0946540
  H        3.7214290     2.5491860    -0.0588690
  H        4.6397270    -0.4238340    -1.0970870
  H       -3.8083950    -1.5223380     1.7347280
  H       -3.9305460     1.4455410     0.2493860
  H       -2.2297620     1.8928800    -0.0590960
  H       -3.8005210     3.1308820    -1.6026710
  H       -2.7171960     2.0533230    -2.5048750
  H       -4.4009440     1.5743230    -2.2127240
units angstrom
no_reorient  #important for SAPT in psi4, default
symmetry c1  #important for SAPT in psi4, default
}

set PROPERTIES_ORIGIN ["COM"]
properties('MP2/aug-cc-pvtz', properties = ['dipole'])
--------------------------------------------------------------------------

    Molecular point group: c1
  Charge       = 0
  Multiplicity = 1
  Basis Set: AUG-CC-PVTZ
    Blend: AUG-CC-PVTZ
  Basis Set: (AUG-CC-PVTZ AUX)
    Blend: AUG-CC-PVTZ-JKFIT

    Orbital Energies [Eh]
    ---------------------

    Doubly Occupied:

       1A    -80.115406     2A    -20.615674     3A    -20.607969
       4A    -20.598196     5A    -20.583287     6A    -20.576950
       7A    -20.574619     8A    -20.574162     9A    -20.573850
      10A    -20.520674    11A    -11.320880    12A    -11.303540
      13A    -11.301652    14A    -11.299370    15A    -11.298865
      16A    -11.296854    17A    -11.291525    18A    -11.230606
      19A     -7.630962    20A     -5.529459    21A     -5.529016
      22A     -5.527935    23A     -1.459040    24A     -1.410762
      25A     -1.394931    26A     -1.393262    27A     -1.382865
      28A     -1.372475    29A     -1.364132    30A     -1.353945
      31A     -1.301210    32A     -1.119198    33A     -1.040620
      34A     -1.012238    35A     -1.003565    36A     -0.879519
      37A     -0.863532    38A     -0.859186    39A     -0.822453
      40A     -0.810727    41A     -0.751862    42A     -0.745040
      43A     -0.731108    44A     -0.726770    45A     -0.707969
      46A     -0.686885    47A     -0.677715    48A     -0.672549
      49A     -0.662350    50A     -0.660449    51A     -0.643264
      52A     -0.635115    53A     -0.626422    54A     -0.613975
      55A     -0.603880    56A     -0.598553    57A     -0.581096
      58A     -0.574892    59A     -0.571006    60A     -0.559272
      61A     -0.556422    62A     -0.548168    63A     -0.540408
      64A     -0.536519    65A     -0.530078    66A     -0.522027
      67A     -0.514681    68A     -0.504692    69A     -0.497848
      70A     -0.485608    71A     -0.479631    72A     -0.474374
      73A     -0.462148    74A     -0.456032    75A     -0.450128
      76A     -0.436248

  @DF-RHF Final Energy: -1327.86006977840407

   => Energetics <=

    Nuclear Repulsion Energy =           1771.8937751208907230
    One-Electron Energy =               -5355.9671043209282288
    Two-Electron Energy =                2256.2132594216336656
    Total Energy =                      -1327.8600697784040676
  Basis Set: (AUG-CC-PVTZ AUX)
    Blend: AUG-CC-PVTZ-RI
    Molecular point group: c1

    Geometry (in Angstrom), charge = 0, multiplicity = 1:

       Center              X                  Y                   Z               Mass
    ------------   -----------------  -----------------  -----------------  -----------------
         P           -2.289615205244    -0.939215509673     0.346971475506    30.973761998420
         O           -0.981672205244    -0.200734509673     0.940582475506    15.994914619570
         O            1.342730794756    -1.674655509673     1.233144475506    15.994914619570
         O            0.079185794756     2.360431490327     0.464461475506    15.994914619570
         O            3.068995794756    -2.186244509673    -0.806296524494    15.994914619570
         O            2.847815794756     2.503940490327     0.373828475506    15.994914619570
         O            4.196168794756     0.436224490327    -0.970580524494    15.994914619570
         O           -2.826856005244     0.012563190327    -0.822938724494    15.994914619570
         O           -3.258640205244    -0.722454509673     1.623964475506    15.994914619570
         O           -2.126696705244    -2.336103609673    -0.120977924494    15.994914619570
         C            0.118642794756     0.030836490327     0.018612475506    12.000000000000
         C            0.953772794756    -1.243377509673    -0.073431524494    12.000000000000
         C            0.899069794756     1.203471490327     0.567144475506    12.000000000000
         C            2.260140794756    -1.013479509673    -0.815743524494    12.000000000000
         C            2.177555794756     1.397299490327    -0.225747524494    12.000000000000
         C            3.026322794756     0.149532490327    -0.208028524494    12.000000000000
         C           -3.123732205244     1.432425490327    -0.486592524494    12.000000000000
         C           -3.535836205244     2.085992490327    -1.781825524494    12.000000000000
         H           -0.282611205244     0.299628490327    -0.967944524494     1.007825032230
         H            0.370749794756    -2.028536509673    -0.569738524494     1.007825032230
         H            1.157600794756     0.998704490327     1.614449475506     1.007825032230
         H            2.061414794756    -0.787832509673    -1.870462524494     1.007825032230
         H            1.917467794756     1.637114490327    -1.271289524494     1.007825032230
         H            3.296335794756    -0.093704509673     0.829939475506     1.007825032230
         H            0.522255794756    -1.887204509673     1.713803475506     1.007825032230
         H            0.666020794756     3.110138490327     0.685477475506     1.007825032230
         H            2.974023794756    -2.546546509673     0.096947475506     1.007825032230
         H            3.721909794756     2.550013490327    -0.056575524494     1.007825032230
         H            4.640207794756    -0.423006509673    -1.094793524494     1.007825032230
         H           -3.807914205244    -1.521510509673     1.737021475506     1.007825032230
         H           -3.930065205244     1.446368490327     0.251679475506     1.007825032230
         H           -2.229281205244     1.893707490327    -0.056802524494     1.007825032230
         H           -3.800040205244     3.131709490327    -1.600377524494     1.007825032230
         H           -2.716715205244     2.054150490327    -2.502581524494     1.007825032230
         H           -4.400463205244     1.575150490327    -2.210430524494     1.007825032230

  Basis Set: AUG-CC-PVTZ
    Blend: AUG-CC-PVTZ
  Basis Set: (AUG-CC-PVTZ AUX)
    Blend: AUG-CC-PVTZ-JKFIT
	 Reference Energy          =   -1327.8600697784040676 [Eh]
	 Singles Energy            =      -0.0000000000000000 [Eh]
	 Same-Spin Energy          =      -1.0147188284830131 [Eh]
	 Opposite-Spin Energy      =      -3.0766635486198122 [Eh]
	 Correlation Energy        =      -4.0913823771028248 [Eh]
	 Total Energy              =   -1331.9514521555067859 [Eh]

	 ================> DF-SCS-MP2 Energies <==================
	-----------------------------------------------------------
	 SCS Same-Spin Scale       =       0.3333333333333333 [-]
	 SCS Opposite-Spin Scale   =       1.2000000000000000 [-]
	 SCS Same-Spin Energy      =      -0.3382396094943377 [Eh]
	 SCS Opposite-Spin Energy  =      -3.6919962583437744 [Eh]
	 SCS Correlation Energy    =      -4.0302358678381118 [Eh]
	 SCS Total Energy          =   -1331.8903056462422683 [Eh]
	-----------------------------------------------------------

  Dipole Moment: [D]
     X:    -1.1022      Y:     1.9533      Z:     0.8037     Total:     2.3825

*** Psi4 exiting successfully. Buy a developer a beer!
