                               Psi4 1.4a3.dev225

  ==> Input File <==

--------------------------------------------------------------------------
#psi4
#
memory 32 gb

molecule  {
0 1
  P       -2.3219140    -1.0563120    -0.0968450
  O       -1.0285840    -0.5623410     0.7549430
  O        1.3695440    -1.8069540     1.2202350
  O       -0.1592450     2.1412630     0.5207450
  O        3.3269040    -2.0858120    -0.6453880
  O        2.5724350     2.5270130     0.6374560
  O        4.2203020     0.6406430    -0.6358120
  O       -2.8737010     0.2643620    -0.8096810
  O       -3.3065970    -1.3497020     1.1531960
  O       -2.1044560    -2.1814480    -1.0350500
  C        0.1200290    -0.1583450    -0.0432010
  C        1.0698050    -1.3527180    -0.1046720
  C        0.7441670     1.0454510     0.6308160
  C        2.4193320    -0.9866070    -0.7068450
  C        2.0429713     1.3808627    -0.0380771
  C        3.0180900     0.2181970     0.0056710
  C       -3.2473180     1.4231610     0.0025120
  C       -3.2076300     2.6262440    -0.9075720
  H       -0.2047330     0.1313700    -1.0514980
  H        0.5965010    -2.1549610    -0.6866410
  H        0.9371260     0.8063110     1.6860210
  H        2.3054700    -0.7437210    -1.7704410
  H        1.8633300     1.6367370    -1.1028410
  H        3.2142070    -0.0417910     1.0561650
  H        0.5126160    -2.0057500     1.6426110
  H        0.3598300     2.9232990     0.7925780
  H        3.1793900    -2.4823080     0.2360710
  H        3.4672560     2.6739710     0.2770410
  H        4.7639490    -0.1654590    -0.7244900
  H       -3.7873380    -2.1826420     0.9908450
  H       -4.2474700     1.2335250     0.4005830
  H       -2.5352900     1.5309660     0.8217280
  H       -3.5402110     3.5125760    -0.3587690
  H       -2.1856630     2.7912820    -1.2511950
  H       -3.8637180     2.4807570    -1.7684970
units angstrom
no_reorient  #important for SAPT in psi4, default
symmetry c1  #important for SAPT in psi4, default
}

set PROPERTIES_ORIGIN ["COM"]
properties('MP2/aug-cc-pvtz', properties = ['dipole'])
--------------------------------------------------------------------------

    Molecular point group: c1
  Charge       = 0
  Multiplicity = 1
  Basis Set: AUG-CC-PVTZ
    Blend: AUG-CC-PVTZ
  Basis Set: (AUG-CC-PVTZ AUX)
    Blend: AUG-CC-PVTZ-JKFIT

    Orbital Energies [Eh]
    ---------------------

    Doubly Occupied:

       1A    -80.117060     2A    -20.615194     3A    -20.608461
       4A    -20.596211     5A    -20.584286     6A    -20.577420
       7A    -20.575727     8A    -20.574999     9A    -20.574927
      10A    -20.522740    11A    -11.322016    12A    -11.305471
      13A    -11.300452    14A    -11.300157    15A    -11.298894
      16A    -11.296300    17A    -11.293597    18A    -11.223008
      19A     -7.632322    20A     -5.530857    21A     -5.530355
      22A     -5.529292    23A     -1.458765    24A     -1.410929
      25A     -1.394613    26A     -1.392895    27A     -1.385377
      28A     -1.373013    29A     -1.363623    30A     -1.353636
      31A     -1.302923    32A     -1.120313    33A     -1.035646
      34A     -1.010856    35A     -1.005775    36A     -0.878893
      37A     -0.862725    38A     -0.858938    39A     -0.823052
      40A     -0.810133    41A     -0.754787    42A     -0.745480
      43A     -0.729228    44A     -0.726357    45A     -0.705862
      46A     -0.687070    47A     -0.679530    48A     -0.674280
      49A     -0.662211    50A     -0.659802    51A     -0.641927
      52A     -0.638539    53A     -0.623587    54A     -0.612971
      55A     -0.604436    56A     -0.597004    57A     -0.580928
      58A     -0.578001    59A     -0.570465    60A     -0.558385
      61A     -0.555583    62A     -0.548469    63A     -0.538424
      64A     -0.537377    65A     -0.530308    66A     -0.518139
      67A     -0.508857    68A     -0.503620    69A     -0.495626
      70A     -0.487668    71A     -0.478855    72A     -0.475673
      73A     -0.464524    74A     -0.456060    75A     -0.451267
      76A     -0.436507

  @DF-RHF Final Energy: -1327.86047659492556

   => Energetics <=

    Nuclear Repulsion Energy =           1774.8679550617741825
    One-Electron Energy =               -5361.9175478170418501
    Two-Electron Energy =                2259.1891161603416549
    Total Energy =                      -1327.8604765949257853
  Basis Set: (AUG-CC-PVTZ AUX)
    Blend: AUG-CC-PVTZ-RI
    Molecular point group: c1

    Geometry (in Angstrom), charge = 0, multiplicity = 1:

       Center              X                  Y                   Z               Mass
    ------------   -----------------  -----------------  -----------------  -----------------
         P           -2.310430699200    -1.018346509812    -0.099661269709    30.973761998420
         O           -1.017100699200    -0.524375509812     0.752126730291    15.994914619570
         O            1.381027300800    -1.768988509812     1.217418730291    15.994914619570
         O           -0.147761699200     2.179228490188     0.517928730291    15.994914619570
         O            3.338387300800    -2.047846509812    -0.648204269709    15.994914619570
         O            2.583918300800     2.564978490188     0.634639730291    15.994914619570
         O            4.231785300800     0.678608490188    -0.638628269709    15.994914619570
         O           -2.862217699200     0.302327490188    -0.812497269709    15.994914619570
         O           -3.295113699200    -1.311736509812     1.150379730291    15.994914619570
         O           -2.092972699200    -2.143482509812    -1.037866269709    15.994914619570
         C            0.131512300800    -0.120379509812    -0.046017269709    12.000000000000
         C            1.081288300800    -1.314752509812    -0.107488269709    12.000000000000
         C            0.755650300800     1.083416490188     0.627999730291    12.000000000000
         C            2.430815300800    -0.948641509812    -0.709661269709    12.000000000000
         C            2.054454600800     1.418828190188    -0.040893369709    12.000000000000
         C            3.029573300800     0.256162490188     0.002854730291    12.000000000000
         C           -3.235834699200     1.461126490188    -0.000304269709    12.000000000000
         C           -3.196146699200     2.664209490188    -0.910388269709    12.000000000000
         H           -0.193249699200     0.169335490188    -1.054314269709     1.007825032230
         H            0.607984300800    -2.116995509812    -0.689457269709     1.007825032230
         H            0.948609300800     0.844276490188     1.683204730291     1.007825032230
         H            2.316953300800    -0.705755509812    -1.773257269709     1.007825032230
         H            1.874813300800     1.674702490188    -1.105657269709     1.007825032230
         H            3.225690300800    -0.003825509812     1.053348730291     1.007825032230
         H            0.524099300800    -1.967784509812     1.639794730291     1.007825032230
         H            0.371313300800     2.961264490188     0.789761730291     1.007825032230
         H            3.190873300800    -2.444342509812     0.233254730291     1.007825032230
         H            3.478739300800     2.711936490188     0.274224730291     1.007825032230
         H            4.775432300800    -0.127493509812    -0.727306269709     1.007825032230
         H           -3.775854699200    -2.144676509812     0.988028730291     1.007825032230
         H           -4.235986699200     1.271490490188     0.397766730291     1.007825032230
         H           -2.523806699200     1.568931490188     0.818911730291     1.007825032230
         H           -3.528727699200     3.550541490188    -0.361585269709     1.007825032230
         H           -2.174179699200     2.829247490188    -1.254011269709     1.007825032230
         H           -3.852234699200     2.518722490188    -1.771313269709     1.007825032230

  Basis Set: AUG-CC-PVTZ
    Blend: AUG-CC-PVTZ
  Basis Set: (AUG-CC-PVTZ AUX)
    Blend: AUG-CC-PVTZ-JKFIT
	 Reference Energy          =   -1327.8604765949255579 [Eh]
	 Singles Energy            =      -0.0000000000000000 [Eh]
	 Same-Spin Energy          =      -1.0147650014385152 [Eh]
	 Opposite-Spin Energy      =      -3.0766346266895654 [Eh]
	 Correlation Energy        =      -4.0913996281280802 [Eh]
	 Total Energy              =   -1331.9518762230536595 [Eh]

	 ================> DF-SCS-MP2 Energies <==================
	-----------------------------------------------------------
	 SCS Same-Spin Scale       =       0.3333333333333333 [-]
	 SCS Opposite-Spin Scale   =       1.2000000000000000 [-]
	 SCS Same-Spin Energy      =      -0.3382550004795051 [Eh]
	 SCS Opposite-Spin Energy  =      -3.6919615520274784 [Eh]
	 SCS Correlation Energy    =      -4.0302165525069835 [Eh]
	 SCS Total Energy          =   -1331.8906931474325575 [Eh]
	-----------------------------------------------------------

  Dipole Moment: [D]
     X:    -0.8879      Y:     1.3958      Z:     1.8771     Total:     2.5020

*** Psi4 exiting successfully. Buy a developer a beer!
