                               Psi4 1.3.2 release

  ==> Input File <==

--------------------------------------------------------------------------
#psi4
#
memory 32 gb

molecule  {
0 1
  P       -2.2900960    -0.9400430     0.3446780
  O       -0.9821530    -0.2015620     0.9382890
  O        1.3422500    -1.6754830     1.2308510
  O        0.0787050     2.3596040     0.4621680
  O        3.0685150    -2.1870720    -0.8085900
  O        2.8473350     2.5031130     0.3715350
  O        4.1956880     0.4353970    -0.9728740
  O       -2.8268630     0.0333510    -0.8075310
  O       -3.2591210    -0.7232820     1.6216710
  O       -2.1189930    -2.3436440    -0.0996680
  C        0.1181620     0.0300090     0.0163190
  C        0.9532920    -1.2442050    -0.0757250
  C        0.8985890     1.2026440     0.5648510
  C        2.2596600    -1.0143070    -0.8180370
  C        2.1808748     1.3986902    -0.1755472
  C        3.0258420     0.1487050    -0.2103220
  C       -3.1242130     1.4315980    -0.4888860
  C       -3.5363170     2.0851650    -1.7841190
  H       -0.2830920     0.2988010    -0.9702380
  H        0.3702690    -2.0293640    -0.5720320
  H        1.1571200     0.9978770     1.6121560
  H        2.0609340    -0.7886600    -1.8727560
  H        1.9169870     1.6362870    -1.2735830
  H        3.2761240    -0.0637310     0.8392868
  H        0.5217750    -1.8880320     1.7115100
  H        0.6655400     3.1093110     0.6831840
  H        2.9735430    -2.5473740     0.0946540
  H        3.7214290     2.5491860    -0.0588690
  H        4.6397270    -0.4238340    -1.0970870
  H       -3.8083950    -1.5223380     1.7347280
  H       -3.9305460     1.4455410     0.2493860
  H       -2.2297620     1.8928800    -0.0590960
  H       -3.8005210     3.1308820    -1.6026710
  H       -2.7171960     2.0533230    -2.5048750
  H       -4.4009440     1.5743230    -2.2127240
units angstrom
no_reorient  #important for SAPT in psi4, default
symmetry c1  #important for SAPT in psi4, default
}

set PROPERTIES_ORIGIN ["COM"]
properties('MP2/aug-cc-pvtz', properties = ['dipole'])
--------------------------------------------------------------------------

    Molecular point group: c1
  Charge       = 0
  Multiplicity = 1
  Basis Set: AUG-CC-PVTZ
    Blend: AUG-CC-PVTZ
  Basis Set: (AUG-CC-PVTZ AUX)
    Blend: AUG-CC-PVTZ-JKFIT

    Orbital Energies [Eh]
    ---------------------

    Doubly Occupied:

       1A    -80.117087     2A    -20.614834     3A    -20.607386
       4A    -20.598942     5A    -20.583094     6A    -20.579367
       7A    -20.575328     8A    -20.574584     9A    -20.574035
      10A    -20.523503    11A    -11.321543    12A    -11.303570
      13A    -11.299845    14A    -11.299350    15A    -11.298778
      16A    -11.297765    17A    -11.291542    18A    -11.229722
      19A     -7.632531    20A     -5.531037    21A     -5.530668
      22A     -5.529461    23A     -1.460450    24A     -1.412398
      25A     -1.399019    26A     -1.393618    27A     -1.386904
      28A     -1.373302    29A     -1.366420    30A     -1.355886
      31A     -1.303899    32A     -1.120091    33A     -1.040376
      34A     -1.011890    35A     -1.005800    36A     -0.881890
      37A     -0.865385    38A     -0.858980    39A     -0.822953
      40A     -0.808203    41A     -0.751926    42A     -0.745584
      43A     -0.731062    44A     -0.728723    45A     -0.710915
      46A     -0.686596    47A     -0.678184    48A     -0.673761
      49A     -0.666155    50A     -0.662643    51A     -0.645869
      52A     -0.635732    53A     -0.626992    54A     -0.615102
      55A     -0.604998    56A     -0.597951    57A     -0.581602
      58A     -0.575655    59A     -0.571465    60A     -0.559708
      61A     -0.557067    62A     -0.548866    63A     -0.541061
      64A     -0.536456    65A     -0.529905    66A     -0.523672
      67A     -0.512451    68A     -0.504624    69A     -0.497858
      70A     -0.485700    71A     -0.479908    72A     -0.476725
      73A     -0.462443    74A     -0.451774    75A     -0.443956
      76A     -0.438020

  @DF-RHF Final Energy: -1327.85831975885503

   => Energetics <=

    Nuclear Repulsion Energy =           1772.8768233698090171
    One-Electron Energy =               -5357.8251930771530169
    Two-Electron Energy =                2257.0900499484887405
    Total Energy =                      -1327.8583197588550320
  Basis Set: (AUG-CC-PVTZ AUX)
    Blend: AUG-CC-PVTZ-RI
    Molecular point group: c1

    Geometry (in Angstrom), charge = 0, multiplicity = 1:

       Center              X                  Y                   Z               Mass
    ------------   -----------------  -----------------  -----------------  -----------------
         P           -2.290185226741    -0.940243149704     0.342450485321    30.973761998420
         O           -0.982242226741    -0.201762149704     0.936061485321    15.994914619570
         O            1.342160773259    -1.675683149704     1.228623485321    15.994914619570
         O            0.078615773259     2.359403850296     0.459940485321    15.994914619570
         O            3.068425773259    -2.187272149704    -0.810817514679    15.994914619570
         O            2.847245773259     2.502912850296     0.369307485321    15.994914619570
         O            4.195598773259     0.435196850296    -0.975101514679    15.994914619570
         O           -2.826952226741     0.033150850296    -0.809758514679    15.994914619570
         O           -3.259210226741    -0.723482149704     1.619443485321    15.994914619570
         O           -2.119082226741    -2.343844149704    -0.101895514679    15.994914619570
         C            0.118072773259     0.029808850296     0.014091485321    12.000000000000
         C            0.953202773259    -1.244405149704    -0.077952514679    12.000000000000
         C            0.898499773259     1.202443850296     0.562623485321    12.000000000000
         C            2.259570773259    -1.014507149704    -0.820264514679    12.000000000000
         C            2.180785573259     1.398490050296    -0.177774714679    12.000000000000
         C            3.025752773259     0.148504850296    -0.212549514679    12.000000000000
         C           -3.124302226741     1.431397850296    -0.491113514679    12.000000000000
         C           -3.536406226741     2.084964850296    -1.786346514679    12.000000000000
         H           -0.283181226741     0.298600850296    -0.972465514679     1.007825032230
         H            0.370179773259    -2.029564149704    -0.574259514679     1.007825032230
         H            1.157030773259     0.997676850296     1.609928485321     1.007825032230
         H            2.060844773259    -0.788860149704    -1.874983514679     1.007825032230
         H            1.916897773259     1.636086850296    -1.275810514679     1.007825032230
         H            3.276034773259    -0.063931149704     0.837059285321     1.007825032230
         H            0.521685773259    -1.888232149704     1.709282485321     1.007825032230
         H            0.665450773259     3.109110850296     0.680956485321     1.007825032230
         H            2.973453773259    -2.547574149704     0.092426485321     1.007825032230
         H            3.721339773259     2.548985850296    -0.061096514679     1.007825032230
         H            4.639637773259    -0.424034149704    -1.099314514679     1.007825032230
         H           -3.808484226741    -1.522538149704     1.732500485321     1.007825032230
         H           -3.930635226741     1.445340850296     0.247158485321     1.007825032230
         H           -2.229851226741     1.892679850296    -0.061323514679     1.007825032230
         H           -3.800610226741     3.130681850296    -1.604898514679     1.007825032230
         H           -2.717285226741     2.053122850296    -2.507102514679     1.007825032230
         H           -4.401033226741     1.574122850296    -2.214951514679     1.007825032230

  Basis Set: AUG-CC-PVTZ
    Blend: AUG-CC-PVTZ
  Basis Set: (AUG-CC-PVTZ AUX)
    Blend: AUG-CC-PVTZ-JKFIT
	 Reference Energy          =   -1327.8583197588550320 [Eh]
	 Singles Energy            =      -0.0000000000000000 [Eh]
	 Same-Spin Energy          =      -1.0148062741798134 [Eh]
	 Opposite-Spin Energy      =      -3.0759874491323682 [Eh]
	 Correlation Energy        =      -4.0907937233121814 [Eh]
	 Total Energy              =   -1331.9491134821671494 [Eh]

	 ================> DF-SCS-MP2 Energies <==================
	-----------------------------------------------------------
	 SCS Same-Spin Scale       =       0.3333333333333333 [-]
	 SCS Opposite-Spin Scale   =       1.2000000000000000 [-]
	 SCS Same-Spin Energy      =      -0.3382687580599378 [Eh]
	 SCS Opposite-Spin Energy  =      -3.6911849389588416 [Eh]
	 SCS Correlation Energy    =      -4.0294536970187798 [Eh]
	 SCS Total Energy          =   -1331.8877734558739121 [Eh]
	-----------------------------------------------------------

  Dipole Moment: [D]
     X:    -1.0733      Y:     1.8989      Z:     0.7982     Total:     2.3226

*** Psi4 exiting successfully. Buy a developer a beer!
