                               Psi4 1.3.2 release

  ==> Input File <==

--------------------------------------------------------------------------
#psi4
#
memory 32 gb

molecule  {
0 1
  P       -2.2900960    -0.9400430     0.3446780
  O       -0.9821530    -0.2015620     0.9382890
  O        1.3422500    -1.6754830     1.2308510
  O        0.0872506     2.3649514     0.4549355
  O        3.0685150    -2.1870720    -0.8085900
  O        2.8473350     2.5031130     0.3715350
  O        4.1956880     0.4353970    -0.9728740
  O       -2.8268630     0.0333510    -0.8075310
  O       -3.2591210    -0.7232820     1.6216710
  O       -2.1189930    -2.3436440    -0.0996680
  C        0.1181620     0.0300090     0.0163190
  C        0.9532920    -1.2442050    -0.0757250
  C        0.8985890     1.2026440     0.5648510
  C        2.2596600    -1.0143070    -0.8180370
  C        2.1729876     1.4085581    -0.2315667
  C        3.0258420     0.1487050    -0.2103220
  C       -3.1242130     1.4315980    -0.4888860
  C       -3.5363170     2.0851650    -1.7841190
  H       -0.2830920     0.2988010    -0.9702380
  H        0.3702690    -2.0293640    -0.5720320
  H        1.1571200     0.9978770     1.6121560
  H        2.0609340    -0.7886600    -1.8727560
  H        1.9169870     1.6362870    -1.2735830
  H        3.2958550    -0.0945320     0.8276460
  H        0.5217750    -1.8880320     1.7115100
  H        0.6655400     3.1093110     0.6831840
  H        2.9735430    -2.5473740     0.0946540
  H        3.7214290     2.5491860    -0.0588690
  H        4.6397270    -0.4238340    -1.0970870
  H       -3.8083950    -1.5223380     1.7347280
  H       -3.9305460     1.4455410     0.2493860
  H       -2.2297620     1.8928800    -0.0590960
  H       -3.8005210     3.1308820    -1.6026710
  H       -2.7171960     2.0533230    -2.5048750
  H       -4.4009440     1.5743230    -2.2127240
units angstrom
no_reorient  #important for SAPT in psi4, default
symmetry c1  #important for SAPT in psi4, default
}

set PROPERTIES_ORIGIN ["COM"]
properties('MP2/aug-cc-pvtz', properties = ['dipole'])
--------------------------------------------------------------------------

    Molecular point group: c1
  Charge       = 0
  Multiplicity = 1
  Basis Set: AUG-CC-PVTZ
    Blend: AUG-CC-PVTZ
  Basis Set: (AUG-CC-PVTZ AUX)
    Blend: AUG-CC-PVTZ-JKFIT

    Orbital Energies [Eh]
    ---------------------

    Doubly Occupied:

       1A    -80.117064     2A    -20.614836     3A    -20.607230
       4A    -20.599045     5A    -20.583093     6A    -20.577077
       7A    -20.574364     8A    -20.573606     9A    -20.572186
      10A    -20.523521    11A    -11.321004    12A    -11.303507
      13A    -11.299524    14A    -11.298969    15A    -11.298513
      16A    -11.296097    17A    -11.291193    18A    -11.229926
      19A     -7.632514    20A     -5.531020    21A     -5.530647
      22A     -5.529444    23A     -1.460415    24A     -1.410976
      25A     -1.395389    26A     -1.393350    27A     -1.386958
      28A     -1.372934    29A     -1.364602    30A     -1.354197
      31A     -1.303920    32A     -1.118061    33A     -1.040527
      34A     -1.010639    35A     -1.003422    36A     -0.880335
      37A     -0.865047    38A     -0.858639    39A     -0.822601
      40A     -0.810789    41A     -0.752374    42A     -0.745138
      43A     -0.731704    44A     -0.728893    45A     -0.708341
      46A     -0.688045    47A     -0.678018    48A     -0.673728
      49A     -0.661868    50A     -0.660728    51A     -0.643958
      52A     -0.634857    53A     -0.627315    54A     -0.615388
      55A     -0.604674    56A     -0.598392    57A     -0.581843
      58A     -0.575641    59A     -0.571184    60A     -0.559808
      61A     -0.556519    62A     -0.548633    63A     -0.541259
      64A     -0.536408    65A     -0.530006    66A     -0.521538
      67A     -0.513265    68A     -0.504233    69A     -0.497030
      70A     -0.484692    71A     -0.479965    72A     -0.476700
      73A     -0.462637    74A     -0.453449    75A     -0.450447
      76A     -0.435842

  @DF-RHF Final Energy: -1327.86206608195039

   => Energetics <=

    Nuclear Repulsion Energy =           1772.2642683812184714
    One-Electron Energy =               -5356.6692668803998458
    Two-Electron Energy =                2256.5429324172314409
    Total Energy =                      -1327.8620660819501609
  Basis Set: (AUG-CC-PVTZ AUX)
    Blend: AUG-CC-PVTZ-RI
    Molecular point group: c1

    Geometry (in Angstrom), charge = 0, multiplicity = 1:

       Center              X                  Y                   Z               Mass
    ------------   -----------------  -----------------  -----------------  -----------------
         P           -2.290400199035    -0.940843383599     0.345226456579    30.973761998420
         O           -0.982457199035    -0.202362383599     0.938837456579    15.994914619570
         O            1.341945800965    -1.676283383599     1.231399456579    15.994914619570
         O            0.086946400965     2.364151016401     0.455483956579    15.994914619570
         O            3.068210800965    -2.187872383599    -0.808041543421    15.994914619570
         O            2.847030800965     2.502312616401     0.372083456579    15.994914619570
         O            4.195383800965     0.434596616401    -0.972325543421    15.994914619570
         O           -2.827167199035     0.032550616401    -0.806982543421    15.994914619570
         O           -3.259425199035    -0.724082383599     1.622219456579    15.994914619570
         O           -2.119297199035    -2.344444383599    -0.099119543421    15.994914619570
         C            0.117857800965     0.029208616401     0.016867456579    12.000000000000
         C            0.952987800965    -1.245005383599    -0.075176543421    12.000000000000
         C            0.898284800965     1.201843616401     0.565399456579    12.000000000000
         C            2.259355800965    -1.015107383599    -0.817488543421    12.000000000000
         C            2.172683400965     1.407757716401    -0.231018243421    12.000000000000
         C            3.025537800965     0.147904616401    -0.209773543421    12.000000000000
         C           -3.124517199035     1.430797616401    -0.488337543421    12.000000000000
         C           -3.536621199035     2.084364616401    -1.783570543421    12.000000000000
         H           -0.283396199035     0.298000616401    -0.969689543421     1.007825032230
         H            0.369964800965    -2.030164383599    -0.571483543421     1.007825032230
         H            1.156815800965     0.997076616401     1.612704456579     1.007825032230
         H            2.060629800965    -0.789460383599    -1.872207543421     1.007825032230
         H            1.916682800965     1.635486616401    -1.273034543421     1.007825032230
         H            3.295550800965    -0.095332383599     0.828194456579     1.007825032230
         H            0.521470800965    -1.888832383599     1.712058456579     1.007825032230
         H            0.665235800965     3.108510616401     0.683732456579     1.007825032230
         H            2.973238800965    -2.548174383599     0.095202456579     1.007825032230
         H            3.721124800965     2.548385616401    -0.058320543421     1.007825032230
         H            4.639422800965    -0.424634383599    -1.096538543421     1.007825032230
         H           -3.808699199035    -1.523138383599     1.735276456579     1.007825032230
         H           -3.930850199035     1.444740616401     0.249934456579     1.007825032230
         H           -2.230066199035     1.892079616401    -0.058547543421     1.007825032230
         H           -3.800825199035     3.130081616401    -1.602122543421     1.007825032230
         H           -2.717500199035     2.052522616401    -2.504326543421     1.007825032230
         H           -4.401248199035     1.573522616401    -2.212175543421     1.007825032230

  Basis Set: AUG-CC-PVTZ
    Blend: AUG-CC-PVTZ
  Basis Set: (AUG-CC-PVTZ AUX)
    Blend: AUG-CC-PVTZ-JKFIT
	 Reference Energy          =   -1327.8620660819503883 [Eh]
	 Singles Energy            =      -0.0000000000000000 [Eh]
	 Same-Spin Energy          =      -1.0143625253671622 [Eh]
	 Opposite-Spin Energy      =      -3.0756138287131756 [Eh]
	 Correlation Energy        =      -4.0899763540803376 [Eh]
	 Total Energy              =   -1331.9520424360307516 [Eh]

	 ================> DF-SCS-MP2 Energies <==================
	-----------------------------------------------------------
	 SCS Same-Spin Scale       =       0.3333333333333333 [-]
	 SCS Opposite-Spin Scale   =       1.2000000000000000 [-]
	 SCS Same-Spin Energy      =      -0.3381208417890540 [Eh]
	 SCS Opposite-Spin Energy  =      -3.6907365944558106 [Eh]
	 SCS Correlation Energy    =      -4.0288574362448646 [Eh]
	 SCS Total Energy          =   -1331.8909235181952226 [Eh]
	-----------------------------------------------------------

  Dipole Moment: [D]
     X:    -1.1301      Y:     1.8758      Z:     0.7351     Total:     2.3100

*** Psi4 exiting successfully. Buy a developer a beer!
