                               Psi4 1.3.2 release

  ==> Input File <==

--------------------------------------------------------------------------
#psi4
#
memory 32 gb

molecule  {
0 1
  P       -2.2900960    -0.9400430     0.3446780
  O       -0.9821530    -0.2015620     0.9382890
  O        1.3422500    -1.6754830     1.2308510
  O        0.0787050     2.3596040     0.4621680
  O        3.0685150    -2.1870720    -0.8085900
  O        2.8473350     2.5031130     0.3715350
  O        4.1956880     0.4353970    -0.9728740
  O       -2.8211551     0.0291997    -0.7829630
  O       -3.2591210    -0.7232820     1.6216710
  O       -2.1189930    -2.3436440    -0.0996680
  C        0.1181620     0.0300090     0.0163190
  C        0.9532920    -1.2442050    -0.0757250
  C        0.8985890     1.2026440     0.5648510
  C        2.2596600    -1.0143070    -0.8180370
  C        2.1770750     1.3964720    -0.2280410
  C        3.0258420     0.1487050    -0.2103220
  C       -3.1242130     1.4315980    -0.4888860
  C       -3.5397080     2.1079031    -1.7712991
  H       -0.2830920     0.2988010    -0.9702380
  H        0.3702690    -2.0293640    -0.5720320
  H        1.1571200     0.9978770     1.6121560
  H        2.0609340    -0.7886600    -1.8727560
  H        1.9169870     1.6362870    -1.2735830
  H        3.2958550    -0.0945320     0.8276460
  H        0.5217750    -1.8880320     1.7115100
  H        0.6655400     3.1093110     0.6831840
  H        2.9735430    -2.5473740     0.0946540
  H        3.7214290     2.5491860    -0.0588690
  H        4.6397270    -0.4238340    -1.0970870
  H       -3.8083950    -1.5223380     1.7347280
  H       -3.9305460     1.4455410     0.2493860
  H       -2.2297620     1.8928800    -0.0590960
  H       -3.8005210     3.1308820    -1.6026710
  H       -2.7171960     2.0533230    -2.5048750
  H       -4.4009440     1.5743230    -2.2127240
units angstrom
no_reorient  #important for SAPT in psi4, default
symmetry c1  #important for SAPT in psi4, default
}

set PROPERTIES_ORIGIN ["COM"]
properties('MP2/aug-cc-pvtz', properties = ['dipole'])
--------------------------------------------------------------------------

    Molecular point group: c1
  Charge       = 0
  Multiplicity = 1
  Basis Set: AUG-CC-PVTZ
    Blend: AUG-CC-PVTZ
  Basis Set: (AUG-CC-PVTZ AUX)
    Blend: AUG-CC-PVTZ-JKFIT

    Orbital Energies [Eh]
    ---------------------

    Doubly Occupied:

       1A    -80.114580     2A    -20.612731     3A    -20.605199
       4A    -20.599296     5A    -20.582687     6A    -20.576616
       7A    -20.574355     8A    -20.573913     9A    -20.573277
      10A    -20.522479    11A    -11.320215    12A    -11.303110
      13A    -11.301329    14A    -11.299069    15A    -11.298285
      16A    -11.296451    17A    -11.291212    18A    -11.231618
      19A     -7.630420    20A     -5.528915    21A     -5.528654
      22A     -5.527330    23A     -1.461990    24A     -1.410738
      25A     -1.394312    26A     -1.392534    27A     -1.389044
      28A     -1.372394    29A     -1.363703    30A     -1.353605
      31A     -1.303015    32A     -1.118683    33A     -1.043445
      34A     -1.011591    35A     -1.003134    36A     -0.881264
      37A     -0.867141    38A     -0.858737    39A     -0.821288
      40A     -0.810249    41A     -0.751417    42A     -0.745175
      43A     -0.731696    44A     -0.729684    45A     -0.707610
      46A     -0.687144    47A     -0.677959    48A     -0.673696
      49A     -0.661902    50A     -0.660411    51A     -0.642723
      52A     -0.634529    53A     -0.628319    54A     -0.616295
      55A     -0.603040    56A     -0.598187    57A     -0.581828
      58A     -0.579215    59A     -0.571072    60A     -0.558886
      61A     -0.556170    62A     -0.551767    63A     -0.541633
      64A     -0.536378    65A     -0.528362    66A     -0.522138
      67A     -0.512674    68A     -0.503872    69A     -0.496280
      70A     -0.484678    71A     -0.479414    72A     -0.476192
      73A     -0.461952    74A     -0.455678    75A     -0.449621
      76A     -0.435993

  @DF-RHF Final Energy: -1327.86205821431804

   => Energetics <=

    Nuclear Repulsion Energy =           1773.2196975567492245
    One-Electron Energy =               -5358.5991201048955190
    Two-Electron Energy =                2257.5173643338280272
    Total Energy =                      -1327.8620582143180400
  Basis Set: (AUG-CC-PVTZ AUX)
    Blend: AUG-CC-PVTZ-RI
    Molecular point group: c1

    Geometry (in Angstrom), charge = 0, multiplicity = 1:

       Center              X                  Y                   Z               Mass
    ------------   -----------------  -----------------  -----------------  -----------------
         P           -2.290271643046    -0.940759696832     0.342779775371    30.973761998420
         O           -0.982328643046    -0.202278696832     0.936390775371    15.994914619570
         O            1.342074356954    -1.676199696832     1.228952775371    15.994914619570
         O            0.078529356954     2.358887303168     0.460269775371    15.994914619570
         O            3.068339356954    -2.187788696832    -0.810488224629    15.994914619570
         O            2.847159356954     2.502396303168     0.369636775371    15.994914619570
         O            4.195512356954     0.434680303168    -0.974772224629    15.994914619570
         O           -2.821330743046     0.028483003168    -0.784861224629    15.994914619570
         O           -3.259296643046    -0.723998696832     1.619772775371    15.994914619570
         O           -2.119168643046    -2.344360696832    -0.101566224629    15.994914619570
         C            0.117986356954     0.029292303168     0.014420775371    12.000000000000
         C            0.953116356954    -1.244921696832    -0.077623224629    12.000000000000
         C            0.898413356954     1.201927303168     0.562952775371    12.000000000000
         C            2.259484356954    -1.015023696832    -0.819935224629    12.000000000000
         C            2.176899356954     1.395755303168    -0.229939224629    12.000000000000
         C            3.025666356954     0.147988303168    -0.212220224629    12.000000000000
         C           -3.124388643046     1.430881303168    -0.490784224629    12.000000000000
         C           -3.539883643046     2.107186403168    -1.773197324629    12.000000000000
         H           -0.283267643046     0.298084303168    -0.972136224629     1.007825032230
         H            0.370093356954    -2.030080696832    -0.573930224629     1.007825032230
         H            1.156944356954     0.997160303168     1.610257775371     1.007825032230
         H            2.060758356954    -0.789376696832    -1.874654224629     1.007825032230
         H            1.916811356954     1.635570303168    -1.275481224629     1.007825032230
         H            3.295679356954    -0.095248696832     0.825747775371     1.007825032230
         H            0.521599356954    -1.888748696832     1.709611775371     1.007825032230
         H            0.665364356954     3.108594303168     0.681285775371     1.007825032230
         H            2.973367356954    -2.548090696832     0.092755775371     1.007825032230
         H            3.721253356954     2.548469303168    -0.060767224629     1.007825032230
         H            4.639551356954    -0.424550696832    -1.098985224629     1.007825032230
         H           -3.808570643046    -1.523054696832     1.732829775371     1.007825032230
         H           -3.930721643046     1.444824303168     0.247487775371     1.007825032230
         H           -2.229937643046     1.892163303168    -0.060994224629     1.007825032230
         H           -3.800696643046     3.130165303168    -1.604569224629     1.007825032230
         H           -2.717371643046     2.052606303168    -2.506773224629     1.007825032230
         H           -4.401119643046     1.573606303168    -2.214622224629     1.007825032230

  Basis Set: AUG-CC-PVTZ
    Blend: AUG-CC-PVTZ
  Basis Set: (AUG-CC-PVTZ AUX)
    Blend: AUG-CC-PVTZ-JKFIT
	 Reference Energy          =   -1327.8620582143180400 [Eh]
	 Singles Energy            =      -0.0000000000000000 [Eh]
	 Same-Spin Energy          =      -1.0142537739015447 [Eh]
	 Opposite-Spin Energy      =      -3.0751744311606433 [Eh]
	 Correlation Energy        =      -4.0894282050621875 [Eh]
	 Total Energy              =   -1331.9514864193802168 [Eh]

	 ================> DF-SCS-MP2 Energies <==================
	-----------------------------------------------------------
	 SCS Same-Spin Scale       =       0.3333333333333333 [-]
	 SCS Opposite-Spin Scale   =       1.2000000000000000 [-]
	 SCS Same-Spin Energy      =      -0.3380845913005149 [Eh]
	 SCS Opposite-Spin Energy  =      -3.6902093173927719 [Eh]
	 SCS Correlation Energy    =      -4.0282939086932865 [Eh]
	 SCS Total Energy          =   -1331.8903521230113256 [Eh]
	-----------------------------------------------------------

  Dipole Moment: [D]
     X:    -1.1757      Y:     1.9432      Z:     0.6333     Total:     2.3578

*** Psi4 exiting successfully. Buy a developer a beer!
