                               Psi4 1.3.2 release

  ==> Input File <==

--------------------------------------------------------------------------
#psi4
#
memory 32 gb

molecule  {
0 1
  P       -2.2900960    -0.9400430     0.3446780
  O       -1.1441206    -0.2930109     0.8647799
  O        1.3422500    -1.6754830     1.2308510
  O        0.0787050     2.3596040     0.4621680
  O        3.0685150    -2.1870720    -0.8085900
  O        2.8473350     2.5031130     0.3715350
  O        4.1956880     0.4353970    -0.9728740
  O       -2.8268630     0.0333510    -0.8075310
  O       -3.2591210    -0.7232820     1.6216710
  O       -2.1189930    -2.3436440    -0.0996680
  C        0.1181620     0.0300090     0.0163190
  C        0.9532920    -1.2442050    -0.0757250
  C        0.8985890     1.2026440     0.5648510
  C        2.2596600    -1.0143070    -0.8180370
  C        2.1770750     1.3964720    -0.2280410
  C        3.0258420     0.1487050    -0.2103220
  C       -3.1242130     1.4315980    -0.4888860
  C       -3.5363170     2.0851650    -1.7841190
  H       -0.2830920     0.2988010    -0.9702380
  H        0.3702690    -2.0293640    -0.5720320
  H        1.1571200     0.9978770     1.6121560
  H        2.0609340    -0.7886600    -1.8727560
  H        1.9169870     1.6362870    -1.2735830
  H        3.2958550    -0.0945320     0.8276460
  H        0.5217750    -1.8880320     1.7115100
  H        0.6655400     3.1093110     0.6831840
  H        2.9735430    -2.5473740     0.0946540
  H        3.7214290     2.5491860    -0.0588690
  H        4.6397270    -0.4238340    -1.0970870
  H       -3.8083950    -1.5223380     1.7347280
  H       -3.9305460     1.4455410     0.2493860
  H       -2.2297620     1.8928800    -0.0590960
  H       -3.8005210     3.1308820    -1.6026710
  H       -2.7171960     2.0533230    -2.5048750
  H       -4.4009440     1.5743230    -2.2127240
units angstrom
no_reorient  #important for SAPT in psi4, default
symmetry c1  #important for SAPT in psi4, default
}

set PROPERTIES_ORIGIN ["COM"]
properties('MP2/aug-cc-pvtz', properties = ['dipole'])
--------------------------------------------------------------------------

    Molecular point group: c1
  Charge       = 0
  Multiplicity = 1
  Basis Set: AUG-CC-PVTZ
    Blend: AUG-CC-PVTZ
  Basis Set: (AUG-CC-PVTZ AUX)
    Blend: AUG-CC-PVTZ-JKFIT

    Orbital Energies [Eh]
    ---------------------

    Doubly Occupied:

       1A    -80.078325     2A    -20.600675     3A    -20.593775
       4A    -20.592023     5A    -20.586344     6A    -20.582950
       7A    -20.582462     8A    -20.581348     9A    -20.578576
      10A    -20.499716    11A    -11.349336    12A    -11.316198
      13A    -11.315559    14A    -11.309287    15A    -11.308897
      16A    -11.300162    17A    -11.291434    18A    -11.224425
      19A     -7.600905    20A     -5.500674    21A     -5.498355
      22A     -5.496965    23A     -1.489375    24A     -1.415748
      25A     -1.402989    26A     -1.391946    27A     -1.381509
      28A     -1.372897    29A     -1.370367    30A     -1.362609
      31A     -1.283281    32A     -1.135860    33A     -1.034499
      34A     -1.028032    35A     -1.014265    36A     -0.889047
      37A     -0.868961    38A     -0.858579    39A     -0.824633
      40A     -0.809796    41A     -0.758481    42A     -0.752737
      43A     -0.738101    44A     -0.731503    45A     -0.711975
      46A     -0.694659    47A     -0.685136    48A     -0.674354
      49A     -0.667630    50A     -0.659512    51A     -0.645064
      52A     -0.642331    53A     -0.628916    54A     -0.618185
      55A     -0.609108    56A     -0.606783    57A     -0.587696
      58A     -0.578358    59A     -0.566826    60A     -0.564910
      61A     -0.553322    62A     -0.552341    63A     -0.545090
      64A     -0.535277    65A     -0.527264    66A     -0.524986
      67A     -0.517309    68A     -0.509418    69A     -0.495105
      70A     -0.490050    71A     -0.473555    72A     -0.466901
      73A     -0.464893    74A     -0.459025    75A     -0.453504
      76A     -0.442458

  @DF-RHF Final Energy: -1327.83250545829060

   => Energetics <=

    Nuclear Repulsion Energy =           1776.5826282390387405
    One-Electron Energy =               -5365.1191756394882759
    Two-Electron Energy =                2260.7040419421587103
    Total Energy =                      -1327.8325054582905977
  Basis Set: (AUG-CC-PVTZ AUX)
    Blend: AUG-CC-PVTZ-RI
    Molecular point group: c1

    Geometry (in Angstrom), charge = 0, multiplicity = 1:

       Center              X                  Y                   Z               Mass
    ------------   -----------------  -----------------  -----------------  -----------------
         P           -2.281102532577    -0.934965178491     0.348759666874    30.973761998420
         O           -1.135127132577    -0.287933078491     0.868861566874    15.994914619570
         O            1.351243467423    -1.670405178491     1.234932666874    15.994914619570
         O            0.087698467423     2.364681821509     0.466249666874    15.994914619570
         O            3.077508467423    -2.181994178491    -0.804508333126    15.994914619570
         O            2.856328467423     2.508190821509     0.375616666874    15.994914619570
         O            4.204681467423     0.440474821509    -0.968792333126    15.994914619570
         O           -2.817869532577     0.038428821509    -0.803449333126    15.994914619570
         O           -3.250127532577    -0.718204178491     1.625752666874    15.994914619570
         O           -2.109999532577    -2.338566178491    -0.095586333126    15.994914619570
         C            0.127155467423     0.035086821509     0.020400666874    12.000000000000
         C            0.962285467423    -1.239127178491    -0.071643333126    12.000000000000
         C            0.907582467423     1.207721821509     0.568932666874    12.000000000000
         C            2.268653467423    -1.009229178491    -0.813955333126    12.000000000000
         C            2.186068467423     1.401549821509    -0.223959333126    12.000000000000
         C            3.034835467423     0.153782821509    -0.206240333126    12.000000000000
         C           -3.115219532577     1.436675821509    -0.484804333126    12.000000000000
         C           -3.527323532577     2.090242821509    -1.780037333126    12.000000000000
         H           -0.274098532577     0.303878821509    -0.966156333126     1.007825032230
         H            0.379262467423    -2.024286178491    -0.567950333126     1.007825032230
         H            1.166113467423     1.002954821509     1.616237666874     1.007825032230
         H            2.069927467423    -0.783582178491    -1.868674333126     1.007825032230
         H            1.925980467423     1.641364821509    -1.269501333126     1.007825032230
         H            3.304848467423    -0.089454178491     0.831727666874     1.007825032230
         H            0.530768467423    -1.882954178491     1.715591666874     1.007825032230
         H            0.674533467423     3.114388821509     0.687265666874     1.007825032230
         H            2.982536467423    -2.542296178491     0.098735666874     1.007825032230
         H            3.730422467423     2.554263821509    -0.054787333126     1.007825032230
         H            4.648720467423    -0.418756178491    -1.093005333126     1.007825032230
         H           -3.799401532577    -1.517260178491     1.738809666874     1.007825032230
         H           -3.921552532577     1.450618821509     0.253467666874     1.007825032230
         H           -2.220768532577     1.897957821509    -0.055014333126     1.007825032230
         H           -3.791527532577     3.135959821509    -1.598589333126     1.007825032230
         H           -2.708202532577     2.058400821509    -2.500793333126     1.007825032230
         H           -4.391950532577     1.579400821509    -2.208642333126     1.007825032230

  Basis Set: AUG-CC-PVTZ
    Blend: AUG-CC-PVTZ
  Basis Set: (AUG-CC-PVTZ AUX)
    Blend: AUG-CC-PVTZ-JKFIT
	 Reference Energy          =   -1327.8325054582905977 [Eh]
	 Singles Energy            =      -0.0000000000000000 [Eh]
	 Same-Spin Energy          =      -1.0118411242320959 [Eh]
	 Opposite-Spin Energy      =      -3.0698503191357136 [Eh]
	 Correlation Energy        =      -4.0816914433678093 [Eh]
	 Total Energy              =   -1331.9141969016584426 [Eh]

	 ================> DF-SCS-MP2 Energies <==================
	-----------------------------------------------------------
	 SCS Same-Spin Scale       =       0.3333333333333333 [-]
	 SCS Opposite-Spin Scale   =       1.2000000000000000 [-]
	 SCS Same-Spin Energy      =      -0.3372803747440319 [Eh]
	 SCS Opposite-Spin Energy  =      -3.6838203829628560 [Eh]
	 SCS Correlation Energy    =      -4.0211007577068880 [Eh]
	 SCS Total Energy          =   -1331.8536062159973881 [Eh]
	-----------------------------------------------------------

  Dipole Moment: [D]
     X:     0.6822      Y:     2.3843      Z:     0.8489     Total:     2.6212

*** Psi4 exiting successfully. Buy a developer a beer!
