                               Psi4 1.4a3.dev225

  ==> Input File <==

--------------------------------------------------------------------------
#psi4
#
memory 32 gb

molecule  {
0 1
  P       -2.3219140    -1.0563120    -0.0968450
  O       -1.0285840    -0.5623410     0.7549430
  O        1.3695440    -1.8069540     1.2202350
  O       -0.1592450     2.1412630     0.5207450
  O        3.3269040    -2.0858120    -0.6453880
  O        2.5724350     2.5270130     0.6374560
  O        4.2203020     0.6406430    -0.6358120
  O       -2.8737010     0.2643620    -0.8096810
  O       -3.3065970    -1.3497020     1.1531960
  O       -2.1044560    -2.1814480    -1.0350500
  C        0.1200290    -0.1583450    -0.0432010
  C        1.0387099    -1.3136150    -0.1026595
  C        0.7441670     1.0454510     0.6308160
  C        2.4193320    -0.9866070    -0.7068450
  C        2.0603010     1.3853380    -0.0470020
  C        3.0180900     0.2181970     0.0056710
  C       -3.2473180     1.4231610     0.0025120
  C       -3.2076300     2.6262440    -0.9075720
  H       -0.2047330     0.1313700    -1.0514980
  H        0.5965010    -2.1549610    -0.6866410
  H        0.9371260     0.8063110     1.6860210
  H        2.3054700    -0.7437210    -1.7704410
  H        1.8633300     1.6367370    -1.1028410
  H        3.2142070    -0.0417910     1.0561650
  H        0.5126160    -2.0057500     1.6426110
  H        0.3598300     2.9232990     0.7925780
  H        3.1793900    -2.4823080     0.2360710
  H        3.4672560     2.6739710     0.2770410
  H        4.7639490    -0.1654590    -0.7244900
  H       -3.7873380    -2.1826420     0.9908450
  H       -4.2474700     1.2335250     0.4005830
  H       -2.5352900     1.5309660     0.8217280
  H       -3.5402110     3.5125760    -0.3587690
  H       -2.1856630     2.7912820    -1.2511950
  H       -3.8637180     2.4807570    -1.7684970
units angstrom
no_reorient  #important for SAPT in psi4, default
symmetry c1  #important for SAPT in psi4, default
}

set PROPERTIES_ORIGIN ["COM"]
properties('MP2/aug-cc-pvtz', properties = ['dipole'])
--------------------------------------------------------------------------

    Molecular point group: c1
  Charge       = 0
  Multiplicity = 1
  Basis Set: AUG-CC-PVTZ
    Blend: AUG-CC-PVTZ
  Basis Set: (AUG-CC-PVTZ AUX)
    Blend: AUG-CC-PVTZ-JKFIT

    Orbital Energies [Eh]
    ---------------------

    Doubly Occupied:

       1A    -80.117194     2A    -20.615249     3A    -20.608680
       4A    -20.596457     5A    -20.582758     6A    -20.578801
       7A    -20.576331     8A    -20.575309     9A    -20.574760
      10A    -20.522691    11A    -11.321158    12A    -11.305532
      13A    -11.301652    14A    -11.301475    15A    -11.298755
      16A    -11.296508    17A    -11.292469    18A    -11.223230
      19A     -7.632459    20A     -5.530994    21A     -5.530493
      22A     -5.529424    23A     -1.459269    24A     -1.409960
      25A     -1.395408    26A     -1.391700    27A     -1.385560
      28A     -1.371513    29A     -1.363373    30A     -1.353754
      31A     -1.302915    32A     -1.123086    33A     -1.035956
      34A     -1.016697    35A     -1.001641    36A     -0.876640
      37A     -0.862634    38A     -0.861600    39A     -0.823533
      40A     -0.809465    41A     -0.755881    42A     -0.745680
      43A     -0.728567    44A     -0.726160    45A     -0.706602
      46A     -0.686814    47A     -0.678682    48A     -0.672275
      49A     -0.661843    50A     -0.659261    51A     -0.643505
      52A     -0.637403    53A     -0.622569    54A     -0.612888
      55A     -0.604706    56A     -0.596513    57A     -0.581767
      58A     -0.577194    59A     -0.570946    60A     -0.559924
      61A     -0.555731    62A     -0.548059    63A     -0.538025
      64A     -0.537514    65A     -0.528145    66A     -0.517673
      67A     -0.509684    68A     -0.502869    69A     -0.494122
      70A     -0.489691    71A     -0.480503    72A     -0.476009
      73A     -0.464042    74A     -0.457380    75A     -0.453449
      76A     -0.434507

  @DF-RHF Final Energy: -1327.85717827327767

   => Energetics <=

    Nuclear Repulsion Energy =           1775.3098756974029584
    One-Electron Energy =               -5362.7867719646565092
    Two-Electron Energy =                2259.6197179939754278
    Total Energy =                      -1327.8571782732778956
  Basis Set: (AUG-CC-PVTZ AUX)
    Blend: AUG-CC-PVTZ-RI
    Molecular point group: c1

    Geometry (in Angstrom), charge = 0, multiplicity = 1:

       Center              X                  Y                   Z               Mass
    ------------   -----------------  -----------------  -----------------  -----------------
         P           -2.309857262362    -1.020161887684    -0.099373314052    30.973761998420
         O           -1.016527262362    -0.526190887684     0.752414685948    15.994914619570
         O            1.381600737638    -1.770803887684     1.217706685948    15.994914619570
         O           -0.147188262362     2.177413112316     0.518216685948    15.994914619570
         O            3.338960737638    -2.049661887684    -0.647916314052    15.994914619570
         O            2.584491737638     2.563163112316     0.634927685948    15.994914619570
         O            4.232358737638     0.676793112316    -0.638340314052    15.994914619570
         O           -2.861644262362     0.300512112316    -0.812209314052    15.994914619570
         O           -3.294540262362    -1.313551887684     1.150667685948    15.994914619570
         O           -2.092399262362    -2.145297887684    -1.037578314052    15.994914619570
         C            0.132085737638    -0.122194887684    -0.045729314052    12.000000000000
         C            1.050766637638    -1.277464887684    -0.105187814052    12.000000000000
         C            0.756223737638     1.081601112316     0.628287685948    12.000000000000
         C            2.431388737638    -0.950456887684    -0.709373314052    12.000000000000
         C            2.072357737638     1.421488112316    -0.049530314052    12.000000000000
         C            3.030146737638     0.254347112316     0.003142685948    12.000000000000
         C           -3.235261262362     1.459311112316    -0.000016314052    12.000000000000
         C           -3.195573262362     2.662394112316    -0.910100314052    12.000000000000
         H           -0.192676262362     0.167520112316    -1.054026314052     1.007825032230
         H            0.608557737638    -2.118810887684    -0.689169314052     1.007825032230
         H            0.949182737638     0.842461112316     1.683492685948     1.007825032230
         H            2.317526737638    -0.707570887684    -1.772969314052     1.007825032230
         H            1.875386737638     1.672887112316    -1.105369314052     1.007825032230
         H            3.226263737638    -0.005640887684     1.053636685948     1.007825032230
         H            0.524672737638    -1.969599887684     1.640082685948     1.007825032230
         H            0.371886737638     2.959449112316     0.790049685948     1.007825032230
         H            3.191446737638    -2.446157887684     0.233542685948     1.007825032230
         H            3.479312737638     2.710121112316     0.274512685948     1.007825032230
         H            4.776005737638    -0.129308887684    -0.727018314052     1.007825032230
         H           -3.775281262362    -2.146491887684     0.988316685948     1.007825032230
         H           -4.235413262362     1.269675112316     0.398054685948     1.007825032230
         H           -2.523233262362     1.567116112316     0.819199685948     1.007825032230
         H           -3.528154262362     3.548726112316    -0.361297314052     1.007825032230
         H           -2.173606262362     2.827432112316    -1.253723314052     1.007825032230
         H           -3.851661262362     2.516907112316    -1.771025314052     1.007825032230

  Basis Set: AUG-CC-PVTZ
    Blend: AUG-CC-PVTZ
  Basis Set: (AUG-CC-PVTZ AUX)
    Blend: AUG-CC-PVTZ-JKFIT
	 Reference Energy          =   -1327.8571782732776683 [Eh]
	 Singles Energy            =      -0.0000000000000000 [Eh]
	 Same-Spin Energy          =      -1.0151982170250660 [Eh]
	 Opposite-Spin Energy      =      -3.0774788690289805 [Eh]
	 Correlation Energy        =      -4.0926770860540467 [Eh]
	 Total Energy              =   -1331.9498553593316501 [Eh]

	 ================> DF-SCS-MP2 Energies <==================
	-----------------------------------------------------------
	 SCS Same-Spin Scale       =       0.3333333333333333 [-]
	 SCS Opposite-Spin Scale   =       1.2000000000000000 [-]
	 SCS Same-Spin Energy      =      -0.3383994056750220 [Eh]
	 SCS Opposite-Spin Energy  =      -3.6929746428347765 [Eh]
	 SCS Correlation Energy    =      -4.0313740485097984 [Eh]
	 SCS Total Energy          =   -1331.8885523217875289 [Eh]
	-----------------------------------------------------------

  Dipole Moment: [D]
     X:    -0.8894      Y:     1.4662      Z:     1.8559     Total:     2.5269

*** Psi4 exiting successfully. Buy a developer a beer!
