                               Psi4 1.3.2 release

  ==> Input File <==

--------------------------------------------------------------------------
#psi4
#
memory 32 gb

molecule  {
0 1
  P       -2.2900960    -0.9400430     0.3446780
  O       -0.9821530    -0.2015620     0.9382890
  O        1.3422500    -1.6754830     1.2308510
  O        0.0787050     2.3596040     0.4621680
  O        3.0685150    -2.1870720    -0.8085900
  O        2.8473350     2.5031130     0.3715350
  O        4.1956880     0.4353970    -0.9728740
  O       -2.8268630     0.0333510    -0.8075310
  O       -3.2591210    -0.7232820     1.6216710
  O       -2.1189930    -2.3436440    -0.0996680
  C        0.1181620     0.0300090     0.0163190
  C        0.9532920    -1.2442050    -0.0757250
  C        0.9060851     1.1778772     0.5704416
  C        2.2596600    -1.0143070    -0.8180370
  C        2.1770750     1.3964720    -0.2280410
  C        3.0076518     0.1368209    -0.1954332
  C       -3.1242130     1.4315980    -0.4888860
  C       -3.5363170     2.0851650    -1.7841190
  H       -0.2830920     0.2988010    -0.9702380
  H        0.3702690    -2.0293640    -0.5720320
  H        1.1571200     0.9978770     1.6121560
  H        2.0609340    -0.7886600    -1.8727560
  H        1.9169870     1.6362870    -1.2735830
  H        3.2958550    -0.0945320     0.8276460
  H        0.5217750    -1.8880320     1.7115100
  H        0.6655400     3.1093110     0.6831840
  H        2.9735430    -2.5473740     0.0946540
  H        3.7214290     2.5491860    -0.0588690
  H        4.6397270    -0.4238340    -1.0970870
  H       -3.8083950    -1.5223380     1.7347280
  H       -3.9305460     1.4455410     0.2493860
  H       -2.2297620     1.8928800    -0.0590960
  H       -3.8005210     3.1308820    -1.6026710
  H       -2.7171960     2.0533230    -2.5048750
  H       -4.4009440     1.5743230    -2.2127240
units angstrom
no_reorient  #important for SAPT in psi4, default
symmetry c1  #important for SAPT in psi4, default
}

set PROPERTIES_ORIGIN ["COM"]
properties('MP2/aug-cc-pvtz', properties = ['dipole'])
--------------------------------------------------------------------------

    Molecular point group: c1
  Charge       = 0
  Multiplicity = 1
  Basis Set: AUG-CC-PVTZ
    Blend: AUG-CC-PVTZ
  Basis Set: (AUG-CC-PVTZ AUX)
    Blend: AUG-CC-PVTZ-JKFIT

    Orbital Energies [Eh]
    ---------------------

    Doubly Occupied:

       1A    -80.117392     2A    -20.615059     3A    -20.607801
       4A    -20.599172     5A    -20.584328     6A    -20.577754
       7A    -20.575380     8A    -20.571473     9A    -20.570452
      10A    -20.523856    11A    -11.321676    12A    -11.304109
      13A    -11.300320    14A    -11.299226    15A    -11.298724
      16A    -11.298055    17A    -11.291406    18A    -11.229767
      19A     -7.632840    20A     -5.531347    21A     -5.530975
      22A     -5.529771    23A     -1.460805    24A     -1.410553
      25A     -1.393014    26A     -1.391368    27A     -1.386900
      28A     -1.369361    29A     -1.359596    30A     -1.349186
      31A     -1.304242    32A     -1.123363    33A     -1.040446
      34A     -1.015087    35A     -1.005465    36A     -0.880861
      37A     -0.865087    38A     -0.859225    39A     -0.822903
      40A     -0.813123    41A     -0.751051    42A     -0.744562
      43A     -0.730872    44A     -0.728933    45A     -0.708958
      46A     -0.684857    47A     -0.678862    48A     -0.673100
      49A     -0.661509    50A     -0.659237    51A     -0.642731
      52A     -0.633013    53A     -0.627597    54A     -0.615796
      55A     -0.603038    56A     -0.597828    57A     -0.580738
      58A     -0.575670    59A     -0.571113    60A     -0.558492
      61A     -0.555412    62A     -0.548227    63A     -0.541315
      64A     -0.535787    65A     -0.529792    66A     -0.522575
      67A     -0.512948    68A     -0.504393    69A     -0.498100
      70A     -0.485981    71A     -0.480156    72A     -0.477039
      73A     -0.464399    74A     -0.457004    75A     -0.451691
      76A     -0.439955

  @DF-RHF Final Energy: -1327.85879532691865

   => Energetics <=

    Nuclear Repulsion Energy =           1772.7951653704501496
    One-Electron Energy =               -5357.7195199778407186
    Two-Electron Energy =                2257.0655592804714615
    Total Energy =                      -1327.8587953269188802
  Basis Set: (AUG-CC-PVTZ AUX)
    Blend: AUG-CC-PVTZ-RI
    Molecular point group: c1

    Geometry (in Angstrom), charge = 0, multiplicity = 1:

       Center              X                  Y                   Z               Mass
    ------------   -----------------  -----------------  -----------------  -----------------
         P           -2.289650474053    -0.938516184978     0.343824863190    30.973761998420
         O           -0.981707474053    -0.200035184978     0.937435863190    15.994914619570
         O            1.342695525947    -1.673956184978     1.229997863190    15.994914619570
         O            0.079150525947     2.361130815022     0.461314863190    15.994914619570
         O            3.068960525947    -2.185545184978    -0.809443136810    15.994914619570
         O            2.847780525947     2.504639815022     0.370681863190    15.994914619570
         O            4.196133525947     0.436923815022    -0.973727136810    15.994914619570
         O           -2.826417474053     0.034877815022    -0.808384136810    15.994914619570
         O           -3.258675474053    -0.721755184978     1.620817863190    15.994914619570
         O           -2.118547474053    -2.342117184978    -0.100521136810    15.994914619570
         C            0.118607525947     0.031535815022     0.015465863190    12.000000000000
         C            0.953737525947    -1.242678184978    -0.076578136810    12.000000000000
         C            0.906530625947     1.179404015022     0.569588463190    12.000000000000
         C            2.260105525947    -1.012780184978    -0.818890136810    12.000000000000
         C            2.177520525947     1.397998815022    -0.228894136810    12.000000000000
         C            3.008097325947     0.138347715022    -0.196286336810    12.000000000000
         C           -3.123767474053     1.433124815022    -0.489739136810    12.000000000000
         C           -3.535871474053     2.086691815022    -1.784972136810    12.000000000000
         H           -0.282646474053     0.300327815022    -0.971091136810     1.007825032230
         H            0.370714525947    -2.027837184978    -0.572885136810     1.007825032230
         H            1.157565525947     0.999403815022     1.611302863190     1.007825032230
         H            2.061379525947    -0.787133184978    -1.873609136810     1.007825032230
         H            1.917432525947     1.637813815022    -1.274436136810     1.007825032230
         H            3.296300525947    -0.093005184978     0.826792863190     1.007825032230
         H            0.522220525947    -1.886505184978     1.710656863190     1.007825032230
         H            0.665985525947     3.110837815022     0.682330863190     1.007825032230
         H            2.973988525947    -2.545847184978     0.093800863190     1.007825032230
         H            3.721874525947     2.550712815022    -0.059722136810     1.007825032230
         H            4.640172525947    -0.422307184978    -1.097940136810     1.007825032230
         H           -3.807949474053    -1.520811184978     1.733874863190     1.007825032230
         H           -3.930100474053     1.447067815022     0.248532863190     1.007825032230
         H           -2.229316474053     1.894406815022    -0.059949136810     1.007825032230
         H           -3.800075474053     3.132408815022    -1.603524136810     1.007825032230
         H           -2.716750474053     2.054849815022    -2.505728136810     1.007825032230
         H           -4.400498474053     1.575849815022    -2.213577136810     1.007825032230

  Basis Set: AUG-CC-PVTZ
    Blend: AUG-CC-PVTZ
  Basis Set: (AUG-CC-PVTZ AUX)
    Blend: AUG-CC-PVTZ-JKFIT
	 Reference Energy          =   -1327.8587953269186528 [Eh]
	 Singles Energy            =      -0.0000000000000000 [Eh]
	 Same-Spin Energy          =      -1.0149042027284330 [Eh]
	 Opposite-Spin Energy      =      -3.0771103272408102 [Eh]
	 Correlation Energy        =      -4.0920145299692434 [Eh]
	 Total Energy              =   -1331.9508098568878722 [Eh]

	 ================> DF-SCS-MP2 Energies <==================
	-----------------------------------------------------------
	 SCS Same-Spin Scale       =       0.3333333333333333 [-]
	 SCS Opposite-Spin Scale   =       1.2000000000000000 [-]
	 SCS Same-Spin Energy      =      -0.3383014009094776 [Eh]
	 SCS Opposite-Spin Energy  =      -3.6925323926889719 [Eh]
	 SCS Correlation Energy    =      -4.0308337935984495 [Eh]
	 SCS Total Energy          =   -1331.8896291205171565 [Eh]
	-----------------------------------------------------------

  Dipole Moment: [D]
     X:    -1.1460      Y:     1.7731      Z:     0.7677     Total:     2.2465

*** Psi4 exiting successfully. Buy a developer a beer!
