                               Psi4 1.3.2 release

  ==> Input File <==

--------------------------------------------------------------------------
#psi4
#
memory 32 gb

molecule  {
0 1
  P       -2.2900960    -0.9400430     0.3446780
  O       -0.9821530    -0.2015620     0.9382890
  O        1.3900295    -1.6714291     1.2170123
  O        0.0787050     2.3596040     0.4621680
  O        3.0685150    -2.1870720    -0.8085900
  O        2.8473350     2.5031130     0.3715350
  O        4.1956880     0.4353970    -0.9728740
  O       -2.8268630     0.0333510    -0.8075310
  O       -3.2591210    -0.7232820     1.6216710
  O       -2.1189930    -2.3436440    -0.0996680
  C        0.1181620     0.0300090     0.0163190
  C        0.9532920    -1.2442050    -0.0757250
  C        0.8985890     1.2026440     0.5648510
  C        2.2859799    -1.0288656    -0.7743304
  C        2.1770750     1.3964720    -0.2280410
  C        3.0258420     0.1487050    -0.2103220
  C       -3.1242130     1.4315980    -0.4888860
  C       -3.5363170     2.0851650    -1.7841190
  H       -0.2830920     0.2988010    -0.9702380
  H        0.3702690    -2.0293640    -0.5720320
  H        1.1571200     0.9978770     1.6121560
  H        2.0609340    -0.7886600    -1.8727560
  H        1.9169870     1.6362870    -1.2735830
  H        3.2958550    -0.0945320     0.8276460
  H        0.5217750    -1.8880320     1.7115100
  H        0.6655400     3.1093110     0.6831840
  H        2.9735430    -2.5473740     0.0946540
  H        3.7214290     2.5491860    -0.0588690
  H        4.6397270    -0.4238340    -1.0970870
  H       -3.8083950    -1.5223380     1.7347280
  H       -3.9305460     1.4455410     0.2493860
  H       -2.2297620     1.8928800    -0.0590960
  H       -3.8005210     3.1308820    -1.6026710
  H       -2.7171960     2.0533230    -2.5048750
  H       -4.4009440     1.5743230    -2.2127240
units angstrom
no_reorient  #important for SAPT in psi4, default
symmetry c1  #important for SAPT in psi4, default
}

set PROPERTIES_ORIGIN ["COM"]
properties('MP2/aug-cc-pvtz', properties = ['dipole'])
--------------------------------------------------------------------------

    Molecular point group: c1
  Charge       = 0
  Multiplicity = 1
  Basis Set: AUG-CC-PVTZ
    Blend: AUG-CC-PVTZ
  Basis Set: (AUG-CC-PVTZ AUX)
    Blend: AUG-CC-PVTZ-JKFIT

    Orbital Energies [Eh]
    ---------------------

    Doubly Occupied:

       1A    -80.117614     2A    -20.615278     3A    -20.608204
       4A    -20.599366     5A    -20.588302     6A    -20.577348
       7A    -20.576828     8A    -20.573669     9A    -20.573528
      10A    -20.524146    11A    -11.321555    12A    -11.302672
      13A    -11.299649    14A    -11.299071    15A    -11.298742
      16A    -11.296866    17A    -11.289638    18A    -11.229976
      19A     -7.633069    20A     -5.531575    21A     -5.531202
      22A     -5.530000    23A     -1.460915    24A     -1.413014
      25A     -1.397203    26A     -1.393675    27A     -1.387349
      28A     -1.371823    29A     -1.364743    30A     -1.354982
      31A     -1.304528    32A     -1.117443    33A     -1.040687
      34A     -1.013240    35A     -1.000363    36A     -0.880903
      37A     -0.865239    38A     -0.857955    39A     -0.822220
      40A     -0.805712    41A     -0.752719    42A     -0.746708
      43A     -0.732057    44A     -0.728471    45A     -0.708298
      46A     -0.687977    47A     -0.674981    48A     -0.673924
      49A     -0.662224    50A     -0.660546    51A     -0.643331
      52A     -0.634702    53A     -0.628764    54A     -0.614901
      55A     -0.603863    56A     -0.598908    57A     -0.581907
      58A     -0.575662    59A     -0.572526    60A     -0.559765
      61A     -0.556009    62A     -0.549655    63A     -0.542099
      64A     -0.536745    65A     -0.528074    66A     -0.519544
      67A     -0.511750    68A     -0.501026    69A     -0.496097
      70A     -0.482969    71A     -0.480407    72A     -0.476940
      73A     -0.462556    74A     -0.456261    75A     -0.450265
      76A     -0.436994

  @DF-RHF Final Energy: -1327.85119307320383

   => Energetics <=

    Nuclear Repulsion Energy =           1772.6475261779212360
    One-Electron Energy =               -5357.3976025457986907
    Two-Electron Energy =                2256.8988832946733964
    Total Energy =                      -1327.8511930732038309
  Basis Set: (AUG-CC-PVTZ AUX)
    Blend: AUG-CC-PVTZ-RI
    Molecular point group: c1

    Geometry (in Angstrom), charge = 0, multiplicity = 1:

       Center              X                  Y                   Z               Mass
    ------------   -----------------  -----------------  -----------------  -----------------
         P           -2.293845408261    -0.939661599881     0.343625677701    30.973761998420
         O           -0.985902408261    -0.201180599881     0.937236677701    15.994914619570
         O            1.386280091739    -1.671047699881     1.215959977701    15.994914619570
         O            0.074955591739     2.359985400119     0.461115677701    15.994914619570
         O            3.064765591739    -2.186690599881    -0.809642322299    15.994914619570
         O            2.843585591739     2.503494400119     0.370482677701    15.994914619570
         O            4.191938591739     0.435778400119    -0.973926322299    15.994914619570
         O           -2.830612408261     0.033732400119    -0.808583322299    15.994914619570
         O           -3.262870408261    -0.722900599881     1.620618677701    15.994914619570
         O           -2.122742408261    -2.343262599881    -0.100720322299    15.994914619570
         C            0.114412591739     0.030390400119     0.015266677701    12.000000000000
         C            0.949542591739    -1.243823599881    -0.076777322299    12.000000000000
         C            0.894839591739     1.203025400119     0.563798677701    12.000000000000
         C            2.282230491739    -1.028484199881    -0.775382722299    12.000000000000
         C            2.173325591739     1.396853400119    -0.229093322299    12.000000000000
         C            3.022092591739     0.149086400119    -0.211374322299    12.000000000000
         C           -3.127962408261     1.431979400119    -0.489938322299    12.000000000000
         C           -3.540066408261     2.085546400119    -1.785171322299    12.000000000000
         H           -0.286841408261     0.299182400119    -0.971290322299     1.007825032230
         H            0.366519591739    -2.028982599881    -0.573084322299     1.007825032230
         H            1.153370591739     0.998258400119     1.611103677701     1.007825032230
         H            2.057184591739    -0.788278599881    -1.873808322299     1.007825032230
         H            1.913237591739     1.636668400119    -1.274635322299     1.007825032230
         H            3.292105591739    -0.094150599881     0.826593677701     1.007825032230
         H            0.518025591739    -1.887650599881     1.710457677701     1.007825032230
         H            0.661790591739     3.109692400119     0.682131677701     1.007825032230
         H            2.969793591739    -2.546992599881     0.093601677701     1.007825032230
         H            3.717679591739     2.549567400119    -0.059921322299     1.007825032230
         H            4.635977591739    -0.423452599881    -1.098139322299     1.007825032230
         H           -3.812144408261    -1.521956599881     1.733675677701     1.007825032230
         H           -3.934295408261     1.445922400119     0.248333677701     1.007825032230
         H           -2.233511408261     1.893261400119    -0.060148322299     1.007825032230
         H           -3.804270408261     3.131263400119    -1.603723322299     1.007825032230
         H           -2.720945408261     2.053704400119    -2.505927322299     1.007825032230
         H           -4.404693408261     1.574704400119    -2.213776322299     1.007825032230

  Basis Set: AUG-CC-PVTZ
    Blend: AUG-CC-PVTZ
  Basis Set: (AUG-CC-PVTZ AUX)
    Blend: AUG-CC-PVTZ-JKFIT
	 Reference Energy          =   -1327.8511930732038309 [Eh]
	 Singles Energy            =      -0.0000000000000000 [Eh]
	 Same-Spin Energy          =      -1.0158883930861602 [Eh]
	 Opposite-Spin Energy      =      -3.0784297305336863 [Eh]
	 Correlation Energy        =      -4.0943181236198463 [Eh]
	 Total Energy              =   -1331.9455111968236452 [Eh]

	 ================> DF-SCS-MP2 Energies <==================
	-----------------------------------------------------------
	 SCS Same-Spin Scale       =       0.3333333333333333 [-]
	 SCS Opposite-Spin Scale   =       1.2000000000000000 [-]
	 SCS Same-Spin Energy      =      -0.3386294643620534 [Eh]
	 SCS Opposite-Spin Energy  =      -3.6941156766404233 [Eh]
	 SCS Correlation Energy    =      -4.0327451410024766 [Eh]
	 SCS Total Energy          =   -1331.8839382142064096 [Eh]
	-----------------------------------------------------------

  Dipole Moment: [D]
     X:    -1.1690      Y:     1.7937      Z:     0.8226     Total:     2.2936

*** Psi4 exiting successfully. Buy a developer a beer!
