                               Psi4 1.3.2 release

  ==> Input File <==

--------------------------------------------------------------------------
#psi4
#
memory 32 gb

molecule  {
0 1
  P       -2.2900960    -0.9400430     0.3446780
  O       -0.9821530    -0.2015620     0.9382890
  O        1.3542416    -1.6745186     1.2275399
  O        0.0787050     2.3596040     0.4621680
  O        3.0685150    -2.1870720    -0.8085900
  O        2.8473350     2.5031130     0.3715350
  O        4.1956880     0.4353970    -0.9728740
  O       -2.8268630     0.0333510    -0.8075310
  O       -3.2591210    -0.7232820     1.6216710
  O       -2.1189930    -2.3436440    -0.0996680
  C        0.1181620     0.0300090     0.0163190
  C        0.9532920    -1.2442050    -0.0757250
  C        0.8985890     1.2026440     0.5648510
  C        2.2663905    -1.0179211    -0.8071931
  C        2.1770750     1.3964720    -0.2280410
  C        3.0258420     0.1487050    -0.2103220
  C       -3.1242130     1.4315980    -0.4888860
  C       -3.5363170     2.0851650    -1.7841190
  H       -0.2830920     0.2988010    -0.9702380
  H        0.3702690    -2.0293640    -0.5720320
  H        1.1571200     0.9978770     1.6121560
  H        2.0609340    -0.7886600    -1.8727560
  H        1.9169870     1.6362870    -1.2735830
  H        3.2958550    -0.0945320     0.8276460
  H        0.5217750    -1.8880320     1.7115100
  H        0.6655400     3.1093110     0.6831840
  H        2.9735430    -2.5473740     0.0946540
  H        3.7214290     2.5491860    -0.0588690
  H        4.6397270    -0.4238340    -1.0970870
  H       -3.8083950    -1.5223380     1.7347280
  H       -3.9305460     1.4455410     0.2493860
  H       -2.2297620     1.8928800    -0.0590960
  H       -3.8005210     3.1308820    -1.6026710
  H       -2.7171960     2.0533230    -2.5048750
  H       -4.4009440     1.5743230    -2.2127240
units angstrom
no_reorient  #important for SAPT in psi4, default
symmetry c1  #important for SAPT in psi4, default
}

set PROPERTIES_ORIGIN ["COM"]
properties('MP2/aug-cc-pvtz', properties = ['dipole'])
--------------------------------------------------------------------------

    Molecular point group: c1
  Charge       = 0
  Multiplicity = 1
  Basis Set: AUG-CC-PVTZ
    Blend: AUG-CC-PVTZ
  Basis Set: (AUG-CC-PVTZ AUX)
    Blend: AUG-CC-PVTZ-JKFIT

    Orbital Energies [Eh]
    ---------------------

    Doubly Occupied:

       1A    -80.117118     2A    -20.614875     3A    -20.607334
       4A    -20.599052     5A    -20.584459     6A    -20.576818
       7A    -20.575295     8A    -20.573997     9A    -20.573495
      10A    -20.523620    11A    -11.320964    12A    -11.303262
      13A    -11.299456    14A    -11.299193    15A    -11.298664
      16A    -11.296745    17A    -11.290955    18A    -11.229897
      19A     -7.632570    20A     -5.531076    21A     -5.530703
      22A     -5.529501    23A     -1.460447    24A     -1.411119
      25A     -1.394812    26A     -1.393578    27A     -1.387000
      28A     -1.372429    29A     -1.364357    30A     -1.354239
      31A     -1.304012    32A     -1.118650    33A     -1.040522
      34A     -1.012308    35A     -1.002672    36A     -0.880427
      37A     -0.864998    38A     -0.858681    39A     -0.822268
      40A     -0.809388    41A     -0.751928    42A     -0.745607
      43A     -0.731600    44A     -0.728563    45A     -0.708032
      46A     -0.687330    47A     -0.677152    48A     -0.673910
      49A     -0.662195    50A     -0.661137    51A     -0.643179
      52A     -0.634900    53A     -0.627655    54A     -0.615236
      55A     -0.603640    56A     -0.598481    57A     -0.581722
      58A     -0.575551    59A     -0.571536    60A     -0.559440
      61A     -0.556341    62A     -0.548770    63A     -0.541329
      64A     -0.536500    65A     -0.529203    66A     -0.521289
      67A     -0.512928    68A     -0.503664    69A     -0.497083
      70A     -0.484708    71A     -0.479990    72A     -0.476752
      73A     -0.462446    74A     -0.455940    75A     -0.450163
      76A     -0.436627

  @DF-RHF Final Energy: -1327.86001205232265

   => Energetics <=

    Nuclear Repulsion Energy =           1772.4898160816376276
    One-Electron Energy =               -5357.1126957610422323
    Two-Electron Energy =                2256.7628676270819597
    Total Energy =                      -1327.8600120523228725
  Basis Set: (AUG-CC-PVTZ AUX)
    Blend: AUG-CC-PVTZ-RI
    Molecular point group: c1

    Geometry (in Angstrom), charge = 0, multiplicity = 1:

       Center              X                  Y                   Z               Mass
    ------------   -----------------  -----------------  -----------------  -----------------
         P           -2.291042192445    -0.939945976128     0.344410109894    30.973761998420
         O           -0.983099192445    -0.201464976128     0.938021109894    15.994914619570
         O            1.353295407555    -1.674421576128     1.227272009894    15.994914619570
         O            0.077758807555     2.359701023872     0.461900109894    15.994914619570
         O            3.067568807555    -2.186974976128    -0.808857890106    15.994914619570
         O            2.846388807555     2.503210023872     0.371267109894    15.994914619570
         O            4.194741807555     0.435494023872    -0.973141890106    15.994914619570
         O           -2.827809192445     0.033448023872    -0.807798890106    15.994914619570
         O           -3.260067192445    -0.723184976128     1.621403109894    15.994914619570
         O           -2.119939192445    -2.343546976128    -0.099935890106    15.994914619570
         C            0.117215807555     0.030106023872     0.016051109894    12.000000000000
         C            0.952345807555    -1.244107976128    -0.075992890106    12.000000000000
         C            0.897642807555     1.202741023872     0.564583109894    12.000000000000
         C            2.265444307555    -1.017824076128    -0.807460990106    12.000000000000
         C            2.176128807555     1.396569023872    -0.228308890106    12.000000000000
         C            3.024895807555     0.148802023872    -0.210589890106    12.000000000000
         C           -3.125159192445     1.431695023872    -0.489153890106    12.000000000000
         C           -3.537263192445     2.085262023872    -1.784386890106    12.000000000000
         H           -0.284038192445     0.298898023872    -0.970505890106     1.007825032230
         H            0.369322807555    -2.029266976128    -0.572299890106     1.007825032230
         H            1.156173807555     0.997974023872     1.611888109894     1.007825032230
         H            2.059987807555    -0.788562976128    -1.873023890106     1.007825032230
         H            1.916040807555     1.636384023872    -1.273850890106     1.007825032230
         H            3.294908807555    -0.094434976128     0.827378109894     1.007825032230
         H            0.520828807555    -1.887934976128     1.711242109894     1.007825032230
         H            0.664593807555     3.109408023872     0.682916109894     1.007825032230
         H            2.972596807555    -2.547276976128     0.094386109894     1.007825032230
         H            3.720482807555     2.549283023872    -0.059136890106     1.007825032230
         H            4.638780807555    -0.423736976128    -1.097354890106     1.007825032230
         H           -3.809341192445    -1.522240976128     1.734460109894     1.007825032230
         H           -3.931492192445     1.445638023872     0.249118109894     1.007825032230
         H           -2.230708192445     1.892977023872    -0.059363890106     1.007825032230
         H           -3.801467192445     3.130979023872    -1.602938890106     1.007825032230
         H           -2.718142192445     2.053420023872    -2.505142890106     1.007825032230
         H           -4.401890192445     1.574420023872    -2.212991890106     1.007825032230

  Basis Set: AUG-CC-PVTZ
    Blend: AUG-CC-PVTZ
  Basis Set: (AUG-CC-PVTZ AUX)
    Blend: AUG-CC-PVTZ-JKFIT
	 Reference Energy          =   -1327.8600120523226451 [Eh]
	 Singles Energy            =      -0.0000000000000000 [Eh]
	 Same-Spin Energy          =      -1.0148992487772310 [Eh]
	 Opposite-Spin Energy      =      -3.0766110000673206 [Eh]
	 Correlation Energy        =      -4.0915102488445516 [Eh]
	 Total Energy              =   -1331.9515223011671878 [Eh]

	 ================> DF-SCS-MP2 Energies <==================
	-----------------------------------------------------------
	 SCS Same-Spin Scale       =       0.3333333333333333 [-]
	 SCS Opposite-Spin Scale   =       1.2000000000000000 [-]
	 SCS Same-Spin Energy      =      -0.3382997495924103 [Eh]
	 SCS Opposite-Spin Energy  =      -3.6919332000807845 [Eh]
	 SCS Correlation Energy    =      -4.0302329496731950 [Eh]
	 SCS Total Energy          =   -1331.8902450019959360 [Eh]
	-----------------------------------------------------------

  Dipole Moment: [D]
     X:    -1.1277      Y:     1.8454      Z:     0.7458     Total:     2.2877

*** Psi4 exiting successfully. Buy a developer a beer!
