                               Psi4 1.3.2 release

  ==> Input File <==

--------------------------------------------------------------------------
#psi4
#
memory 32 gb

molecule  {
0 1
  P       -2.2775632    -0.9414379     0.3194681
  O       -0.9821530    -0.2015620     0.9382890
  O        1.3422500    -1.6754830     1.2308510
  O        0.0787050     2.3596040     0.4621680
  O        3.0685150    -2.1870720    -0.8085900
  O        2.8473350     2.5031130     0.3715350
  O        4.1956880     0.4353970    -0.9728740
  O       -2.8268630     0.0333510    -0.8075310
  O       -3.2591210    -0.7232820     1.6216710
  O       -2.1189930    -2.3436440    -0.0996680
  C        0.1046939     0.0190124    -0.0021671
  C        0.9532920    -1.2442050    -0.0757250
  C        0.8985890     1.2026440     0.5648510
  C        2.2596600    -1.0143070    -0.8180370
  C        2.1770750     1.3964720    -0.2280410
  C        3.0258420     0.1487050    -0.2103220
  C       -3.1242130     1.4315980    -0.4888860
  C       -3.5363170     2.0851650    -1.7841190
  H       -0.2830920     0.2988010    -0.9702380
  H        0.3702690    -2.0293640    -0.5720320
  H        1.1571200     0.9978770     1.6121560
  H        2.0609340    -0.7886600    -1.8727560
  H        1.9169870     1.6362870    -1.2735830
  H        3.2958550    -0.0945320     0.8276460
  H        0.5217750    -1.8880320     1.7115100
  H        0.6655400     3.1093110     0.6831840
  H        2.9735430    -2.5473740     0.0946540
  H        3.7214290     2.5491860    -0.0588690
  H        4.6397270    -0.4238340    -1.0970870
  H       -3.8083950    -1.5223380     1.7347280
  H       -3.9305460     1.4455410     0.2493860
  H       -2.2297620     1.8928800    -0.0590960
  H       -3.8005210     3.1308820    -1.6026710
  H       -2.7171960     2.0533230    -2.5048750
  H       -4.4009440     1.5743230    -2.2127240
units angstrom
no_reorient  #important for SAPT in psi4, default
symmetry c1  #important for SAPT in psi4, default
}

set PROPERTIES_ORIGIN ["COM"]
properties('MP2/aug-cc-pvtz', properties = ['dipole'])
--------------------------------------------------------------------------

    Molecular point group: c1
  Charge       = 0
  Multiplicity = 1
  Basis Set: AUG-CC-PVTZ
    Blend: AUG-CC-PVTZ
  Basis Set: (AUG-CC-PVTZ AUX)
    Blend: AUG-CC-PVTZ-JKFIT

    Orbital Energies [Eh]
    ---------------------

    Doubly Occupied:

       1A    -80.116109     2A    -20.609032     3A    -20.606639
       4A    -20.601936     5A    -20.584209     6A    -20.576845
       7A    -20.575064     8A    -20.574352     9A    -20.573576
      10A    -20.525480    11A    -11.320790    12A    -11.304158
      13A    -11.301411    14A    -11.300037    15A    -11.299734
      16A    -11.296550    17A    -11.291706    18A    -11.231149
      19A     -7.631857    20A     -5.530286    21A     -5.529954
      22A     -5.528851    23A     -1.459607    24A     -1.410617
      25A     -1.394917    26A     -1.393021    27A     -1.382194
      28A     -1.372732    29A     -1.364203    30A     -1.354089
      31A     -1.309634    32A     -1.118096    33A     -1.042933
      34A     -1.012341    35A     -1.002559    36A     -0.879878
      37A     -0.867085    38A     -0.858930    39A     -0.819164
      40A     -0.812653    41A     -0.751735    42A     -0.745521
      43A     -0.730768    44A     -0.729473    45A     -0.705566
      46A     -0.687721    47A     -0.678466    48A     -0.673571
      49A     -0.661895    50A     -0.658356    51A     -0.642171
      52A     -0.635338    53A     -0.627759    54A     -0.616853
      55A     -0.603463    56A     -0.598416    57A     -0.581744
      58A     -0.573422    59A     -0.571426    60A     -0.560108
      61A     -0.557038    62A     -0.550140    63A     -0.541362
      64A     -0.536780    65A     -0.531170    66A     -0.521853
      67A     -0.514320    68A     -0.505547    69A     -0.497819
      70A     -0.487473    71A     -0.482556    72A     -0.479466
      73A     -0.462732    74A     -0.456104    75A     -0.450242
      76A     -0.436390

  @DF-RHF Final Energy: -1327.85972023768954

   => Energetics <=

    Nuclear Repulsion Energy =           1772.7581635024314437
    One-Electron Energy =               -5357.6174813151392300
    Two-Electron Energy =                2256.9995975750180150
    Total Energy =                      -1327.8597202376895439
  Basis Set: (AUG-CC-PVTZ AUX)
    Blend: AUG-CC-PVTZ-RI
    Molecular point group: c1

    Geometry (in Angstrom), charge = 0, multiplicity = 1:

       Center              X                  Y                   Z               Mass
    ------------   -----------------  -----------------  -----------------  -----------------
         P           -2.278349704564    -0.940829801090     0.322948876354    30.973761998420
         O           -0.982939504564    -0.200953901090     0.941769776354    15.994914619570
         O            1.341463495436    -1.674874901090     1.234331776354    15.994914619570
         O            0.077918495436     2.360212098910     0.465648776354    15.994914619570
         O            3.067728495436    -2.186463901090    -0.805109223646    15.994914619570
         O            2.846548495436     2.503721098910     0.375015776354    15.994914619570
         O            4.194901495436     0.436005098910    -0.969393223646    15.994914619570
         O           -2.827649504564     0.033959098910    -0.804050223646    15.994914619570
         O           -3.259907504564    -0.722673901090     1.625151776354    15.994914619570
         O           -2.119779504564    -2.343035901090    -0.096187223646    15.994914619570
         C            0.103907395436     0.019620498910     0.001313676354    12.000000000000
         C            0.952505495436    -1.243596901090    -0.072244223646    12.000000000000
         C            0.897802495436     1.203252098910     0.568331776354    12.000000000000
         C            2.258873495436    -1.013698901090    -0.814556223646    12.000000000000
         C            2.176288495436     1.397080098910    -0.224560223646    12.000000000000
         C            3.025055495436     0.149313098910    -0.206841223646    12.000000000000
         C           -3.124999504564     1.432206098910    -0.485405223646    12.000000000000
         C           -3.537103504564     2.085773098910    -1.780638223646    12.000000000000
         H           -0.283878504564     0.299409098910    -0.966757223646     1.007825032230
         H            0.369482495436    -2.028755901090    -0.568551223646     1.007825032230
         H            1.156333495436     0.998485098910     1.615636776354     1.007825032230
         H            2.060147495436    -0.788051901090    -1.869275223646     1.007825032230
         H            1.916200495436     1.636895098910    -1.270102223646     1.007825032230
         H            3.295068495436    -0.093923901090     0.831126776354     1.007825032230
         H            0.520988495436    -1.887423901090     1.714990776354     1.007825032230
         H            0.664753495436     3.109919098910     0.686664776354     1.007825032230
         H            2.972756495436    -2.546765901090     0.098134776354     1.007825032230
         H            3.720642495436     2.549794098910    -0.055388223646     1.007825032230
         H            4.638940495436    -0.423225901090    -1.093606223646     1.007825032230
         H           -3.809181504564    -1.521729901090     1.738208776354     1.007825032230
         H           -3.931332504564     1.446149098910     0.252866776354     1.007825032230
         H           -2.230548504564     1.893488098910    -0.055615223646     1.007825032230
         H           -3.801307504564     3.131490098910    -1.599190223646     1.007825032230
         H           -2.717982504564     2.053931098910    -2.501394223646     1.007825032230
         H           -4.401730504564     1.574931098910    -2.209243223646     1.007825032230

  Basis Set: AUG-CC-PVTZ
    Blend: AUG-CC-PVTZ
  Basis Set: (AUG-CC-PVTZ AUX)
    Blend: AUG-CC-PVTZ-JKFIT
	 Reference Energy          =   -1327.8597202376895439 [Eh]
	 Singles Energy            =      -0.0000000000000000 [Eh]
	 Same-Spin Energy          =      -1.0145196595947743 [Eh]
	 Opposite-Spin Energy      =      -3.0762167310761916 [Eh]
	 Correlation Energy        =      -4.0907363906709655 [Eh]
	 Total Energy              =   -1331.9504566283605982 [Eh]

	 ================> DF-SCS-MP2 Energies <==================
	-----------------------------------------------------------
	 SCS Same-Spin Scale       =       0.3333333333333333 [-]
	 SCS Opposite-Spin Scale   =       1.2000000000000000 [-]
	 SCS Same-Spin Energy      =      -0.3381732198649248 [Eh]
	 SCS Opposite-Spin Energy  =      -3.6914600772914299 [Eh]
	 SCS Correlation Energy    =      -4.0296332971563551 [Eh]
	 SCS Total Energy          =   -1331.8893535348458954 [Eh]
	-----------------------------------------------------------

  Dipole Moment: [D]
     X:    -1.0097      Y:     1.8897      Z:     0.4720     Total:     2.1939

*** Psi4 exiting successfully. Buy a developer a beer!
