                               Psi4 1.3.2 release

  ==> Input File <==

--------------------------------------------------------------------------
#psi4
#
memory 32 gb

molecule  {
0 1
  P       -2.2900960    -0.9400430     0.3446780
  O       -0.9821530    -0.2015620     0.9382890
  O        1.3422500    -1.6754830     1.2308510
  O        0.0787050     2.3596040     0.4621680
  O        3.0685150    -2.1870720    -0.8085900
  O        2.8473350     2.5031130     0.3715350
  O        4.1956880     0.4353970    -0.9728740
  O       -2.8268630     0.0333510    -0.8075310
  O       -3.2591210    -0.7232820     1.6216710
  O       -2.1189930    -2.3436440    -0.0996680
  C        0.1181620     0.0300090     0.0163190
  C        0.9532920    -1.2442050    -0.0757250
  C        0.8985890     1.2026440     0.5648510
  C        2.2596600    -1.0143070    -0.8180370
  C        2.1770750     1.3964720    -0.2280410
  C        3.0258420     0.1487050    -0.2103220
  C       -3.1242130     1.4315980    -0.4888860
  C       -3.5363170     2.0851650    -1.7841190
  H       -0.2830920     0.2988010    -0.9702380
  H        0.3702690    -2.0293640    -0.5720320
  H        1.1571200     0.9978770     1.6121560
  H        2.0609340    -0.7886600    -1.8727560
  H        1.9169870     1.6362870    -1.2735830
  H        3.2958550    -0.0945320     0.8276460
  H        0.5217750    -1.8880320     1.7115100
  H        0.6655400     3.1093110     0.6831840
  H        2.9735430    -2.5473740     0.0946540
  H        3.7214290     2.5491860    -0.0588690
  H        4.7307998    -0.6000631    -1.1225632
  H       -3.8083950    -1.5223380     1.7347280
  H       -3.9305460     1.4455410     0.2493860
  H       -2.2297620     1.8928800    -0.0590960
  H       -3.8005210     3.1308820    -1.6026710
  H       -2.7171960     2.0533230    -2.5048750
  H       -4.4009440     1.5743230    -2.2127240
units angstrom
no_reorient  #important for SAPT in psi4, default
symmetry c1  #important for SAPT in psi4, default
}

set PROPERTIES_ORIGIN ["COM"]
properties('MP2/aug-cc-pvtz', properties = ['dipole'])
--------------------------------------------------------------------------

    Molecular point group: c1
  Charge       = 0
  Multiplicity = 1
  Basis Set: AUG-CC-PVTZ
    Blend: AUG-CC-PVTZ
  Basis Set: (AUG-CC-PVTZ AUX)
    Blend: AUG-CC-PVTZ-JKFIT

    Orbital Energies [Eh]
    ---------------------

    Doubly Occupied:

       1A    -80.116651     2A    -20.614483     3A    -20.606631
       4A    -20.598650     5A    -20.584070     6A    -20.582702
       7A    -20.576067     8A    -20.575642     9A    -20.572868
      10A    -20.523168    11A    -11.320240    12A    -11.302923
      13A    -11.299100    14A    -11.298423    15A    -11.297959
      16A    -11.295689    17A    -11.288860    18A    -11.229610
      19A     -7.632100    20A     -5.530607    21A     -5.530233
      22A     -5.529032    23A     -1.459958    24A     -1.409185
      25A     -1.392771    26A     -1.390079    27A     -1.386146
      28A     -1.366241    29A     -1.363223    30A     -1.333037
      31A     -1.303565    32A     -1.116304    33A     -1.040127
      34A     -1.006193    35A     -1.002773    36A     -0.877380
      37A     -0.863822    38A     -0.855318    39A     -0.820568
      40A     -0.809746    41A     -0.750592    42A     -0.739411
      43A     -0.728167    44A     -0.725090    45A     -0.706834
      46A     -0.684295    47A     -0.677351    48A     -0.669691
      49A     -0.660755    50A     -0.650152    51A     -0.640997
      52A     -0.628149    53A     -0.624949    54A     -0.613344
      55A     -0.602018    56A     -0.596371    57A     -0.579627
      58A     -0.575125    59A     -0.569985    60A     -0.558735
      61A     -0.553304    62A     -0.547884    63A     -0.540605
      64A     -0.529430    65A     -0.526169    66A     -0.519694
      67A     -0.512171    68A     -0.502315    69A     -0.496546
      70A     -0.483922    71A     -0.479544    72A     -0.476266
      73A     -0.461757    74A     -0.451867    75A     -0.449181
      76A     -0.434010

  @DF-RHF Final Energy: -1327.82625755360573

   => Energetics <=

    Nuclear Repulsion Energy =           1771.3194226469961450
    One-Electron Energy =               -5354.9944627168861189
    Two-Electron Energy =                2255.8487825162842455
    Total Energy =                      -1327.8262575536059558
  Basis Set: (AUG-CC-PVTZ AUX)
    Blend: AUG-CC-PVTZ-RI
    Molecular point group: c1

    Geometry (in Angstrom), charge = 0, multiplicity = 1:

       Center              X                  Y                   Z               Mass
    ------------   -----------------  -----------------  -----------------  -----------------
         P           -2.290414599127    -0.939426418172     0.344767123108    30.973761998420
         O           -0.982471599127    -0.200945418172     0.938378123108    15.994914619570
         O            1.341931400873    -1.674866418172     1.230940123108    15.994914619570
         O            0.078386400873     2.360220581828     0.462257123108    15.994914619570
         O            3.068196400873    -2.186455418172    -0.808500876892    15.994914619570
         O            2.847016400873     2.503729581828     0.371624123108    15.994914619570
         O            4.195369400873     0.436013581828    -0.972784876892    15.994914619570
         O           -2.827181599127     0.033967581828    -0.807441876892    15.994914619570
         O           -3.259439599127    -0.722665418172     1.621760123108    15.994914619570
         O           -2.119311599127    -2.343027418172    -0.099578876892    15.994914619570
         C            0.117843400873     0.030625581828     0.016408123108    12.000000000000
         C            0.952973400873    -1.243588418172    -0.075635876892    12.000000000000
         C            0.898270400873     1.203260581828     0.564940123108    12.000000000000
         C            2.259341400873    -1.013690418172    -0.817947876892    12.000000000000
         C            2.176756400873     1.397088581828    -0.227951876892    12.000000000000
         C            3.025523400873     0.149321581828    -0.210232876892    12.000000000000
         C           -3.124531599127     1.432214581828    -0.488796876892    12.000000000000
         C           -3.536635599127     2.085781581828    -1.784029876892    12.000000000000
         H           -0.283410599127     0.299417581828    -0.970148876892     1.007825032230
         H            0.369950400873    -2.028747418172    -0.571942876892     1.007825032230
         H            1.156801400873     0.998493581828     1.612245123108     1.007825032230
         H            2.060615400873    -0.788043418172    -1.872666876892     1.007825032230
         H            1.916668400873     1.636903581828    -1.273493876892     1.007825032230
         H            3.295536400873    -0.093915418172     0.827735123108     1.007825032230
         H            0.521456400873    -1.887415418172     1.711599123108     1.007825032230
         H            0.665221400873     3.109927581828     0.683273123108     1.007825032230
         H            2.973224400873    -2.546757418172     0.094743123108     1.007825032230
         H            3.721110400873     2.549802581828    -0.058779876892     1.007825032230
         H            4.730481200873    -0.599446518172    -1.122474076892     1.007825032230
         H           -3.808713599127    -1.521721418172     1.734817123108     1.007825032230
         H           -3.930864599127     1.446157581828     0.249475123108     1.007825032230
         H           -2.230080599127     1.893496581828    -0.059006876892     1.007825032230
         H           -3.800839599127     3.131498581828    -1.602581876892     1.007825032230
         H           -2.717514599127     2.053939581828    -2.504785876892     1.007825032230
         H           -4.401262599127     1.574939581828    -2.212634876892     1.007825032230

  Basis Set: AUG-CC-PVTZ
    Blend: AUG-CC-PVTZ
  Basis Set: (AUG-CC-PVTZ AUX)
    Blend: AUG-CC-PVTZ-JKFIT
	 Reference Energy          =   -1327.8262575536057284 [Eh]
	 Singles Energy            =      -0.0000000000000000 [Eh]
	 Same-Spin Energy          =      -1.0171869705810352 [Eh]
	 Opposite-Spin Energy      =      -3.0829233144810551 [Eh]
	 Correlation Energy        =      -4.1001102850620903 [Eh]
	 Total Energy              =   -1331.9263678386678293 [Eh]

	 ================> DF-SCS-MP2 Energies <==================
	-----------------------------------------------------------
	 SCS Same-Spin Scale       =       0.3333333333333333 [-]
	 SCS Opposite-Spin Scale   =       1.2000000000000000 [-]
	 SCS Same-Spin Energy      =      -0.3390623235270117 [Eh]
	 SCS Opposite-Spin Energy  =      -3.6995079773772659 [Eh]
	 SCS Correlation Energy    =      -4.0385703009042775 [Eh]
	 SCS Total Energy          =   -1331.8648278545099402 [Eh]
	-----------------------------------------------------------

  Dipole Moment: [D]
     X:    -1.0194      Y:     1.6710      Z:     0.6825     Total:     2.0730

*** Psi4 exiting successfully. Buy a developer a beer!
