                               Psi4 1.3.2 release

  ==> Input File <==

--------------------------------------------------------------------------
#psi4
#
memory 32 gb

molecule  {
0 1
  P       -2.2900960    -0.9400430     0.3446780
  O       -0.9821530    -0.2015620     0.9382890
  O        1.3422500    -1.6754830     1.2308510
  O        0.0787050     2.3596040     0.4621680
  O        3.0685150    -2.1870720    -0.8085900
  O        2.8473350     2.5031130     0.3715350
  O        4.1835971     0.3982954    -1.0037483
  O       -2.8268630     0.0333510    -0.8075310
  O       -3.2591210    -0.7232820     1.6216710
  O       -2.1189930    -2.3436440    -0.0996680
  C        0.1181620     0.0300090     0.0163190
  C        0.9532920    -1.2442050    -0.0757250
  C        0.8985890     1.2026440     0.5648510
  C        2.2965400    -1.0175481    -0.8560167
  C        2.1770750     1.3964720    -0.2280410
  C        3.0258420     0.1487050    -0.2103220
  C       -3.1242130     1.4315980    -0.4888860
  C       -3.5363170     2.0851650    -1.7841190
  H       -0.2830920     0.2988010    -0.9702380
  H        0.3702690    -2.0293640    -0.5720320
  H        1.1571200     0.9978770     1.6121560
  H        2.0609340    -0.7886600    -1.8727560
  H        1.9169870     1.6362870    -1.2735830
  H        3.2958550    -0.0945320     0.8276460
  H        0.5217750    -1.8880320     1.7115100
  H        0.6655400     3.1093110     0.6831840
  H        2.9735430    -2.5473740     0.0946540
  H        3.7214290     2.5491860    -0.0588690
  H        4.6397270    -0.4238340    -1.0970870
  H       -3.8083950    -1.5223380     1.7347280
  H       -3.9305460     1.4455410     0.2493860
  H       -2.2297620     1.8928800    -0.0590960
  H       -3.8005210     3.1308820    -1.6026710
  H       -2.7171960     2.0533230    -2.5048750
  H       -4.4009440     1.5743230    -2.2127240
units angstrom
no_reorient  #important for SAPT in psi4, default
symmetry c1  #important for SAPT in psi4, default
}

set PROPERTIES_ORIGIN ["COM"]
properties('MP2/aug-cc-pvtz', properties = ['dipole'])
--------------------------------------------------------------------------

    Molecular point group: c1
  Charge       = 0
  Multiplicity = 1
  Basis Set: AUG-CC-PVTZ
    Blend: AUG-CC-PVTZ
  Basis Set: (AUG-CC-PVTZ AUX)
    Blend: AUG-CC-PVTZ-JKFIT

    Orbital Energies [Eh]
    ---------------------

    Doubly Occupied:

       1A    -80.116174     2A    -20.614128     3A    -20.605898
       4A    -20.598367     5A    -20.582006     6A    -20.578169
       7A    -20.574844     8A    -20.573524     9A    -20.568956
      10A    -20.522580    11A    -11.319272    12A    -11.302045
      13A    -11.298997    14A    -11.298694    15A    -11.297861
      16A    -11.297794    17A    -11.291489    18A    -11.229583
      19A     -7.631621    20A     -5.530128    21A     -5.529755
      22A     -5.528552    23A     -1.459455    24A     -1.411663
      25A     -1.396173    26A     -1.393993    27A     -1.386439
      28A     -1.373837    29A     -1.366153    30A     -1.357035
      31A     -1.302991    32A     -1.115361    33A     -1.040102
      34A     -1.012527    35A     -0.997773    36A     -0.879179
      37A     -0.864240    38A     -0.862180    39A     -0.823072
      40A     -0.810826    41A     -0.750566    42A     -0.745744
      43A     -0.730956    44A     -0.727761    45A     -0.707493
      46A     -0.687270    47A     -0.679920    48A     -0.675056
      49A     -0.668628    50A     -0.661735    51A     -0.642362
      52A     -0.635884    53A     -0.627527    54A     -0.615716
      55A     -0.604849    56A     -0.600581    57A     -0.581551
      58A     -0.575381    59A     -0.569814    60A     -0.560113
      61A     -0.557138    62A     -0.548323    63A     -0.540960
      64A     -0.536790    65A     -0.528795    66A     -0.521267
      67A     -0.512919    68A     -0.502248    69A     -0.496051
      70A     -0.482380    71A     -0.479004    72A     -0.475754
      73A     -0.461353    74A     -0.458052    75A     -0.448484
      76A     -0.430685

  @DF-RHF Final Energy: -1327.86057605848464

   => Energetics <=

    Nuclear Repulsion Energy =           1771.8799569484554013
    One-Electron Energy =               -5355.9359798891682658
    Two-Electron Energy =                2256.1954468822282251
    Total Energy =                      -1327.8605760584846394
  Basis Set: (AUG-CC-PVTZ AUX)
    Blend: AUG-CC-PVTZ-RI
    Molecular point group: c1

    Geometry (in Angstrom), charge = 0, multiplicity = 1:

       Center              X                  Y                   Z               Mass
    ------------   -----------------  -----------------  -----------------  -----------------
         P           -2.290960947397    -0.937847856702     0.347974473561    30.973761998420
         O           -0.983017947397    -0.199366856702     0.941585473561    15.994914619570
         O            1.341385052603    -1.673287856702     1.234147473561    15.994914619570
         O            0.077840052603     2.361799143298     0.465464473561    15.994914619570
         O            3.067650052603    -2.184876856702    -0.805293526439    15.994914619570
         O            2.846470052603     2.505308143298     0.374831473561    15.994914619570
         O            4.182732152603     0.400490543298    -1.000451826439    15.994914619570
         O           -2.827727947397     0.035546143298    -0.804234526439    15.994914619570
         O           -3.259985947397    -0.721086856702     1.624967473561    15.994914619570
         O           -2.119857947397    -2.341448856702    -0.096371526439    15.994914619570
         C            0.117297052603     0.032204143298     0.019615473561    12.000000000000
         C            0.952427052603    -1.242009856702    -0.072428526439    12.000000000000
         C            0.897724052603     1.204839143298     0.568147473561    12.000000000000
         C            2.295675052603    -1.015352956702    -0.852720226439    12.000000000000
         C            2.176210052603     1.398667143298    -0.224744526439    12.000000000000
         C            3.024977052603     0.150900143298    -0.207025526439    12.000000000000
         C           -3.125077947397     1.433793143298    -0.485589526439    12.000000000000
         C           -3.537181947397     2.087360143298    -1.780822526439    12.000000000000
         H           -0.283956947397     0.300996143298    -0.966941526439     1.007825032230
         H            0.369404052603    -2.027168856702    -0.568735526439     1.007825032230
         H            1.156255052603     1.000072143298     1.615452473561     1.007825032230
         H            2.060069052603    -0.786464856702    -1.869459526439     1.007825032230
         H            1.916122052603     1.638482143298    -1.270286526439     1.007825032230
         H            3.294990052603    -0.092336856702     0.830942473561     1.007825032230
         H            0.520910052603    -1.885836856702     1.714806473561     1.007825032230
         H            0.664675052603     3.111506143298     0.686480473561     1.007825032230
         H            2.972678052603    -2.545178856702     0.097950473561     1.007825032230
         H            3.720564052603     2.551381143298    -0.055572526439     1.007825032230
         H            4.638862052603    -0.421638856702    -1.093790526439     1.007825032230
         H           -3.809259947397    -1.520142856702     1.738024473561     1.007825032230
         H           -3.931410947397     1.447736143298     0.252682473561     1.007825032230
         H           -2.230626947397     1.895075143298    -0.055799526439     1.007825032230
         H           -3.801385947397     3.133077143298    -1.599374526439     1.007825032230
         H           -2.718060947397     2.055518143298    -2.501578526439     1.007825032230
         H           -4.401808947397     1.576518143298    -2.209427526439     1.007825032230

  Basis Set: AUG-CC-PVTZ
    Blend: AUG-CC-PVTZ
  Basis Set: (AUG-CC-PVTZ AUX)
    Blend: AUG-CC-PVTZ-JKFIT
	 Reference Energy          =   -1327.8605760584846394 [Eh]
	 Singles Energy            =      -0.0000000000000000 [Eh]
	 Same-Spin Energy          =      -1.0137757301017087 [Eh]
	 Opposite-Spin Energy      =      -3.0743112437874940 [Eh]
	 Correlation Energy        =      -4.0880869738892027 [Eh]
	 Total Energy              =   -1331.9486630323738154 [Eh]

	 ================> DF-SCS-MP2 Energies <==================
	-----------------------------------------------------------
	 SCS Same-Spin Scale       =       0.3333333333333333 [-]
	 SCS Opposite-Spin Scale   =       1.2000000000000000 [-]
	 SCS Same-Spin Energy      =      -0.3379252433672362 [Eh]
	 SCS Opposite-Spin Energy  =      -3.6891734925449926 [Eh]
	 SCS Correlation Energy    =      -4.0270987359122286 [Eh]
	 SCS Total Energy          =   -1331.8876747943968439 [Eh]
	-----------------------------------------------------------

  Dipole Moment: [D]
     X:    -0.9968      Y:     1.9020      Z:     0.7522     Total:     2.2753

*** Psi4 exiting successfully. Buy a developer a beer!
