                               Psi4 1.3.2 release

  ==> Input File <==

--------------------------------------------------------------------------
#psi4
#
memory 32 gb

molecule  {
0 1
  P       -2.2900960    -0.9400430     0.3446780
  O       -0.9821530    -0.2015620     0.9382890
  O        1.3422500    -1.6754830     1.2308510
  O        0.0787050     2.3596040     0.4621680
  O        3.0685150    -2.1870720    -0.8085900
  O        2.8473350     2.5031130     0.3715350
  O        4.1956880     0.4353970    -0.9728740
  O       -2.8268630     0.0333510    -0.8075310
  O       -3.2591210    -0.7232820     1.6216710
  O       -2.1189930    -2.3436440    -0.0996680
  C        0.1181620     0.0300090     0.0163190
  C        0.9532920    -1.2442050    -0.0757250
  C        0.9057599     1.2001910     0.5757034
  C        2.2596600    -1.0143070    -0.8180370
  C        2.1770750     1.3964720    -0.2280410
  C        3.0258420     0.1487050    -0.2103220
  C       -3.1242130     1.4315980    -0.4888860
  C       -3.5363170     2.0851650    -1.7841190
  H       -0.2830920     0.2988010    -0.9702380
  H        0.3702690    -2.0293640    -0.5720320
  H        1.1571200     0.9978770     1.6121560
  H        2.0609340    -0.7886600    -1.8727560
  H        1.9263575     1.6368616    -1.2757378
  H        3.2958550    -0.0945320     0.8276460
  H        0.5217750    -1.8880320     1.7115100
  H        0.6655400     3.1093110     0.6831840
  H        2.9735430    -2.5473740     0.0946540
  H        3.7214290     2.5491860    -0.0588690
  H        4.6397270    -0.4238340    -1.0970870
  H       -3.8083950    -1.5223380     1.7347280
  H       -3.9305460     1.4455410     0.2493860
  H       -2.2297620     1.8928800    -0.0590960
  H       -3.8005210     3.1308820    -1.6026710
  H       -2.7171960     2.0533230    -2.5048750
  H       -4.4009440     1.5743230    -2.2127240
units angstrom
no_reorient  #important for SAPT in psi4, default
symmetry c1  #important for SAPT in psi4, default
}

set PROPERTIES_ORIGIN ["COM"]
properties('MP2/aug-cc-pvtz', properties = ['dipole'])
--------------------------------------------------------------------------

    Molecular point group: c1
  Charge       = 0
  Multiplicity = 1
  Basis Set: AUG-CC-PVTZ
    Blend: AUG-CC-PVTZ
  Basis Set: (AUG-CC-PVTZ AUX)
    Blend: AUG-CC-PVTZ-JKFIT

    Orbital Energies [Eh]
    ---------------------

    Doubly Occupied:

       1A    -80.116904     2A    -20.614705     3A    -20.606973
       4A    -20.598900     5A    -20.583265     6A    -20.576568
       7A    -20.574651     8A    -20.574162     9A    -20.572909
      10A    -20.523416    11A    -11.320992    12A    -11.303366
      13A    -11.299388    14A    -11.299276    15A    -11.298487
      16A    -11.296785    17A    -11.291356    18A    -11.229781
      19A     -7.632356    20A     -5.530862    21A     -5.530488
      22A     -5.529287    23A     -1.460218    24A     -1.410658
      25A     -1.394664    26A     -1.392362    27A     -1.386783
      28A     -1.372290    29A     -1.363149    30A     -1.353502
      31A     -1.303807    32A     -1.118781    33A     -1.040370
      34A     -1.011682    35A     -1.003499    36A     -0.880092
      37A     -0.864786    38A     -0.859445    39A     -0.822036
      40A     -0.811372    41A     -0.751347    42A     -0.745396
      43A     -0.731482    44A     -0.728431    45A     -0.707810
      46A     -0.686649    47A     -0.678199    48A     -0.673647
      49A     -0.662212    50A     -0.660878    51A     -0.643004
      52A     -0.634525    53A     -0.627222    54A     -0.615300
      55A     -0.603999    56A     -0.598061    57A     -0.581096
      58A     -0.575522    59A     -0.571101    60A     -0.559176
      61A     -0.556502    62A     -0.548376    63A     -0.541141
      64A     -0.536431    65A     -0.529907    66A     -0.521570
      67A     -0.513142    68A     -0.504493    69A     -0.497102
      70A     -0.485212    71A     -0.479755    72A     -0.476572
      73A     -0.463437    74A     -0.455484    75A     -0.450813
      76A     -0.436229

  @DF-RHF Final Energy: -1327.86115247640123

   => Energetics <=

    Nuclear Repulsion Energy =           1772.2943251466417678
    One-Electron Energy =               -5356.7397576408147870
    Two-Electron Energy =                2256.5842800177720164
    Total Energy =                      -1327.8611524764010028
  Basis Set: (AUG-CC-PVTZ AUX)
    Blend: AUG-CC-PVTZ-RI
    Molecular point group: c1

    Geometry (in Angstrom), charge = 0, multiplicity = 1:

       Center              X                  Y                   Z               Mass
    ------------   -----------------  -----------------  -----------------  -----------------
         P           -2.290427475486    -0.939942805968     0.344233442115    30.973761998420
         O           -0.982484475486    -0.201461805968     0.937844442115    15.994914619570
         O            1.341918524514    -1.675382805968     1.230406442115    15.994914619570
         O            0.078373524514     2.359704194032     0.461723442115    15.994914619570
         O            3.068183524514    -2.186971805968    -0.809034557885    15.994914619570
         O            2.847003524514     2.503213194032     0.371090442115    15.994914619570
         O            4.195356524514     0.435497194032    -0.973318557885    15.994914619570
         O           -2.827194475486     0.033451194032    -0.807975557885    15.994914619570
         O           -3.259452475486    -0.723181805968     1.621226442115    15.994914619570
         O           -2.119324475486    -2.343543805968    -0.100112557885    15.994914619570
         C            0.117830524514     0.030109194032     0.015874442115    12.000000000000
         C            0.952960524514    -1.244104805968    -0.076169557885    12.000000000000
         C            0.905428424514     1.200291194032     0.575258842115    12.000000000000
         C            2.259328524514    -1.014206805968    -0.818481557885    12.000000000000
         C            2.176743524514     1.396572194032    -0.228485557885    12.000000000000
         C            3.025510524514     0.148805194032    -0.210766557885    12.000000000000
         C           -3.124544475486     1.431698194032    -0.489330557885    12.000000000000
         C           -3.536648475486     2.085265194032    -1.784563557885    12.000000000000
         H           -0.283423475486     0.298901194032    -0.970682557885     1.007825032230
         H            0.369937524514    -2.029263805968    -0.572476557885     1.007825032230
         H            1.156788524514     0.997977194032     1.611711442115     1.007825032230
         H            2.060602524514    -0.788559805968    -1.873200557885     1.007825032230
         H            1.926026024514     1.636961794032    -1.276182357885     1.007825032230
         H            3.295523524514    -0.094431805968     0.827201442115     1.007825032230
         H            0.521443524514    -1.887931805968     1.711065442115     1.007825032230
         H            0.665208524514     3.109411194032     0.682739442115     1.007825032230
         H            2.973211524514    -2.547273805968     0.094209442115     1.007825032230
         H            3.721097524514     2.549286194032    -0.059313557885     1.007825032230
         H            4.639395524514    -0.423733805968    -1.097531557885     1.007825032230
         H           -3.808726475486    -1.522237805968     1.734283442115     1.007825032230
         H           -3.930877475486     1.445641194032     0.248941442115     1.007825032230
         H           -2.230093475486     1.892980194032    -0.059540557885     1.007825032230
         H           -3.800852475486     3.130982194032    -1.603115557885     1.007825032230
         H           -2.717527475486     2.053423194032    -2.505319557885     1.007825032230
         H           -4.401275475486     1.574423194032    -2.213168557885     1.007825032230

  Basis Set: AUG-CC-PVTZ
    Blend: AUG-CC-PVTZ
  Basis Set: (AUG-CC-PVTZ AUX)
    Blend: AUG-CC-PVTZ-JKFIT
	 Reference Energy          =   -1327.8611524764012302 [Eh]
	 Singles Energy            =      -0.0000000000000000 [Eh]
	 Same-Spin Energy          =      -1.0145714028075885 [Eh]
	 Opposite-Spin Energy      =      -3.0761839685483872 [Eh]
	 Correlation Energy        =      -4.0907553713559759 [Eh]
	 Total Energy              =   -1331.9519078477571838 [Eh]

	 ================> DF-SCS-MP2 Energies <==================
	-----------------------------------------------------------
	 SCS Same-Spin Scale       =       0.3333333333333333 [-]
	 SCS Opposite-Spin Scale   =       1.2000000000000000 [-]
	 SCS Same-Spin Energy      =      -0.3381904676025295 [Eh]
	 SCS Opposite-Spin Energy  =      -3.6914207622580646 [Eh]
	 SCS Correlation Energy    =      -4.0296112298605937 [Eh]
	 SCS Total Energy          =   -1331.8907637062618505 [Eh]
	-----------------------------------------------------------

  Dipole Moment: [D]
     X:    -1.1000      Y:     1.8485      Z:     0.7302     Total:     2.2716

*** Psi4 exiting successfully. Buy a developer a beer!
