                               Psi4 1.3.2 release

  ==> Input File <==

--------------------------------------------------------------------------
#psi4
#
memory 32 gb

molecule  {
0 1
  P       -2.2900960    -0.9400430     0.3446780
  O       -0.9821530    -0.2015620     0.9382890
  O        1.3422500    -1.6754830     1.2308510
  O        0.0787050     2.3596040     0.4621680
  O        3.0685150    -2.1870720    -0.8085900
  O        2.8473350     2.5031130     0.3715350
  O        4.1956880     0.4353970    -0.9728740
  O       -2.8277934    -0.0323579    -0.8595601
  O       -3.2591210    -0.7232820     1.6216710
  O       -2.1436929    -2.3222309    -0.1700435
  C        0.1181620     0.0300090     0.0163190
  C        0.9532920    -1.2442050    -0.0757250
  C        0.8985890     1.2026440     0.5648510
  C        2.2596600    -1.0143070    -0.8180370
  C        2.1770750     1.3964720    -0.2280410
  C        3.0258420     0.1487050    -0.2103220
  C       -3.1242130     1.4315980    -0.4888860
  C       -3.5363170     2.0851650    -1.7841190
  H       -0.2830920     0.2988010    -0.9702380
  H        0.3702690    -2.0293640    -0.5720320
  H        1.1571200     0.9978770     1.6121560
  H        2.0609340    -0.7886600    -1.8727560
  H        1.9169870     1.6362870    -1.2735830
  H        3.2958550    -0.0945320     0.8276460
  H        0.5217750    -1.8880320     1.7115100
  H        0.6655400     3.1093110     0.6831840
  H        2.9735430    -2.5473740     0.0946540
  H        3.7214290     2.5491860    -0.0588690
  H        4.6397270    -0.4238340    -1.0970870
  H       -3.8083950    -1.5223380     1.7347280
  H       -3.9305460     1.4455410     0.2493860
  H       -2.2297620     1.8928800    -0.0590960
  H       -3.8005210     3.1308820    -1.6026710
  H       -2.7171960     2.0533230    -2.5048750
  H       -4.4009440     1.5743230    -2.2127240
units angstrom
no_reorient  #important for SAPT in psi4, default
symmetry c1  #important for SAPT in psi4, default
}

set PROPERTIES_ORIGIN ["COM"]
properties('MP2/aug-cc-pvtz', properties = ['dipole'])
--------------------------------------------------------------------------

    Molecular point group: c1
  Charge       = 0
  Multiplicity = 1
  Basis Set: AUG-CC-PVTZ
    Blend: AUG-CC-PVTZ
  Basis Set: (AUG-CC-PVTZ AUX)
    Blend: AUG-CC-PVTZ-JKFIT

    Orbital Energies [Eh]
    ---------------------

    Doubly Occupied:

       1A    -80.112585     2A    -20.617540     3A    -20.609807
       4A    -20.596183     5A    -20.583579     6A    -20.577209
       7A    -20.574615     8A    -20.574538     9A    -20.574254
      10A    -20.515107    11A    -11.321090    12A    -11.306002
      13A    -11.303533    14A    -11.299377    15A    -11.299292
      16A    -11.297131    17A    -11.291656    18A    -11.231998
      19A     -7.628321    20A     -5.526804    21A     -5.526227
      22A     -5.525358    23A     -1.457253    24A     -1.410833
      25A     -1.395492    26A     -1.393702    27A     -1.377284
      28A     -1.369521    29A     -1.364433    30A     -1.354069
      31A     -1.295428    32A     -1.119427    33A     -1.041089
      34A     -1.012604    35A     -1.003749    36A     -0.878789
      37A     -0.861231    38A     -0.859273    39A     -0.822395
      40A     -0.810774    41A     -0.752131    42A     -0.744669
      43A     -0.730672    44A     -0.722687    45A     -0.707782
      46A     -0.686591    47A     -0.676931    48A     -0.670441
      49A     -0.662464    50A     -0.659317    51A     -0.643445
      52A     -0.635357    53A     -0.625343    54A     -0.611031
      55A     -0.604385    56A     -0.598644    57A     -0.580242
      58A     -0.573388    59A     -0.570332    60A     -0.559266
      61A     -0.556056    62A     -0.547044    63A     -0.538827
      64A     -0.535889    65A     -0.530454    66A     -0.523110
      67A     -0.516978    68A     -0.505236    69A     -0.499658
      70A     -0.487772    71A     -0.478299    72A     -0.468510
      73A     -0.461203    74A     -0.456280    75A     -0.449917
      76A     -0.436090

  @DF-RHF Final Energy: -1327.85403521544686

   => Energetics <=

    Nuclear Repulsion Energy =           1770.8428366248151633
    One-Electron Energy =               -5353.9417483774886932
    Two-Electron Energy =                2255.2448765372264461
    Total Energy =                      -1327.8540352154468565
  Basis Set: (AUG-CC-PVTZ AUX)
    Blend: AUG-CC-PVTZ-RI
    Molecular point group: c1

    Geometry (in Angstrom), charge = 0, multiplicity = 1:

       Center              X                  Y                   Z               Mass
    ------------   -----------------  -----------------  -----------------  -----------------
         P           -2.288672815705    -0.937583407819     0.351474644937    30.973761998420
         O           -0.980729815705    -0.199102407819     0.945085644937    15.994914619570
         O            1.343673184295    -1.673023407819     1.237647644937    15.994914619570
         O            0.080128184295     2.362063592181     0.468964644937    15.994914619570
         O            3.069938184295    -2.184612407819    -0.801793355063    15.994914619570
         O            2.848758184295     2.505572592181     0.378331644937    15.994914619570
         O            4.197111184295     0.437856592181    -0.966077355063    15.994914619570
         O           -2.826370215705    -0.029898307819    -0.852763455063    15.994914619570
         O           -3.257697815705    -0.720822407819     1.628467644937    15.994914619570
         O           -2.142269715705    -2.319771307819    -0.163246855063    15.994914619570
         C            0.119585184295     0.032468592181     0.023115644937    12.000000000000
         C            0.954715184295    -1.241745407819    -0.068928355063    12.000000000000
         C            0.900012184295     1.205103592181     0.571647644937    12.000000000000
         C            2.261083184295    -1.011847407819    -0.811240355063    12.000000000000
         C            2.178498184295     1.398931592181    -0.221244355063    12.000000000000
         C            3.027265184295     0.151164592181    -0.203525355063    12.000000000000
         C           -3.122789815705     1.434057592181    -0.482089355063    12.000000000000
         C           -3.534893815705     2.087624592181    -1.777322355063    12.000000000000
         H           -0.281668815705     0.301260592181    -0.963441355063     1.007825032230
         H            0.371692184295    -2.026904407819    -0.565235355063     1.007825032230
         H            1.158543184295     1.000336592181     1.618952644937     1.007825032230
         H            2.062357184295    -0.786200407819    -1.865959355063     1.007825032230
         H            1.918410184295     1.638746592181    -1.266786355063     1.007825032230
         H            3.297278184295    -0.092072407819     0.834442644937     1.007825032230
         H            0.523198184295    -1.885572407819     1.718306644937     1.007825032230
         H            0.666963184295     3.111770592181     0.689980644937     1.007825032230
         H            2.974966184295    -2.544914407819     0.101450644937     1.007825032230
         H            3.722852184295     2.551645592181    -0.052072355063     1.007825032230
         H            4.641150184295    -0.421374407819    -1.090290355063     1.007825032230
         H           -3.806971815705    -1.519878407819     1.741524644937     1.007825032230
         H           -3.929122815705     1.448000592181     0.256182644937     1.007825032230
         H           -2.228338815705     1.895339592181    -0.052299355063     1.007825032230
         H           -3.799097815705     3.133341592181    -1.595874355063     1.007825032230
         H           -2.715772815705     2.055782592181    -2.498078355063     1.007825032230
         H           -4.399520815705     1.576782592181    -2.205927355063     1.007825032230

  Basis Set: AUG-CC-PVTZ
    Blend: AUG-CC-PVTZ
  Basis Set: (AUG-CC-PVTZ AUX)
    Blend: AUG-CC-PVTZ-JKFIT
	 Reference Energy          =   -1327.8540352154468565 [Eh]
	 Singles Energy            =      -0.0000000000000000 [Eh]
	 Same-Spin Energy          =      -1.0150966386212432 [Eh]
	 Opposite-Spin Energy      =      -3.0781059048690063 [Eh]
	 Correlation Energy        =      -4.0932025434902499 [Eh]
	 Total Energy              =   -1331.9472377589370353 [Eh]

	 ================> DF-SCS-MP2 Energies <==================
	-----------------------------------------------------------
	 SCS Same-Spin Scale       =       0.3333333333333333 [-]
	 SCS Opposite-Spin Scale   =       1.2000000000000000 [-]
	 SCS Same-Spin Energy      =      -0.3383655462070810 [Eh]
	 SCS Opposite-Spin Energy  =      -3.6937270858428075 [Eh]
	 SCS Correlation Energy    =      -4.0320926320498884 [Eh]
	 SCS Total Energy          =   -1331.8861278474967094 [Eh]
	-----------------------------------------------------------

  Dipole Moment: [D]
     X:    -1.0744      Y:     2.1168      Z:     0.9669     Total:     2.5632

*** Psi4 exiting successfully. Buy a developer a beer!
