                               Psi4 1.4a3.dev225

  ==> Input File <==

--------------------------------------------------------------------------
#psi4
#
memory 32 gb

molecule  {
0 1
  P       -2.3219140    -1.0563120    -0.0968450
  O       -1.0285840    -0.5623410     0.7549430
  O        1.3695440    -1.8069540     1.2202350
  O       -0.1592450     2.1412630     0.5207450
  O        3.3269040    -2.0858120    -0.6453880
  O        2.5724350     2.5270130     0.6374560
  O        4.2203020     0.6406430    -0.6358120
  O       -2.8737010     0.2643620    -0.8096810
  O       -3.3065970    -1.3497020     1.1531960
  O       -2.1044560    -2.1814480    -1.0350500
  C        0.1200290    -0.1583450    -0.0432010
  C        1.0698050    -1.3527180    -0.1046720
  C        0.7441670     1.0454510     0.6308160
  C        2.4193320    -0.9866070    -0.7068450
  C        2.0603010     1.3853380    -0.0470020
  C        3.0497892     0.1795690     0.0074143
  C       -3.2473180     1.4231610     0.0025120
  C       -3.2076300     2.6262440    -0.9075720
  H       -0.2047330     0.1313700    -1.0514980
  H        0.5965010    -2.1549610    -0.6866410
  H        0.9371260     0.8063110     1.6860210
  H        2.3054700    -0.7437210    -1.7704410
  H        1.8633300     1.6367370    -1.1028410
  H        3.2142070    -0.0417910     1.0561650
  H        0.5126160    -2.0057500     1.6426110
  H        0.3598300     2.9232990     0.7925780
  H        3.1793900    -2.4823080     0.2360710
  H        3.4672560     2.6739710     0.2770410
  H        4.7639490    -0.1654590    -0.7244900
  H       -3.7873380    -2.1826420     0.9908450
  H       -4.2474700     1.2335250     0.4005830
  H       -2.5352900     1.5309660     0.8217280
  H       -3.5402110     3.5125760    -0.3587690
  H       -2.1856630     2.7912820    -1.2511950
  H       -3.8637180     2.4807570    -1.7684970
units angstrom
no_reorient  #important for SAPT in psi4, default
symmetry c1  #important for SAPT in psi4, default
}

set PROPERTIES_ORIGIN ["COM"]
properties('MP2/aug-cc-pvtz', properties = ['dipole'])
--------------------------------------------------------------------------

    Molecular point group: c1
  Charge       = 0
  Multiplicity = 1
  Basis Set: AUG-CC-PVTZ
    Blend: AUG-CC-PVTZ
  Basis Set: (AUG-CC-PVTZ AUX)
    Blend: AUG-CC-PVTZ-JKFIT

    Orbital Energies [Eh]
    ---------------------

    Doubly Occupied:

       1A    -80.116640     2A    -20.614847     3A    -20.607772
       4A    -20.595810     5A    -20.584217     6A    -20.578317
       7A    -20.577878     8A    -20.573683     9A    -20.573507
      10A    -20.522427    11A    -11.320965    12A    -11.305755
      13A    -11.299315    14A    -11.299174    15A    -11.298471
      16A    -11.295908    17A    -11.292529    18A    -11.222661
      19A     -7.631903    20A     -5.530438    21A     -5.529935
      22A     -5.528876    23A     -1.458270    24A     -1.411409
      25A     -1.396373    26A     -1.392672    27A     -1.385165
      28A     -1.374783    29A     -1.363557    30A     -1.355668
      31A     -1.302608    32A     -1.115653    33A     -1.035226
      34A     -1.009611    35A     -1.001068    36A     -0.878939
      37A     -0.862444    38A     -0.856769    39A     -0.823095
      40A     -0.810058    41A     -0.754105    42A     -0.746057
      43A     -0.728909    44A     -0.725922    45A     -0.704918
      46A     -0.687575    47A     -0.679436    48A     -0.674128
      49A     -0.662514    50A     -0.659240    51A     -0.641506
      52A     -0.637105    53A     -0.623140    54A     -0.612620
      55A     -0.603650    56A     -0.598815    57A     -0.581266
      58A     -0.578527    59A     -0.570262    60A     -0.560253
      61A     -0.556507    62A     -0.548349    63A     -0.538189
      64A     -0.537204    65A     -0.530549    66A     -0.518262
      67A     -0.507997    68A     -0.504201    69A     -0.493965
      70A     -0.487519    71A     -0.478484    72A     -0.475329
      73A     -0.462118    74A     -0.451718    75A     -0.448945
      76A     -0.438062

  @DF-RHF Final Energy: -1327.85858275972646

   => Energetics <=

    Nuclear Repulsion Energy =           1774.1358728827822233
    One-Electron Energy =               -5360.5054256045932561
    Two-Electron Energy =                2258.5109699620843458
    Total Energy =                      -1327.8585827597266871
  Basis Set: (AUG-CC-PVTZ AUX)
    Blend: AUG-CC-PVTZ-RI
    Molecular point group: c1

    Geometry (in Angstrom), charge = 0, multiplicity = 1:

       Center              X                  Y                   Z               Mass
    ------------   -----------------  -----------------  -----------------  -----------------
         P           -2.312473137298    -1.016923782082    -0.099362099761    30.973761998420
         O           -1.019143137298    -0.522952782082     0.752425900239    15.994914619570
         O            1.378984862702    -1.767565782082     1.217717900239    15.994914619570
         O           -0.149804137298     2.180651217918     0.518227900239    15.994914619570
         O            3.336344862702    -2.046423782082    -0.647905099761    15.994914619570
         O            2.581875862702     2.566401217918     0.634938900239    15.994914619570
         O            4.229742862702     0.680031217918    -0.638329099761    15.994914619570
         O           -2.864260137298     0.303750217918    -0.812198099761    15.994914619570
         O           -3.297156137298    -1.310313782082     1.150678900239    15.994914619570
         O           -2.095015137298    -2.142059782082    -1.037567099761    15.994914619570
         C            0.129469862702    -0.118956782082    -0.045718099761    12.000000000000
         C            1.079245862702    -1.313329782082    -0.107189099761    12.000000000000
         C            0.753607862702     1.084839217918     0.628298900239    12.000000000000
         C            2.428772862702    -0.947218782082    -0.709362099761    12.000000000000
         C            2.069741862702     1.424726217918    -0.049519099761    12.000000000000
         C            3.059230062702     0.218957217918     0.004897200239    12.000000000000
         C           -3.237877137298     1.462549217918    -0.000005099761    12.000000000000
         C           -3.198189137298     2.665632217918    -0.910089099761    12.000000000000
         H           -0.195292137298     0.170758217918    -1.054015099761     1.007825032230
         H            0.605941862702    -2.115572782082    -0.689158099761     1.007825032230
         H            0.946566862702     0.845699217918     1.683503900239     1.007825032230
         H            2.314910862702    -0.704332782082    -1.772958099761     1.007825032230
         H            1.872770862702     1.676125217918    -1.105358099761     1.007825032230
         H            3.223647862702    -0.002402782082     1.053647900239     1.007825032230
         H            0.522056862702    -1.966361782082     1.640093900239     1.007825032230
         H            0.369270862702     2.962687217918     0.790060900239     1.007825032230
         H            3.188830862702    -2.442919782082     0.233553900239     1.007825032230
         H            3.476696862702     2.713359217918     0.274523900239     1.007825032230
         H            4.773389862702    -0.126070782082    -0.727007099761     1.007825032230
         H           -3.777897137298    -2.143253782082     0.988327900239     1.007825032230
         H           -4.238029137298     1.272913217918     0.398065900239     1.007825032230
         H           -2.525849137298     1.570354217918     0.819210900239     1.007825032230
         H           -3.530770137298     3.551964217918    -0.361286099761     1.007825032230
         H           -2.176222137298     2.830670217918    -1.253712099761     1.007825032230
         H           -3.854277137298     2.520145217918    -1.771014099761     1.007825032230

  Basis Set: AUG-CC-PVTZ
    Blend: AUG-CC-PVTZ
  Basis Set: (AUG-CC-PVTZ AUX)
    Blend: AUG-CC-PVTZ-JKFIT
	 Reference Energy          =   -1327.8585827597264597 [Eh]
	 Singles Energy            =      -0.0000000000000000 [Eh]
	 Same-Spin Energy          =      -1.0146564252805612 [Eh]
	 Opposite-Spin Energy      =      -3.0766077264276057 [Eh]
	 Correlation Energy        =      -4.0912641517081667 [Eh]
	 Total Energy              =   -1331.9498469114346335 [Eh]

	 ================> DF-SCS-MP2 Energies <==================
	-----------------------------------------------------------
	 SCS Same-Spin Scale       =       0.3333333333333333 [-]
	 SCS Opposite-Spin Scale   =       1.2000000000000000 [-]
	 SCS Same-Spin Energy      =      -0.3382188084268537 [Eh]
	 SCS Opposite-Spin Energy  =      -3.6919292717131267 [Eh]
	 SCS Correlation Energy    =      -4.0301480801399805 [Eh]
	 SCS Total Energy          =   -1331.8887308398664118 [Eh]
	-----------------------------------------------------------

  Dipole Moment: [D]
     X:    -0.7842      Y:     1.4209      Z:     1.8637     Total:     2.4713

*** Psi4 exiting successfully. Buy a developer a beer!
