                               Psi4 1.3.2 release

  ==> Input File <==

--------------------------------------------------------------------------
#psi4
#
memory 32 gb

molecule  {
0 1
  P       -2.2900960    -0.9400430     0.3446780
  O       -0.9821530    -0.2015620     0.9382890
  O        1.3422500    -1.6754830     1.2308510
  O        0.0787050     2.3596040     0.4621680
  O        3.0685150    -2.1870720    -0.8085900
  O        2.8473350     2.5031130     0.3715350
  O        4.1956880     0.4353970    -0.9728740
  O       -2.8268630     0.0333510    -0.8075310
  O       -3.2591210    -0.7232820     1.6216710
  O       -2.1189930    -2.3436440    -0.0996680
  C        0.1181620     0.0300090     0.0163190
  C        0.9532920    -1.2442050    -0.0757250
  C        0.8985890     1.2026440     0.5648510
  C        2.2565837    -1.0163991    -0.8061740
  C        2.1770750     1.3964720    -0.2280410
  C        3.0258420     0.1487050    -0.2103220
  C       -3.1242130     1.4315980    -0.4888860
  C       -3.5363170     2.0851650    -1.7841190
  H       -0.2830920     0.2988010    -0.9702380
  H        0.3702690    -2.0293640    -0.5720320
  H        1.1571200     0.9978770     1.6121560
  H        2.0609340    -0.7886600    -1.8727560
  H        1.9169870     1.6362870    -1.2735830
  H        3.2958550    -0.0945320     0.8276460
  H        0.5217750    -1.8880320     1.7115100
  H        0.6655400     3.1093110     0.6831840
  H        2.9683228    -2.5409299     0.0966354
  H        3.7214290     2.5491860    -0.0588690
  H        4.6397270    -0.4238340    -1.0970870
  H       -3.8083950    -1.5223380     1.7347280
  H       -3.9305460     1.4455410     0.2493860
  H       -2.2297620     1.8928800    -0.0590960
  H       -3.8005210     3.1308820    -1.6026710
  H       -2.7171960     2.0533230    -2.5048750
  H       -4.4009440     1.5743230    -2.2127240
units angstrom
no_reorient  #important for SAPT in psi4, default
symmetry c1  #important for SAPT in psi4, default
}

set PROPERTIES_ORIGIN ["COM"]
properties('MP2/aug-cc-pvtz', properties = ['dipole'])
--------------------------------------------------------------------------

    Molecular point group: c1
  Charge       = 0
  Multiplicity = 1
  Basis Set: AUG-CC-PVTZ
    Blend: AUG-CC-PVTZ
  Basis Set: (AUG-CC-PVTZ AUX)
    Blend: AUG-CC-PVTZ-JKFIT

    Orbital Energies [Eh]
    ---------------------

    Doubly Occupied:

       1A    -80.117117     2A    -20.614872     3A    -20.607321
       4A    -20.599062     5A    -20.583391     6A    -20.576813
       7A    -20.575137     8A    -20.574440     9A    -20.573597
      10A    -20.523613    11A    -11.321111    12A    -11.303582
      13A    -11.299553    14A    -11.299477    15A    -11.298790
      16A    -11.296766    17A    -11.291519    18A    -11.229923
      19A     -7.632568    20A     -5.531074    21A     -5.530701
      22A     -5.529499    23A     -1.460486    24A     -1.411347
      25A     -1.394851    26A     -1.393486    27A     -1.386993
      28A     -1.372986    29A     -1.364281    30A     -1.354112
      31A     -1.304007    32A     -1.119790    33A     -1.040543
      34A     -1.012281    35A     -1.004319    36A     -0.880821
      37A     -0.865162    38A     -0.858450    39A     -0.822269
      40A     -0.810402    41A     -0.752398    42A     -0.745618
      43A     -0.731833    44A     -0.728803    45A     -0.708107
      46A     -0.687306    47A     -0.678090    48A     -0.673957
      49A     -0.662331    50A     -0.660564    51A     -0.643457
      52A     -0.634998    53A     -0.627574    54A     -0.615532
      55A     -0.603610    56A     -0.598325    57A     -0.581709
      58A     -0.575552    59A     -0.571533    60A     -0.559412
      61A     -0.556346    62A     -0.548604    63A     -0.541280
      64A     -0.536375    65A     -0.529771    66A     -0.521684
      67A     -0.513239    68A     -0.504734    69A     -0.497288
      70A     -0.485379    71A     -0.480013    72A     -0.476799
      73A     -0.462725    74A     -0.456006    75A     -0.450435
      76A     -0.436772

  @DF-RHF Final Energy: -1327.86082016740852

   => Energetics <=

    Nuclear Repulsion Energy =           1772.6729292539041580
    One-Electron Energy =               -5357.4581511365922779
    Two-Electron Energy =                2256.9244017152796005
    Total Energy =                      -1327.8608201674087468
  Basis Set: (AUG-CC-PVTZ AUX)
    Blend: AUG-CC-PVTZ-RI
    Molecular point group: c1

    Geometry (in Angstrom), charge = 0, multiplicity = 1:

       Center              X                  Y                   Z               Mass
    ------------   -----------------  -----------------  -----------------  -----------------
         P           -2.289949551492    -0.939978375616     0.344176871580    30.973761998420
         O           -0.982006551492    -0.201497375616     0.937787871580    15.994914619570
         O            1.342396448508    -1.675418375616     1.230349871580    15.994914619570
         O            0.078851448508     2.359668624384     0.461666871580    15.994914619570
         O            3.068661448508    -2.187007375616    -0.809091128420    15.994914619570
         O            2.847481448508     2.503177624384     0.371033871580    15.994914619570
         O            4.195834448508     0.435461624384    -0.973375128420    15.994914619570
         O           -2.826716551492     0.033415624384    -0.808032128420    15.994914619570
         O           -3.258974551492    -0.723217375616     1.621169871580    15.994914619570
         O           -2.118846551492    -2.343579375616    -0.100169128420    15.994914619570
         C            0.118308448508     0.030073624384     0.015817871580    12.000000000000
         C            0.953438448508    -1.244140375616    -0.076226128420    12.000000000000
         C            0.898735448508     1.202708624384     0.564349871580    12.000000000000
         C            2.256730148508    -1.016334475616    -0.806675128420    12.000000000000
         C            2.177221448508     1.396536624384    -0.228542128420    12.000000000000
         C            3.025988448508     0.148769624384    -0.210823128420    12.000000000000
         C           -3.124066551492     1.431662624384    -0.489387128420    12.000000000000
         C           -3.536170551492     2.085229624384    -1.784620128420    12.000000000000
         H           -0.282945551492     0.298865624384    -0.970739128420     1.007825032230
         H            0.370415448508    -2.029299375616    -0.572533128420     1.007825032230
         H            1.157266448508     0.997941624384     1.611654871580     1.007825032230
         H            2.061080448508    -0.788595375616    -1.873257128420     1.007825032230
         H            1.917133448508     1.636351624384    -1.274084128420     1.007825032230
         H            3.296001448508    -0.094467375616     0.827144871580     1.007825032230
         H            0.521921448508    -1.887967375616     1.711008871580     1.007825032230
         H            0.665686448508     3.109375624384     0.682682871580     1.007825032230
         H            2.968469248508    -2.540865275616     0.096134271580     1.007825032230
         H            3.721575448508     2.549250624384    -0.059370128420     1.007825032230
         H            4.639873448508    -0.423769375616    -1.097588128420     1.007825032230
         H           -3.808248551492    -1.522273375616     1.734226871580     1.007825032230
         H           -3.930399551492     1.445605624384     0.248884871580     1.007825032230
         H           -2.229615551492     1.892944624384    -0.059597128420     1.007825032230
         H           -3.800374551492     3.130946624384    -1.603172128420     1.007825032230
         H           -2.717049551492     2.053387624384    -2.505376128420     1.007825032230
         H           -4.400797551492     1.574387624384    -2.213225128420     1.007825032230

  Basis Set: AUG-CC-PVTZ
    Blend: AUG-CC-PVTZ
  Basis Set: (AUG-CC-PVTZ AUX)
    Blend: AUG-CC-PVTZ-JKFIT
	 Reference Energy          =   -1327.8608201674085194 [Eh]
	 Singles Energy            =      -0.0000000000000000 [Eh]
	 Same-Spin Energy          =      -1.0147611995237928 [Eh]
	 Opposite-Spin Energy      =      -3.0763248074470875 [Eh]
	 Correlation Energy        =      -4.0910860069708805 [Eh]
	 Total Energy              =   -1331.9519061743794737 [Eh]

	 ================> DF-SCS-MP2 Energies <==================
	-----------------------------------------------------------
	 SCS Same-Spin Scale       =       0.3333333333333333 [-]
	 SCS Opposite-Spin Scale   =       1.2000000000000000 [-]
	 SCS Same-Spin Energy      =      -0.3382537331745976 [Eh]
	 SCS Opposite-Spin Energy  =      -3.6915897689365047 [Eh]
	 SCS Correlation Energy    =      -4.0298435021111025 [Eh]
	 SCS Total Energy          =   -1331.8906636695196539 [Eh]
	-----------------------------------------------------------

  Dipole Moment: [D]
     X:    -1.1307      Y:     1.8701      Z:     0.7345     Total:     2.3055

*** Psi4 exiting successfully. Buy a developer a beer!
