                               Psi4 1.3.2 release

  ==> Input File <==

--------------------------------------------------------------------------
#psi4
#
memory 32 gb

molecule  {
0 1
  P       -2.2900960    -0.9400430     0.3446780
  O       -0.9821530    -0.2015620     0.9382890
  O        1.3422500    -1.6754830     1.2308510
  O        0.0787050     2.3596040     0.4621680
  O        3.0685150    -2.1870720    -0.8085900
  O        2.8473350     2.5031130     0.3715350
  O        4.1956880     0.4353970    -0.9728740
  O       -2.8268630     0.0333510    -0.8075310
  O       -3.2591210    -0.7232820     1.6216710
  O       -2.1189930    -2.3436440    -0.0996680
  C        0.1181620     0.0300090     0.0163190
  C        0.9532920    -1.2442050    -0.0757250
  C        0.8985890     1.2026440     0.5648510
  C        2.2596600    -1.0143070    -0.8180370
  C        2.1841411     1.3944346    -0.2170350
  C        3.0258420     0.1487050    -0.2103220
  C       -3.1242130     1.4315980    -0.4888860
  C       -3.5363170     2.0851650    -1.7841190
  H       -0.2830920     0.2988010    -0.9702380
  H        0.3702690    -2.0293640    -0.5720320
  H        1.1664193     0.9985671     1.6099515
  H        2.0609340    -0.7886600    -1.8727560
  H        1.9169870     1.6362870    -1.2735830
  H        3.2958550    -0.0945320     0.8276460
  H        0.5217750    -1.8880320     1.7115100
  H        0.6655400     3.1093110     0.6831840
  H        2.9735430    -2.5473740     0.0946540
  H        3.7214290     2.5491860    -0.0588690
  H        4.6397270    -0.4238340    -1.0970870
  H       -3.8083950    -1.5223380     1.7347280
  H       -3.9305460     1.4455410     0.2493860
  H       -2.2297620     1.8928800    -0.0590960
  H       -3.8005210     3.1308820    -1.6026710
  H       -2.7171960     2.0533230    -2.5048750
  H       -4.4009440     1.5743230    -2.2127240
units angstrom
no_reorient  #important for SAPT in psi4, default
symmetry c1  #important for SAPT in psi4, default
}

set PROPERTIES_ORIGIN ["COM"]
properties('MP2/aug-cc-pvtz', properties = ['dipole'])
--------------------------------------------------------------------------

    Molecular point group: c1
  Charge       = 0
  Multiplicity = 1
  Basis Set: AUG-CC-PVTZ
    Blend: AUG-CC-PVTZ
  Basis Set: (AUG-CC-PVTZ AUX)
    Blend: AUG-CC-PVTZ-JKFIT

    Orbital Energies [Eh]
    ---------------------

    Doubly Occupied:

       1A    -80.116923     2A    -20.614716     3A    -20.607015
       4A    -20.598914     5A    -20.583127     6A    -20.577603
       7A    -20.574747     8A    -20.574238     9A    -20.573845
      10A    -20.523417    11A    -11.320885    12A    -11.303549
      13A    -11.299540    14A    -11.299369    15A    -11.298637
      16A    -11.297016    17A    -11.291263    18A    -11.229827
      19A     -7.632374    20A     -5.530879    21A     -5.530507
      22A     -5.529305    23A     -1.460266    24A     -1.411148
      25A     -1.395713    26A     -1.393276    27A     -1.386841
      28A     -1.372863    29A     -1.364660    30A     -1.354571
      31A     -1.303813    32A     -1.119235    33A     -1.040438
      34A     -1.012510    35A     -1.003507    36A     -0.880389
      37A     -0.864940    38A     -0.859315    39A     -0.822305
      40A     -0.810014    41A     -0.751878    42A     -0.745478
      43A     -0.731321    44A     -0.728571    45A     -0.708640
      46A     -0.687073    47A     -0.678186    48A     -0.673676
      49A     -0.663159    50A     -0.661269    51A     -0.643705
      52A     -0.635054    53A     -0.627240    54A     -0.615422
      55A     -0.603556    56A     -0.598409    57A     -0.581688
      58A     -0.575555    59A     -0.571173    60A     -0.559576
      61A     -0.556801    62A     -0.548450    63A     -0.541146
      64A     -0.536929    65A     -0.529830    66A     -0.522099
      67A     -0.513013    68A     -0.504396    69A     -0.497229
      70A     -0.485047    71A     -0.479837    72A     -0.476615
      73A     -0.461494    74A     -0.455648    75A     -0.449294
      76A     -0.436736

  @DF-RHF Final Energy: -1327.86120075735835

   => Energetics <=

    Nuclear Repulsion Energy =           1772.5128017300621650
    One-Electron Energy =               -5357.1506147742375106
    Two-Electron Energy =                2256.7766122868169987
    Total Energy =                      -1327.8612007573583469
  Basis Set: (AUG-CC-PVTZ AUX)
    Blend: AUG-CC-PVTZ-RI
    Molecular point group: c1

    Geometry (in Angstrom), charge = 0, multiplicity = 1:

       Center              X                  Y                   Z               Mass
    ------------   -----------------  -----------------  -----------------  -----------------
         P           -2.290422860640    -0.939960523061     0.344227217353    30.973761998420
         O           -0.982479860640    -0.201479523061     0.937838217353    15.994914619570
         O            1.341923139360    -1.675400523061     1.230400217353    15.994914619570
         O            0.078378139360     2.359686476939     0.461717217353    15.994914619570
         O            3.068188139360    -2.186989523061    -0.809040782647    15.994914619570
         O            2.847008139360     2.503195476939     0.371084217353    15.994914619570
         O            4.195361139360     0.435479476939    -0.973324782647    15.994914619570
         O           -2.827189860640     0.033433476939    -0.807981782647    15.994914619570
         O           -3.259447860640    -0.723199523061     1.621220217353    15.994914619570
         O           -2.119319860640    -2.343561523061    -0.100118782647    15.994914619570
         C            0.117835139360     0.030091476939     0.015868217353    12.000000000000
         C            0.952965139360    -1.244122523061    -0.076175782647    12.000000000000
         C            0.898262139360     1.202726476939     0.564400217353    12.000000000000
         C            2.259333139360    -1.014224523061    -0.818487782647    12.000000000000
         C            2.183814239360     1.394517076939    -0.217485782647    12.000000000000
         C            3.025515139360     0.148787476939    -0.210772782647    12.000000000000
         C           -3.124539860640     1.431680476939    -0.489336782647    12.000000000000
         C           -3.536643860640     2.085247476939    -1.784569782647    12.000000000000
         H           -0.283418860640     0.298883476939    -0.970688782647     1.007825032230
         H            0.369942139360    -2.029281523061    -0.572482782647     1.007825032230
         H            1.166092439360     0.998649576939     1.609500717353     1.007825032230
         H            2.060607139360    -0.788577523061    -1.873206782647     1.007825032230
         H            1.916660139360     1.636369476939    -1.274033782647     1.007825032230
         H            3.295528139360    -0.094449523061     0.827195217353     1.007825032230
         H            0.521448139360    -1.887949523061     1.711059217353     1.007825032230
         H            0.665213139360     3.109393476939     0.682733217353     1.007825032230
         H            2.973216139360    -2.547291523061     0.094203217353     1.007825032230
         H            3.721102139360     2.549268476939    -0.059319782647     1.007825032230
         H            4.639400139360    -0.423751523061    -1.097537782647     1.007825032230
         H           -3.808721860640    -1.522255523061     1.734277217353     1.007825032230
         H           -3.930872860640     1.445623476939     0.248935217353     1.007825032230
         H           -2.230088860640     1.892962476939    -0.059546782647     1.007825032230
         H           -3.800847860640     3.130964476939    -1.603121782647     1.007825032230
         H           -2.717522860640     2.053405476939    -2.505325782647     1.007825032230
         H           -4.401270860640     1.574405476939    -2.213174782647     1.007825032230

  Basis Set: AUG-CC-PVTZ
    Blend: AUG-CC-PVTZ
  Basis Set: (AUG-CC-PVTZ AUX)
    Blend: AUG-CC-PVTZ-JKFIT
	 Reference Energy          =   -1327.8612007573583469 [Eh]
	 Singles Energy            =      -0.0000000000000000 [Eh]
	 Same-Spin Energy          =      -1.0146633513286594 [Eh]
	 Opposite-Spin Energy      =      -3.0760717980409744 [Eh]
	 Correlation Energy        =      -4.0907351493696336 [Eh]
	 Total Energy              =   -1331.9519359067280675 [Eh]

	 ================> DF-SCS-MP2 Energies <==================
	-----------------------------------------------------------
	 SCS Same-Spin Scale       =       0.3333333333333333 [-]
	 SCS Opposite-Spin Scale   =       1.2000000000000000 [-]
	 SCS Same-Spin Energy      =      -0.3382211171095531 [Eh]
	 SCS Opposite-Spin Energy  =      -3.6912861576491691 [Eh]
	 SCS Correlation Energy    =      -4.0295072747587222 [Eh]
	 SCS Total Energy          =   -1331.8907080321171179 [Eh]
	-----------------------------------------------------------

  Dipole Moment: [D]
     X:    -1.0973      Y:     1.8719      Z:     0.7391     Total:     2.2922

*** Psi4 exiting successfully. Buy a developer a beer!
