                               Psi4 1.3.2 release

  ==> Input File <==

--------------------------------------------------------------------------
#psi4
#
memory 32 gb

molecule  {
0 1
  P       -2.2900960    -0.9400430     0.3446780
  O       -0.9821530    -0.2015620     0.9382890
  O        1.3422500    -1.6754830     1.2308510
  O        0.0787050     2.3596040     0.4621680
  O        3.0685150    -2.1870720    -0.8085900
  O        2.8473350     2.5031130     0.3715350
  O        4.1770217     0.3796277    -1.0188253
  O       -2.8268630     0.0333510    -0.8075310
  O       -3.2591210    -0.7232820     1.6216710
  O       -2.1189930    -2.3436440    -0.0996680
  C        0.1181620     0.0300090     0.0163190
  C        0.9532920    -1.2442050    -0.0757250
  C        0.8985890     1.2026440     0.5648510
  C        2.3153161    -1.0186359    -0.8747144
  C        2.1770750     1.3964720    -0.2280410
  C        3.0258420     0.1487050    -0.2103220
  C       -3.1242130     1.4315980    -0.4888860
  C       -3.5363170     2.0851650    -1.7841190
  H       -0.2830920     0.2988010    -0.9702380
  H        0.3702690    -2.0293640    -0.5720320
  H        1.1571200     0.9978770     1.6121560
  H        2.0609340    -0.7886600    -1.8727560
  H        1.9169870     1.6362870    -1.2735830
  H        3.2958550    -0.0945320     0.8276460
  H        0.5217750    -1.8880320     1.7115100
  H        0.6655400     3.1093110     0.6831840
  H        2.9735430    -2.5473740     0.0946540
  H        3.7214290     2.5491860    -0.0588690
  H        4.6397270    -0.4238340    -1.0970870
  H       -3.8083950    -1.5223380     1.7347280
  H       -3.9305460     1.4455410     0.2493860
  H       -2.2297620     1.8928800    -0.0590960
  H       -3.8005210     3.1308820    -1.6026710
  H       -2.7171960     2.0533230    -2.5048750
  H       -4.4009440     1.5743230    -2.2127240
units angstrom
no_reorient  #important for SAPT in psi4, default
symmetry c1  #important for SAPT in psi4, default
}

set PROPERTIES_ORIGIN ["COM"]
properties('MP2/aug-cc-pvtz', properties = ['dipole'])
--------------------------------------------------------------------------

    Molecular point group: c1
  Charge       = 0
  Multiplicity = 1
  Basis Set: AUG-CC-PVTZ
    Blend: AUG-CC-PVTZ
  Basis Set: (AUG-CC-PVTZ AUX)
    Blend: AUG-CC-PVTZ-JKFIT

    Orbital Energies [Eh]
    ---------------------

    Doubly Occupied:

       1A    -80.115738     2A    -20.613784     3A    -20.605247
       4A    -20.598040     5A    -20.581360     6A    -20.578858
       7A    -20.574982     8A    -20.573529     9A    -20.566497
      10A    -20.522101    11A    -11.318459    12A    -11.300925
      13A    -11.298865    14A    -11.298772    15A    -11.298198
      16A    -11.297462    17A    -11.291693    18A    -11.229418
      19A     -7.631183    20A     -5.529690    21A     -5.529317
      22A     -5.528113    23A     -1.458985    24A     -1.412608
      25A     -1.397058    26A     -1.394331    27A     -1.386159
      28A     -1.374510    29A     -1.367035    30A     -1.358283
      31A     -1.302519    32A     -1.113757    33A     -1.039896
      34A     -1.012829    35A     -0.995142    36A     -0.878662
      37A     -0.864071    38A     -0.863693    39A     -0.823523
      40A     -0.810587    41A     -0.750314    42A     -0.745751
      43A     -0.730734    44A     -0.727221    45A     -0.707383
      46A     -0.687388    47A     -0.681245    48A     -0.677629
      49A     -0.669951    50A     -0.661899    51A     -0.642149
      52A     -0.636247    53A     -0.627567    54A     -0.615980
      55A     -0.605665    56A     -0.601159    57A     -0.581417
      58A     -0.575187    59A     -0.569127    60A     -0.560653
      61A     -0.557084    62A     -0.548155    63A     -0.540760
      64A     -0.536627    65A     -0.528170    66A     -0.521034
      67A     -0.512992    68A     -0.501443    69A     -0.495384
      70A     -0.481393    71A     -0.478455    72A     -0.475280
      73A     -0.460986    74A     -0.459053    75A     -0.447574
      76A     -0.426282

  @DF-RHF Final Energy: -1327.85668682889036

   => Energetics <=

    Nuclear Repulsion Energy =           1771.6256306440652679
    One-Electron Energy =               -5355.4421977322381281
    Two-Electron Energy =                2255.9598802592822722
    Total Energy =                      -1327.8566868288903606
  Basis Set: (AUG-CC-PVTZ AUX)
    Blend: AUG-CC-PVTZ-RI
    Molecular point group: c1

    Geometry (in Angstrom), charge = 0, multiplicity = 1:

       Center              X                  Y                   Z               Mass
    ------------   -----------------  -----------------  -----------------  -----------------
         P           -2.291378012638    -0.936765996100     0.349590546882    30.973761998420
         O           -0.983435012638    -0.198284996100     0.943201546882    15.994914619570
         O            1.340967987362    -1.672205996100     1.235763546882    15.994914619570
         O            0.077422987362     2.362881003900     0.467080546882    15.994914619570
         O            3.067232987362    -2.183794996100    -0.803677453118    15.994914619570
         O            2.846052987362     2.506390003900     0.376447546882    15.994914619570
         O            4.175739687362     0.382904703900    -1.013912753118    15.994914619570
         O           -2.828145012638     0.036628003900    -0.802618453118    15.994914619570
         O           -3.260403012638    -0.720004996100     1.626583546882    15.994914619570
         O           -2.120275012638    -2.340366996100    -0.094755453118    15.994914619570
         C            0.116879987362     0.033286003900     0.021231546882    12.000000000000
         C            0.952009987362    -1.240927996100    -0.070812453118    12.000000000000
         C            0.897306987362     1.205921003900     0.569763546882    12.000000000000
         C            2.314034087362    -1.015358896100    -0.869801853118    12.000000000000
         C            2.175792987362     1.399749003900    -0.223128453118    12.000000000000
         C            3.024559987362     0.151982003900    -0.205409453118    12.000000000000
         C           -3.125495012638     1.434875003900    -0.483973453118    12.000000000000
         C           -3.537599012638     2.088442003900    -1.779206453118    12.000000000000
         H           -0.284374012638     0.302078003900    -0.965325453118     1.007825032230
         H            0.368986987362    -2.026086996100    -0.567119453118     1.007825032230
         H            1.155837987362     1.001154003900     1.617068546882     1.007825032230
         H            2.059651987362    -0.785382996100    -1.867843453118     1.007825032230
         H            1.915704987362     1.639564003900    -1.268670453118     1.007825032230
         H            3.294572987362    -0.091254996100     0.832558546882     1.007825032230
         H            0.520492987362    -1.884754996100     1.716422546882     1.007825032230
         H            0.664257987362     3.112588003900     0.688096546882     1.007825032230
         H            2.972260987362    -2.544096996100     0.099566546882     1.007825032230
         H            3.720146987362     2.552463003900    -0.053956453118     1.007825032230
         H            4.638444987362    -0.420556996100    -1.092174453118     1.007825032230
         H           -3.809677012638    -1.519060996100     1.739640546882     1.007825032230
         H           -3.931828012638     1.448818003900     0.254298546882     1.007825032230
         H           -2.231044012638     1.896157003900    -0.054183453118     1.007825032230
         H           -3.801803012638     3.134159003900    -1.597758453118     1.007825032230
         H           -2.718478012638     2.056600003900    -2.499962453118     1.007825032230
         H           -4.402226012638     1.577600003900    -2.207811453118     1.007825032230

  Basis Set: AUG-CC-PVTZ
    Blend: AUG-CC-PVTZ
  Basis Set: (AUG-CC-PVTZ AUX)
    Blend: AUG-CC-PVTZ-JKFIT
	 Reference Energy          =   -1327.8566868288903606 [Eh]
	 Singles Energy            =      -0.0000000000000000 [Eh]
	 Same-Spin Energy          =      -1.0135117311012716 [Eh]
	 Opposite-Spin Energy      =      -3.0737136069734112 [Eh]
	 Correlation Energy        =      -4.0872253380746830 [Eh]
	 Total Energy              =   -1331.9439121669649921 [Eh]

	 ================> DF-SCS-MP2 Energies <==================
	-----------------------------------------------------------
	 SCS Same-Spin Scale       =       0.3333333333333333 [-]
	 SCS Opposite-Spin Scale   =       1.2000000000000000 [-]
	 SCS Same-Spin Energy      =      -0.3378372437004238 [Eh]
	 SCS Opposite-Spin Energy  =      -3.6884563283680931 [Eh]
	 SCS Correlation Energy    =      -4.0262935720685169 [Eh]
	 SCS Total Energy          =   -1331.8829804009587860 [Eh]
	-----------------------------------------------------------

  Dipole Moment: [D]
     X:    -0.9293      Y:     1.9246      Z:     0.7662     Total:     2.2705

*** Psi4 exiting successfully. Buy a developer a beer!
