                               Psi4 1.3.2 release

  ==> Input File <==

--------------------------------------------------------------------------
#psi4
#
memory 32 gb

molecule  {
0 1
  P       -2.2900960    -0.9400430     0.3446780
  O       -0.9821530    -0.2015620     0.9382890
  O        1.3422500    -1.6754830     1.2308510
  O        0.0787050     2.3596040     0.4621680
  O        3.0685150    -2.1870720    -0.8085900
  O        2.8473350     2.5031130     0.3715350
  O        4.2363396     0.4229706    -0.9115291
  O       -2.8268630     0.0333510    -0.8075310
  O       -3.2591210    -0.7232820     1.6216710
  O       -2.1189930    -2.3436440    -0.0996680
  C        0.1181620     0.0300090     0.0163190
  C        0.9532920    -1.2442050    -0.0757250
  C        0.8985890     1.2026440     0.5648510
  C        2.2596600    -1.0143070    -0.8180370
  C        2.1770750     1.3964720    -0.2280410
  C        3.0258420     0.1487050    -0.2103220
  C       -3.1242130     1.4315980    -0.4888860
  C       -3.5363170     2.0851650    -1.7841190
  H       -0.2830920     0.2988010    -0.9702380
  H        0.3702690    -2.0293640    -0.5720320
  H        1.1571200     0.9978770     1.6121560
  H        2.0609340    -0.7886600    -1.8727560
  H        1.9169870     1.6362870    -1.2735830
  H        3.3511067    -0.0865758     0.8135406
  H        0.5217750    -1.8880320     1.7115100
  H        0.6655400     3.1093110     0.6831840
  H        2.9735430    -2.5473740     0.0946540
  H        3.7214290     2.5491860    -0.0588690
  H        4.6397270    -0.4238340    -1.0970870
  H       -3.8083950    -1.5223380     1.7347280
  H       -3.9305460     1.4455410     0.2493860
  H       -2.2297620     1.8928800    -0.0590960
  H       -3.8005210     3.1308820    -1.6026710
  H       -2.7171960     2.0533230    -2.5048750
  H       -4.4009440     1.5743230    -2.2127240
units angstrom
no_reorient  #important for SAPT in psi4, default
symmetry c1  #important for SAPT in psi4, default
}

set PROPERTIES_ORIGIN ["COM"]
properties('MP2/aug-cc-pvtz', properties = ['dipole'])
--------------------------------------------------------------------------

    Molecular point group: c1
  Charge       = 0
  Multiplicity = 1
  Basis Set: AUG-CC-PVTZ
    Blend: AUG-CC-PVTZ
  Basis Set: (AUG-CC-PVTZ AUX)
    Blend: AUG-CC-PVTZ-JKFIT

    Orbital Energies [Eh]
    ---------------------

    Doubly Occupied:

       1A    -80.117233     2A    -20.614959     3A    -20.607404
       4A    -20.599225     5A    -20.583116     6A    -20.576978
       7A    -20.574824     8A    -20.573982     9A    -20.569597
      10A    -20.523725    11A    -11.321293    12A    -11.304456
      13A    -11.301137    14A    -11.299652    15A    -11.299326
      16A    -11.297932    17A    -11.291208    18A    -11.230118
      19A     -7.632683    20A     -5.531189    21A     -5.530816
      22A     -5.529614    23A     -1.460587    24A     -1.411105
      25A     -1.395208    26A     -1.393342    27A     -1.387150
      28A     -1.373620    29A     -1.364247    30A     -1.354898
      31A     -1.304119    32A     -1.119710    33A     -1.040729
      34A     -1.012684    35A     -1.004135    36A     -0.881106
      37A     -0.865391    38A     -0.859888    39A     -0.823091
      40A     -0.811025    41A     -0.751665    42A     -0.744925
      43A     -0.733387    44A     -0.728880    45A     -0.709177
      46A     -0.687654    47A     -0.678581    48A     -0.674692
      49A     -0.662136    50A     -0.658817    51A     -0.643819
      52A     -0.638255    53A     -0.627599    54A     -0.615863
      55A     -0.604151    56A     -0.599194    57A     -0.582335
      58A     -0.575818    59A     -0.571225    60A     -0.559733
      61A     -0.555679    62A     -0.548675    63A     -0.541476
      64A     -0.537702    65A     -0.530493    66A     -0.522373
      67A     -0.513478    68A     -0.502087    69A     -0.497354
      70A     -0.484850    71A     -0.480120    72A     -0.476806
      73A     -0.462815    74A     -0.453752    75A     -0.450684
      76A     -0.437821

  @DF-RHF Final Energy: -1327.86132379226001

   => Energetics <=

    Nuclear Repulsion Energy =           1771.9061637269683160
    One-Electron Energy =               -5355.9018323491582123
    Two-Electron Energy =                2256.1343448299298871
    Total Energy =                      -1327.8613237922600092
  Basis Set: (AUG-CC-PVTZ AUX)
    Blend: AUG-CC-PVTZ-RI
    Molecular point group: c1

    Geometry (in Angstrom), charge = 0, multiplicity = 1:

       Center              X                  Y                   Z               Mass
    ------------   -----------------  -----------------  -----------------  -----------------
         P           -2.292546499764    -0.939380828349     0.341321095534    30.973761998420
         O           -0.984603499764    -0.200899828349     0.934932095534    15.994914619570
         O            1.339799500236    -1.674820828349     1.227494095534    15.994914619570
         O            0.076254500236     2.360266171651     0.458811095534    15.994914619570
         O            3.066064500236    -2.186409828349    -0.811946904466    15.994914619570
         O            2.844884500236     2.503775171651     0.368178095534    15.994914619570
         O            4.233889100236     0.423632771651    -0.914886004466    15.994914619570
         O           -2.829313499764     0.034013171651    -0.810887904466    15.994914619570
         O           -3.261571499764    -0.722619828349     1.618314095534    15.994914619570
         O           -2.121443499764    -2.342981828349    -0.103024904466    15.994914619570
         C            0.115711500236     0.030671171651     0.012962095534    12.000000000000
         C            0.950841500236    -1.243542828349    -0.079081904466    12.000000000000
         C            0.896138500236     1.203306171651     0.561494095534    12.000000000000
         C            2.257209500236    -1.013644828349    -0.821393904466    12.000000000000
         C            2.174624500236     1.397134171651    -0.231397904466    12.000000000000
         C            3.023391500236     0.149367171651    -0.213678904466    12.000000000000
         C           -3.126663499764     1.432260171651    -0.492242904466    12.000000000000
         C           -3.538767499764     2.085827171651    -1.787475904466    12.000000000000
         H           -0.285542499764     0.299463171651    -0.973594904466     1.007825032230
         H            0.367818500236    -2.028701828349    -0.575388904466     1.007825032230
         H            1.154669500236     0.998539171651     1.608799095534     1.007825032230
         H            2.058483500236    -0.787997828349    -1.876112904466     1.007825032230
         H            1.914536500236     1.636949171651    -1.276939904466     1.007825032230
         H            3.348656200236    -0.085913628349     0.810183695534     1.007825032230
         H            0.519324500236    -1.887369828349     1.708153095534     1.007825032230
         H            0.663089500236     3.109973171651     0.679827095534     1.007825032230
         H            2.971092500236    -2.546711828349     0.091297095534     1.007825032230
         H            3.718978500236     2.549848171651    -0.062225904466     1.007825032230
         H            4.637276500236    -0.423171828349    -1.100443904466     1.007825032230
         H           -3.810845499764    -1.521675828349     1.731371095534     1.007825032230
         H           -3.932996499764     1.446203171651     0.246029095534     1.007825032230
         H           -2.232212499764     1.893542171651    -0.062452904466     1.007825032230
         H           -3.802971499764     3.131544171651    -1.606027904466     1.007825032230
         H           -2.719646499764     2.053985171651    -2.508231904466     1.007825032230
         H           -4.403394499764     1.574985171651    -2.216080904466     1.007825032230

  Basis Set: AUG-CC-PVTZ
    Blend: AUG-CC-PVTZ
  Basis Set: (AUG-CC-PVTZ AUX)
    Blend: AUG-CC-PVTZ-JKFIT
	 Reference Energy          =   -1327.8613237922600092 [Eh]
	 Singles Energy            =      -0.0000000000000000 [Eh]
	 Same-Spin Energy          =      -1.0141829003503671 [Eh]
	 Opposite-Spin Energy      =      -3.0752326945512052 [Eh]
	 Correlation Energy        =      -4.0894155949015722 [Eh]
	 Total Energy              =   -1331.9507393871615477 [Eh]

	 ================> DF-SCS-MP2 Energies <==================
	-----------------------------------------------------------
	 SCS Same-Spin Scale       =       0.3333333333333333 [-]
	 SCS Opposite-Spin Scale   =       1.2000000000000000 [-]
	 SCS Same-Spin Energy      =      -0.3380609667834557 [Eh]
	 SCS Opposite-Spin Energy  =      -3.6902792334614460 [Eh]
	 SCS Correlation Energy    =      -4.0283402002449016 [Eh]
	 SCS Total Energy          =   -1331.8896639925048930 [Eh]
	-----------------------------------------------------------

  Dipole Moment: [D]
     X:    -1.2318      Y:     1.8727      Z:     0.6149     Total:     2.3243

*** Psi4 exiting successfully. Buy a developer a beer!
