                               Psi4 1.3.2 release

  ==> Input File <==

--------------------------------------------------------------------------
#psi4
#
memory 32 gb

molecule  {
0 1
  P       -2.2900960    -0.9400430     0.3446780
  O       -0.9821530    -0.2015620     0.9382890
  O        1.3422500    -1.6754830     1.2308510
  O        0.0787050     2.3596040     0.4621680
  O        3.0311084    -2.2119884    -0.8298694
  O        2.8473350     2.5031130     0.3715350
  O        4.1956880     0.4353970    -0.9728740
  O       -2.8268630     0.0333510    -0.8075310
  O       -3.2591210    -0.7232820     1.6216710
  O       -2.1189930    -2.3436440    -0.0996680
  C        0.1181620     0.0300090     0.0163190
  C        0.9532920    -1.2442050    -0.0757250
  C        0.8985890     1.2026440     0.5648510
  C        2.2596600    -1.0143070    -0.8180370
  C        2.1770750     1.3964720    -0.2280410
  C        2.9836430     0.1797065    -0.2187627
  C       -3.1242130     1.4315980    -0.4888860
  C       -3.5363170     2.0851650    -1.7841190
  H       -0.2830920     0.2988010    -0.9702380
  H        0.3702690    -2.0293640    -0.5720320
  H        1.1571200     0.9978770     1.6121560
  H        2.0609340    -0.7886600    -1.8727560
  H        1.9169870     1.6362870    -1.2735830
  H        3.2958550    -0.0945320     0.8276460
  H        0.5217750    -1.8880320     1.7115100
  H        0.6655400     3.1093110     0.6831840
  H        2.9735430    -2.5473740     0.0946540
  H        3.7214290     2.5491860    -0.0588690
  H        4.6397270    -0.4238340    -1.0970870
  H       -3.8083950    -1.5223380     1.7347280
  H       -3.9305460     1.4455410     0.2493860
  H       -2.2297620     1.8928800    -0.0590960
  H       -3.8005210     3.1308820    -1.6026710
  H       -2.7171960     2.0533230    -2.5048750
  H       -4.4009440     1.5743230    -2.2127240
units angstrom
no_reorient  #important for SAPT in psi4, default
symmetry c1  #important for SAPT in psi4, default
}

set PROPERTIES_ORIGIN ["COM"]
properties('MP2/aug-cc-pvtz', properties = ['dipole'])
--------------------------------------------------------------------------

    Molecular point group: c1
  Charge       = 0
  Multiplicity = 1
  Basis Set: AUG-CC-PVTZ
    Blend: AUG-CC-PVTZ
  Basis Set: (AUG-CC-PVTZ AUX)
    Blend: AUG-CC-PVTZ-JKFIT

    Orbital Energies [Eh]
    ---------------------

    Doubly Occupied:

       1A    -80.116970     2A    -20.614767     3A    -20.607145
       4A    -20.599019     5A    -20.582844     6A    -20.578865
       7A    -20.577660     8A    -20.574486     9A    -20.571557
      10A    -20.523341    11A    -11.320900    12A    -11.302498
      13A    -11.300666    14A    -11.300233    15A    -11.299541
      16A    -11.297302    17A    -11.294479    18A    -11.229992
      19A     -7.632418    20A     -5.530924    21A     -5.530553
      22A     -5.529347    23A     -1.460368    24A     -1.410524
      25A     -1.395072    26A     -1.392158    27A     -1.386752
      28A     -1.369963    29A     -1.364540    30A     -1.350680
      31A     -1.303742    32A     -1.124521    33A     -1.040691
      34A     -1.017632    35A     -1.004973    36A     -0.879536
      37A     -0.864719    38A     -0.862342    39A     -0.821958
      40A     -0.810690    41A     -0.752014    42A     -0.745484
      43A     -0.731808    44A     -0.728728    45A     -0.708942
      46A     -0.686686    47A     -0.677228    48A     -0.672883
      49A     -0.663232    50A     -0.661144    51A     -0.643726
      52A     -0.635224    53A     -0.627422    54A     -0.616095
      55A     -0.604285    56A     -0.596730    57A     -0.580267
      58A     -0.575491    59A     -0.570476    60A     -0.560289
      61A     -0.554924    62A     -0.548142    63A     -0.541015
      64A     -0.537518    65A     -0.528943    66A     -0.522135
      67A     -0.514190    68A     -0.502180    69A     -0.497421
      70A     -0.484599    71A     -0.479868    72A     -0.476592
      73A     -0.463891    74A     -0.461948    75A     -0.450274
      76A     -0.436402

  @DF-RHF Final Energy: -1327.85606237216371

   => Energetics <=

    Nuclear Repulsion Energy =           1773.0265454710506674
    One-Electron Energy =               -5358.1360903869190224
    Two-Electron Energy =                2257.2534825437046493
    Total Energy =                      -1327.8560623721637057
  Basis Set: (AUG-CC-PVTZ AUX)
    Blend: AUG-CC-PVTZ-RI
    Molecular point group: c1

    Geometry (in Angstrom), charge = 0, multiplicity = 1:

       Center              X                  Y                   Z               Mass
    ------------   -----------------  -----------------  -----------------  -----------------
         P           -2.286261004086    -0.939950926515     0.346211174911    30.973761998420
         O           -0.978318004086    -0.201469926515     0.939822174911    15.994914619570
         O            1.346084995914    -1.675390926515     1.232384174911    15.994914619570
         O            0.082539995914     2.359696073485     0.463701174911    15.994914619570
         O            3.034943395914    -2.211896326515    -0.828336225089    15.994914619570
         O            2.851169995914     2.503205073485     0.373068174911    15.994914619570
         O            4.199522995914     0.435489073485    -0.971340825089    15.994914619570
         O           -2.823028004086     0.033443073485    -0.805997825089    15.994914619570
         O           -3.255286004086    -0.723189926515     1.623204174911    15.994914619570
         O           -2.115158004086    -2.343551926515    -0.098134825089    15.994914619570
         C            0.121996995914     0.030101073485     0.017852174911    12.000000000000
         C            0.957126995914    -1.244112926515    -0.074191825089    12.000000000000
         C            0.902423995914     1.202736073485     0.566384174911    12.000000000000
         C            2.263494995914    -1.014214926515    -0.816503825089    12.000000000000
         C            2.180909995914     1.396564073485    -0.226507825089    12.000000000000
         C            2.987477995914     0.179798573485    -0.217229525089    12.000000000000
         C           -3.120378004086     1.431690073485    -0.487352825089    12.000000000000
         C           -3.532482004086     2.085257073485    -1.782585825089    12.000000000000
         H           -0.279257004086     0.298893073485    -0.968704825089     1.007825032230
         H            0.374103995914    -2.029271926515    -0.570498825089     1.007825032230
         H            1.160954995914     0.997969073485     1.613689174911     1.007825032230
         H            2.064768995914    -0.788567926515    -1.871222825089     1.007825032230
         H            1.920821995914     1.636379073485    -1.272049825089     1.007825032230
         H            3.299689995914    -0.094439926515     0.829179174911     1.007825032230
         H            0.525609995914    -1.887939926515     1.713043174911     1.007825032230
         H            0.669374995914     3.109403073485     0.684717174911     1.007825032230
         H            2.977377995914    -2.547281926515     0.096187174911     1.007825032230
         H            3.725263995914     2.549278073485    -0.057335825089     1.007825032230
         H            4.643561995914    -0.423741926515    -1.095553825089     1.007825032230
         H           -3.804560004086    -1.522245926515     1.736261174911     1.007825032230
         H           -3.926711004086     1.445633073485     0.250919174911     1.007825032230
         H           -2.225927004086     1.892972073485    -0.057562825089     1.007825032230
         H           -3.796686004086     3.130974073485    -1.601137825089     1.007825032230
         H           -2.713361004086     2.053415073485    -2.503341825089     1.007825032230
         H           -4.397109004086     1.574415073485    -2.211190825089     1.007825032230

  Basis Set: AUG-CC-PVTZ
    Blend: AUG-CC-PVTZ
  Basis Set: (AUG-CC-PVTZ AUX)
    Blend: AUG-CC-PVTZ-JKFIT
	 Reference Energy          =   -1327.8560623721637057 [Eh]
	 Singles Energy            =      -0.0000000000000000 [Eh]
	 Same-Spin Energy          =      -1.0152221124342915 [Eh]
	 Opposite-Spin Energy      =      -3.0772216630356732 [Eh]
	 Correlation Energy        =      -4.0924437754699650 [Eh]
	 Total Energy              =   -1331.9485061476336796 [Eh]

	 ================> DF-SCS-MP2 Energies <==================
	-----------------------------------------------------------
	 SCS Same-Spin Scale       =       0.3333333333333333 [-]
	 SCS Opposite-Spin Scale   =       1.2000000000000000 [-]
	 SCS Same-Spin Energy      =      -0.3384073708114305 [Eh]
	 SCS Opposite-Spin Energy  =      -3.6926659956428076 [Eh]
	 SCS Correlation Energy    =      -4.0310733664542377 [Eh]
	 SCS Total Energy          =   -1331.8871357386178715 [Eh]
	-----------------------------------------------------------

  Dipole Moment: [D]
     X:    -1.1256      Y:     1.9285      Z:     0.7770     Total:     2.3643

*** Psi4 exiting successfully. Buy a developer a beer!
