                               Psi4 1.3.2 release

  ==> Input File <==

--------------------------------------------------------------------------
#psi4
#
memory 32 gb

molecule  {
0 1
  P       -2.2900960    -0.9400430     0.3446780
  O       -0.9821530    -0.2015620     0.9382890
  O        1.3422500    -1.6754830     1.2308510
  O        0.0787050     2.3596040     0.4621680
  O        3.0685150    -2.1870720    -0.8085900
  O        2.8473350     2.5031130     0.3715350
  O        4.1956880     0.4353970    -0.9728740
  O       -2.8268630     0.0333510    -0.8075310
  O       -3.2591210    -0.7232820     1.6216710
  O       -2.1189930    -2.3436440    -0.0996680
  C        0.0587584    -0.0087738    -0.0204532
  C        0.9532920    -1.2442050    -0.0757250
  C        0.8985890     1.2026440     0.5648510
  C        2.2596600    -1.0143070    -0.8180370
  C        2.1770750     1.3964720    -0.2280410
  C        3.0258420     0.1487050    -0.2103220
  C       -3.1242130     1.4315980    -0.4888860
  C       -3.5363170     2.0851650    -1.7841190
  H       -0.2830920     0.2988010    -0.9702380
  H        0.3269320    -1.9920158    -0.5768869
  H        1.1571200     0.9978770     1.6121560
  H        2.0609340    -0.7886600    -1.8727560
  H        1.9169870     1.6362870    -1.2735830
  H        3.2958550    -0.0945320     0.8276460
  H        0.5217750    -1.8880320     1.7115100
  H        0.6655400     3.1093110     0.6831840
  H        2.9735430    -2.5473740     0.0946540
  H        3.7214290     2.5491860    -0.0588690
  H        4.6397270    -0.4238340    -1.0970870
  H       -3.8083950    -1.5223380     1.7347280
  H       -3.9305460     1.4455410     0.2493860
  H       -2.2297620     1.8928800    -0.0590960
  H       -3.8005210     3.1308820    -1.6026710
  H       -2.7171960     2.0533230    -2.5048750
  H       -4.4009440     1.5743230    -2.2127240
units angstrom
no_reorient  #important for SAPT in psi4, default
symmetry c1  #important for SAPT in psi4, default
}

set PROPERTIES_ORIGIN ["COM"]
properties('MP2/aug-cc-pvtz', properties = ['dipole'])
--------------------------------------------------------------------------

    Molecular point group: c1
  Charge       = 0
  Multiplicity = 1
  Basis Set: AUG-CC-PVTZ
    Blend: AUG-CC-PVTZ
  Basis Set: (AUG-CC-PVTZ AUX)
    Blend: AUG-CC-PVTZ-JKFIT

    Orbital Energies [Eh]
    ---------------------

    Doubly Occupied:

       1A    -80.118889     2A    -20.616276     3A    -20.613186
       4A    -20.600935     5A    -20.584478     6A    -20.575114
       7A    -20.573875     8A    -20.573020     9A    -20.570990
      10A    -20.525891    11A    -11.317534    12A    -11.301824
      13A    -11.300695    14A    -11.299299    15A    -11.298230
      16A    -11.294111    17A    -11.290153    18A    -11.230805
      19A     -7.634592    20A     -5.533140    21A     -5.532647
      22A     -5.531474    23A     -1.466412    24A     -1.411805
      25A     -1.397421    26A     -1.391819    27A     -1.388735
      28A     -1.373520    29A     -1.362431    30A     -1.352694
      31A     -1.306409    32A     -1.111901    33A     -1.041673
      34A     -1.011633    35A     -0.996462    36A     -0.881079
      37A     -0.866324    38A     -0.856439    39A     -0.824428
      40A     -0.811911    41A     -0.752155    42A     -0.746925
      43A     -0.732972    44A     -0.730530    45A     -0.706478
      46A     -0.686924    47A     -0.677786    48A     -0.675564
      49A     -0.662720    50A     -0.660289    51A     -0.643397
      52A     -0.635044    53A     -0.628946    54A     -0.615974
      55A     -0.605460    56A     -0.596297    57A     -0.579153
      58A     -0.577443    59A     -0.573578    60A     -0.560445
      61A     -0.555518    62A     -0.550514    63A     -0.542691
      64A     -0.535775    65A     -0.533703    66A     -0.517954
      67A     -0.513758    68A     -0.504635    69A     -0.496185
      70A     -0.486117    71A     -0.481030    72A     -0.478402
      73A     -0.458667    74A     -0.454324    75A     -0.444904
      76A     -0.431515

  @DF-RHF Final Energy: -1327.85432241548665

   => Energetics <=

    Nuclear Repulsion Energy =           1772.4125206510857424
    One-Electron Energy =               -5356.9256294058759522
    Two-Electron Energy =                2256.6587863393033331
    Total Energy =                      -1327.8543224154868767
  Basis Set: (AUG-CC-PVTZ AUX)
    Blend: AUG-CC-PVTZ-RI
    Molecular point group: c1

    Geometry (in Angstrom), charge = 0, multiplicity = 1:

       Center              X                  Y                   Z               Mass
    ------------   -----------------  -----------------  -----------------  -----------------
         P           -2.287469720422    -0.938558042953     0.346226826815    30.973761998420
         O           -0.979526720422    -0.200077042953     0.939837826815    15.994914619570
         O            1.344876279578    -1.673998042953     1.232399826815    15.994914619570
         O            0.081331279578     2.361088957047     0.463716826815    15.994914619570
         O            3.071141279578    -2.185587042953    -0.807041173185    15.994914619570
         O            2.849961279578     2.504597957047     0.373083826815    15.994914619570
         O            4.198314279578     0.436881957047    -0.971325173185    15.994914619570
         O           -2.824236720422     0.034835957047    -0.805982173185    15.994914619570
         O           -3.256494720422    -0.721797042953     1.623219826815    15.994914619570
         O           -2.116366720422    -2.342159042953    -0.098119173185    15.994914619570
         C            0.061384679578    -0.007288842953    -0.018904373185    12.000000000000
         C            0.955918279578    -1.242720042953    -0.074176173185    12.000000000000
         C            0.901215279578     1.204128957047     0.566399826815    12.000000000000
         C            2.262286279578    -1.012822042953    -0.816488173185    12.000000000000
         C            2.179701279578     1.397956957047    -0.226492173185    12.000000000000
         C            3.028468279578     0.150189957047    -0.208773173185    12.000000000000
         C           -3.121586720422     1.433082957047    -0.487337173185    12.000000000000
         C           -3.533690720422     2.086649957047    -1.782570173185    12.000000000000
         H           -0.280465720422     0.300285957047    -0.968689173185     1.007825032230
         H            0.329558279578    -1.990530842953    -0.575338073185     1.007825032230
         H            1.159746279578     0.999361957047     1.613704826815     1.007825032230
         H            2.063560279578    -0.787175042953    -1.871207173185     1.007825032230
         H            1.919613279578     1.637771957047    -1.272034173185     1.007825032230
         H            3.298481279578    -0.093047042953     0.829194826815     1.007825032230
         H            0.524401279578    -1.886547042953     1.713058826815     1.007825032230
         H            0.668166279578     3.110795957047     0.684732826815     1.007825032230
         H            2.976169279578    -2.545889042953     0.096202826815     1.007825032230
         H            3.724055279578     2.550670957047    -0.057320173185     1.007825032230
         H            4.642353279578    -0.422349042953    -1.095538173185     1.007825032230
         H           -3.805768720422    -1.520853042953     1.736276826815     1.007825032230
         H           -3.927919720422     1.447025957047     0.250934826815     1.007825032230
         H           -2.227135720422     1.894364957047    -0.057547173185     1.007825032230
         H           -3.797894720422     3.132366957047    -1.601122173185     1.007825032230
         H           -2.714569720422     2.054807957047    -2.503326173185     1.007825032230
         H           -4.398317720422     1.575807957047    -2.211175173185     1.007825032230

  Basis Set: AUG-CC-PVTZ
    Blend: AUG-CC-PVTZ
  Basis Set: (AUG-CC-PVTZ AUX)
    Blend: AUG-CC-PVTZ-JKFIT
	 Reference Energy          =   -1327.8543224154866493 [Eh]
	 Singles Energy            =      -0.0000000000000000 [Eh]
	 Same-Spin Energy          =      -1.0146840475038941 [Eh]
	 Opposite-Spin Energy      =      -3.0765107716877478 [Eh]
	 Correlation Energy        =      -4.0911948191916423 [Eh]
	 Total Energy              =   -1331.9455172346783911 [Eh]

	 ================> DF-SCS-MP2 Energies <==================
	-----------------------------------------------------------
	 SCS Same-Spin Scale       =       0.3333333333333333 [-]
	 SCS Opposite-Spin Scale   =       1.2000000000000000 [-]
	 SCS Same-Spin Energy      =      -0.3382280158346314 [Eh]
	 SCS Opposite-Spin Energy  =      -3.6918129260252970 [Eh]
	 SCS Correlation Energy    =      -4.0300409418599283 [Eh]
	 SCS Total Energy          =   -1331.8843633573465013 [Eh]
	-----------------------------------------------------------

  Dipole Moment: [D]
     X:    -1.3501      Y:     1.8037      Z:     0.7354     Total:     2.3700

*** Psi4 exiting successfully. Buy a developer a beer!
