                               Psi4 1.4a3.dev225

  ==> Input File <==

--------------------------------------------------------------------------
#psi4
#
memory 32 gb

molecule  {
0 1
  P       -2.3219140    -1.0563120    -0.0968450
  O       -1.0285840    -0.5623410     0.7549430
  O        1.3695440    -1.8069540     1.2202350
  O       -0.1592450     2.1412630     0.5207450
  O        3.3269040    -2.0858120    -0.6453880
  O        2.5724350     2.5270130     0.6374560
  O        4.2203020     0.6406430    -0.6358120
  O       -2.8737010     0.2643620    -0.8096810
  O       -3.3065970    -1.3497020     1.1531960
  O       -2.1044560    -2.1814480    -1.0350500
  C        0.1200290    -0.1583450    -0.0432010
  C        1.0698050    -1.3527180    -0.1046720
  C        0.7441670     1.0454510     0.6308160
  C        2.4193320    -0.9866070    -0.7068450
  C        2.0603010     1.3853380    -0.0470020
  C        3.0180900     0.2181970     0.0056710
  C       -3.2473180     1.4231610     0.0025120
  C       -3.2076300     2.6262440    -0.9075720
  H       -0.2047330     0.1313700    -1.0514980
  H        0.5749542    -2.1914825    -0.7131347
  H        0.9371260     0.8063110     1.6860210
  H        2.3054700    -0.7437210    -1.7704410
  H        1.8633300     1.6367370    -1.1028410
  H        3.2142070    -0.0417910     1.0561650
  H        0.5126160    -2.0057500     1.6426110
  H        0.3598300     2.9232990     0.7925780
  H        3.1793900    -2.4823080     0.2360710
  H        3.4672560     2.6739710     0.2770410
  H        4.7639490    -0.1654590    -0.7244900
  H       -3.7873380    -2.1826420     0.9908450
  H       -4.2474700     1.2335250     0.4005830
  H       -2.5352900     1.5309660     0.8217280
  H       -3.5402110     3.5125760    -0.3587690
  H       -2.1856630     2.7912820    -1.2511950
  H       -3.8637180     2.4807570    -1.7684970
units angstrom
no_reorient  #important for SAPT in psi4, default
symmetry c1  #important for SAPT in psi4, default
}

set PROPERTIES_ORIGIN ["COM"]
properties('MP2/aug-cc-pvtz', properties = ['dipole'])
--------------------------------------------------------------------------

    Molecular point group: c1
  Charge       = 0
  Multiplicity = 1
  Basis Set: AUG-CC-PVTZ
    Blend: AUG-CC-PVTZ
  Basis Set: (AUG-CC-PVTZ AUX)
    Blend: AUG-CC-PVTZ-JKFIT

    Orbital Energies [Eh]
    ---------------------

    Doubly Occupied:

       1A    -80.116761     2A    -20.614961     3A    -20.608053
       4A    -20.595998     5A    -20.584750     6A    -20.578644
       7A    -20.575507     8A    -20.575084     9A    -20.574829
      10A    -20.522353    11A    -11.321774    12A    -11.310444
      13A    -11.300843    14A    -11.300549    15A    -11.298547
      16A    -11.296154    17A    -11.293233    18A    -11.222913
      19A     -7.632022    20A     -5.530557    21A     -5.530055
      22A     -5.528992    23A     -1.458452    24A     -1.410984
      25A     -1.395565    26A     -1.392747    27A     -1.385166
      28A     -1.372888    29A     -1.364355    30A     -1.354381
      31A     -1.302594    32A     -1.118674    33A     -1.035516
      34A     -1.011201    35A     -1.002199    36A     -0.876871
      37A     -0.862231    38A     -0.858296    39A     -0.822838
      40A     -0.810121    41A     -0.754654    42A     -0.745484
      43A     -0.727380    44A     -0.725407    45A     -0.705391
      46A     -0.686416    47A     -0.678676    48A     -0.673873
      49A     -0.662471    50A     -0.659359    51A     -0.641032
      52A     -0.637103    53A     -0.623582    54A     -0.612701
      55A     -0.604033    56A     -0.596997    57A     -0.580876
      58A     -0.577712    59A     -0.570198    60A     -0.559921
      61A     -0.554996    62A     -0.547718    63A     -0.538093
      64A     -0.537821    65A     -0.529844    66A     -0.517728
      67A     -0.508675    68A     -0.503201    69A     -0.494324
      70A     -0.487496    71A     -0.478583    72A     -0.475441
      73A     -0.462588    74A     -0.457400    75A     -0.450448
      76A     -0.435318

  @DF-RHF Final Energy: -1327.85843863396644

   => Energetics <=

    Nuclear Repulsion Energy =           1774.3180917052297900
    One-Electron Energy =               -5360.8509827941679760
    Two-Electron Energy =                2258.6744524549721973
    Total Energy =                      -1327.8584386339662160
  Basis Set: (AUG-CC-PVTZ AUX)
    Blend: AUG-CC-PVTZ-RI
    Molecular point group: c1

    Geometry (in Angstrom), charge = 0, multiplicity = 1:

       Center              X                  Y                   Z               Mass
    ------------   -----------------  -----------------  -----------------  -----------------
         P           -2.311077232341    -1.018405165156    -0.099196785432    30.973761998420
         O           -1.017747232341    -0.524434165156     0.752591214568    15.994914619570
         O            1.380380767659    -1.769047165156     1.217883214568    15.994914619570
         O           -0.148408232341     2.179169834844     0.518393214568    15.994914619570
         O            3.337740767659    -2.047905165156    -0.647739785432    15.994914619570
         O            2.583271767659     2.564919834844     0.635104214568    15.994914619570
         O            4.231138767659     0.678549834844    -0.638163785432    15.994914619570
         O           -2.862864232341     0.302268834844    -0.812032785432    15.994914619570
         O           -3.295760232341    -1.311795165156     1.150844214568    15.994914619570
         O           -2.093619232341    -2.143541165156    -1.037401785432    15.994914619570
         C            0.130865767659    -0.120438165156    -0.045552785432    12.000000000000
         C            1.080641767659    -1.314811165156    -0.107023785432    12.000000000000
         C            0.755003767659     1.083357834844     0.628464214568    12.000000000000
         C            2.430168767659    -0.948700165156    -0.709196785432    12.000000000000
         C            2.071137767659     1.423244834844    -0.049353785432    12.000000000000
         C            3.028926767659     0.256103834844     0.003319214568    12.000000000000
         C           -3.236481232341     1.461067834844     0.000160214568    12.000000000000
         C           -3.196793232341     2.664150834844    -0.909923785432    12.000000000000
         H           -0.193896232341     0.169276834844    -1.053849785432     1.007825032230
         H            0.585790967659    -2.153575665156    -0.715486485432     1.007825032230
         H            0.947962767659     0.844217834844     1.683669214568     1.007825032230
         H            2.316306767659    -0.705814165156    -1.772792785432     1.007825032230
         H            1.874166767659     1.674643834844    -1.105192785432     1.007825032230
         H            3.225043767659    -0.003884165156     1.053813214568     1.007825032230
         H            0.523452767659    -1.967843165156     1.640259214568     1.007825032230
         H            0.370666767659     2.961205834844     0.790226214568     1.007825032230
         H            3.190226767659    -2.444401165156     0.233719214568     1.007825032230
         H            3.478092767659     2.711877834844     0.274689214568     1.007825032230
         H            4.774785767659    -0.127552165156    -0.726841785432     1.007825032230
         H           -3.776501232341    -2.144735165156     0.988493214568     1.007825032230
         H           -4.236633232341     1.271431834844     0.398231214568     1.007825032230
         H           -2.524453232341     1.568872834844     0.819376214568     1.007825032230
         H           -3.529374232341     3.550482834844    -0.361120785432     1.007825032230
         H           -2.174826232341     2.829188834844    -1.253546785432     1.007825032230
         H           -3.852881232341     2.518663834844    -1.770848785432     1.007825032230

  Basis Set: AUG-CC-PVTZ
    Blend: AUG-CC-PVTZ
  Basis Set: (AUG-CC-PVTZ AUX)
    Blend: AUG-CC-PVTZ-JKFIT
	 Reference Energy          =   -1327.8584386339664434 [Eh]
	 Singles Energy            =      -0.0000000000000000 [Eh]
	 Same-Spin Energy          =      -1.0148897113528119 [Eh]
	 Opposite-Spin Energy      =      -3.0771197425740162 [Eh]
	 Correlation Energy        =      -4.0920094539268277 [Eh]
	 Total Energy              =   -1331.9504480878931645 [Eh]

	 ================> DF-SCS-MP2 Energies <==================
	-----------------------------------------------------------
	 SCS Same-Spin Scale       =       0.3333333333333333 [-]
	 SCS Opposite-Spin Scale   =       1.2000000000000000 [-]
	 SCS Same-Spin Energy      =      -0.3382965704509373 [Eh]
	 SCS Opposite-Spin Energy  =      -3.6925436910888192 [Eh]
	 SCS Correlation Energy    =      -4.0308402615397565 [Eh]
	 SCS Total Energy          =   -1331.8892788955060951 [Eh]
	-----------------------------------------------------------

  Dipole Moment: [D]
     X:    -0.8571      Y:     1.4269      Z:     1.8905     Total:     2.5188

*** Psi4 exiting successfully. Buy a developer a beer!
