                               Psi4 1.3.2 release

  ==> Input File <==

--------------------------------------------------------------------------
#psi4
#
memory 32 gb

molecule  {
0 1
  P       -2.2900960    -0.9400430     0.3446780
  O       -0.9821530    -0.2015620     0.9382890
  O        1.3422500    -1.6754830     1.2308510
  O        0.0787050     2.3596040     0.4621680
  O        3.0677960    -2.1875045    -0.8334409
  O        2.8473350     2.5031130     0.3715350
  O        4.1956880     0.4353970    -0.9728740
  O       -2.8268630     0.0333510    -0.8075310
  O       -3.2591210    -0.7232820     1.6216710
  O       -2.1189930    -2.3436440    -0.0996680
  C        0.1181620     0.0300090     0.0163190
  C        0.9532920    -1.2442050    -0.0757250
  C        0.8985890     1.2026440     0.5648510
  C        2.2596600    -1.0143070    -0.8180370
  C        2.1770750     1.3964720    -0.2280410
  C        3.0258420     0.1487050    -0.2103220
  C       -3.1242130     1.4315980    -0.4888860
  C       -3.5363170     2.0851650    -1.7841190
  H       -0.2830920     0.2988010    -0.9702380
  H        0.3702690    -2.0293640    -0.5720320
  H        1.1571200     0.9978770     1.6121560
  H        2.0712732    -0.8039578    -1.8778032
  H        1.9169870     1.6362870    -1.2735830
  H        3.2958550    -0.0945320     0.8276460
  H        0.5217750    -1.8880320     1.7115100
  H        0.6655400     3.1093110     0.6831840
  H        2.9735430    -2.5473740     0.0946540
  H        3.7214290     2.5491860    -0.0588690
  H        4.6397270    -0.4238340    -1.0970870
  H       -3.8083950    -1.5223380     1.7347280
  H       -3.9305460     1.4455410     0.2493860
  H       -2.2297620     1.8928800    -0.0590960
  H       -3.8005210     3.1308820    -1.6026710
  H       -2.7171960     2.0533230    -2.5048750
  H       -4.4009440     1.5743230    -2.2127240
units angstrom
no_reorient  #important for SAPT in psi4, default
symmetry c1  #important for SAPT in psi4, default
}

set PROPERTIES_ORIGIN ["COM"]
properties('MP2/aug-cc-pvtz', properties = ['dipole'])
--------------------------------------------------------------------------

    Molecular point group: c1
  Charge       = 0
  Multiplicity = 1
  Basis Set: AUG-CC-PVTZ
    Blend: AUG-CC-PVTZ
  Basis Set: (AUG-CC-PVTZ AUX)
    Blend: AUG-CC-PVTZ-JKFIT

    Orbital Energies [Eh]
    ---------------------

    Doubly Occupied:

       1A    -80.117007     2A    -20.614790     3A    -20.607153
       4A    -20.598973     5A    -20.583640     6A    -20.576897
       7A    -20.576848     8A    -20.574081     9A    -20.573554
      10A    -20.523489    11A    -11.320904    12A    -11.303794
      13A    -11.299410    14A    -11.298747    15A    -11.298743
      16A    -11.296849    17A    -11.291761    18A    -11.229867
      19A     -7.632457    20A     -5.530963    21A     -5.530590
      22A     -5.529388    23A     -1.460364    24A     -1.410397
      25A     -1.394775    26A     -1.392130    27A     -1.386849
      28A     -1.372887    29A     -1.362955    30A     -1.352816
      31A     -1.303885    32A     -1.118785    33A     -1.040471
      34A     -1.011953    35A     -1.002741    36A     -0.880326
      37A     -0.864949    38A     -0.858027    39A     -0.822184
      40A     -0.810512    41A     -0.751629    42A     -0.745480
      43A     -0.731485    44A     -0.728628    45A     -0.707655
      46A     -0.687197    47A     -0.676341    48A     -0.673646
      49A     -0.662304    50A     -0.659028    51A     -0.643222
      52A     -0.634752    53A     -0.627318    54A     -0.615371
      55A     -0.603613    56A     -0.598201    57A     -0.581556
      58A     -0.575506    59A     -0.571350    60A     -0.559371
      61A     -0.555994    62A     -0.548522    63A     -0.541146
      64A     -0.535979    65A     -0.529799    66A     -0.521572
      67A     -0.513250    68A     -0.504322    69A     -0.497186
      70A     -0.485188    71A     -0.479895    72A     -0.476708
      73A     -0.462445    74A     -0.456099    75A     -0.450154
      76A     -0.436412

  @DF-RHF Final Energy: -1327.85914118498795

   => Energetics <=

    Nuclear Repulsion Energy =           1772.0909305788150050
    One-Electron Energy =               -5356.3296761058700213
    Two-Electron Energy =                2256.3796043420670685
    Total Energy =                      -1327.8591411849879478
  Basis Set: (AUG-CC-PVTZ AUX)
    Blend: AUG-CC-PVTZ-RI
    Molecular point group: c1

    Geometry (in Angstrom), charge = 0, multiplicity = 1:

       Center              X                  Y                   Z               Mass
    ------------   -----------------  -----------------  -----------------  -----------------
         P           -2.290092217130    -0.939965445607     0.346075523555    30.973761998420
         O           -0.982149217130    -0.201484445607     0.939686523555    15.994914619570
         O            1.342253782870    -1.675405445607     1.232248523555    15.994914619570
         O            0.078708782870     2.359681554393     0.463565523555    15.994914619570
         O            3.067799782870    -2.187426945607    -0.832043376445    15.994914619570
         O            2.847338782870     2.503190554393     0.372932523555    15.994914619570
         O            4.195691782870     0.435474554393    -0.971476476445    15.994914619570
         O           -2.826859217130     0.033428554393    -0.806133476445    15.994914619570
         O           -3.259117217130    -0.723204445607     1.623068523555    15.994914619570
         O           -2.118989217130    -2.343566445607    -0.098270476445    15.994914619570
         C            0.118165782870     0.030086554393     0.017716523555    12.000000000000
         C            0.953295782870    -1.244127445607    -0.074327476445    12.000000000000
         C            0.898592782870     1.202721554393     0.566248523555    12.000000000000
         C            2.259663782870    -1.014229445607    -0.816639476445    12.000000000000
         C            2.177078782870     1.396549554393    -0.226643476445    12.000000000000
         C            3.025845782870     0.148782554393    -0.208924476445    12.000000000000
         C           -3.124209217130     1.431675554393    -0.487488476445    12.000000000000
         C           -3.536313217130     2.085242554393    -1.782721476445    12.000000000000
         H           -0.283088217130     0.298878554393    -0.968840476445     1.007825032230
         H            0.370272782870    -2.029286445607    -0.570634476445     1.007825032230
         H            1.157123782870     0.997954554393     1.613553523555     1.007825032230
         H            2.071276982870    -0.803880245607    -1.876405676445     1.007825032230
         H            1.916990782870     1.636364554393    -1.272185476445     1.007825032230
         H            3.295858782870    -0.094454445607     0.829043523555     1.007825032230
         H            0.521778782870    -1.887954445607     1.712907523555     1.007825032230
         H            0.665543782870     3.109388554393     0.684581523555     1.007825032230
         H            2.973546782870    -2.547296445607     0.096051523555     1.007825032230
         H            3.721432782870     2.549263554393    -0.057471476445     1.007825032230
         H            4.639730782870    -0.423756445607    -1.095689476445     1.007825032230
         H           -3.808391217130    -1.522260445607     1.736125523555     1.007825032230
         H           -3.930542217130     1.445618554393     0.250783523555     1.007825032230
         H           -2.229758217130     1.892957554393    -0.057698476445     1.007825032230
         H           -3.800517217130     3.130959554393    -1.601273476445     1.007825032230
         H           -2.717192217130     2.053400554393    -2.503477476445     1.007825032230
         H           -4.400940217130     1.574400554393    -2.211326476445     1.007825032230

  Basis Set: AUG-CC-PVTZ
    Blend: AUG-CC-PVTZ
  Basis Set: (AUG-CC-PVTZ AUX)
    Blend: AUG-CC-PVTZ-JKFIT
	 Reference Energy          =   -1327.8591411849879478 [Eh]
	 Singles Energy            =      -0.0000000000000000 [Eh]
	 Same-Spin Energy          =      -1.0149585225552975 [Eh]
	 Opposite-Spin Energy      =      -3.0769660324503696 [Eh]
	 Correlation Energy        =      -4.0919245550056669 [Eh]
	 Total Energy              =   -1331.9510657399935099 [Eh]

	 ================> DF-SCS-MP2 Energies <==================
	-----------------------------------------------------------
	 SCS Same-Spin Scale       =       0.3333333333333333 [-]
	 SCS Opposite-Spin Scale   =       1.2000000000000000 [-]
	 SCS Same-Spin Energy      =      -0.3383195075184325 [Eh]
	 SCS Opposite-Spin Energy  =      -3.6923592389404432 [Eh]
	 SCS Correlation Energy    =      -4.0306787464588760 [Eh]
	 SCS Total Energy          =   -1331.8898199314469366 [Eh]
	-----------------------------------------------------------

  Dipole Moment: [D]
     X:    -1.1117      Y:     1.8623      Z:     0.7554     Total:     2.2966

*** Psi4 exiting successfully. Buy a developer a beer!
