                               Psi4 1.4a3.dev225

  ==> Input File <==

--------------------------------------------------------------------------
#psi4
#
memory 32 gb

molecule  {
0 1
  P       -2.3219140    -1.0563120    -0.0968450
  O       -1.0285840    -0.5623410     0.7549430
  O        1.3695440    -1.8069540     1.2202350
  O       -0.1592450     2.1412630     0.5207450
  O        3.3269040    -2.0858120    -0.6453880
  O        2.5724350     2.5270130     0.6374560
  O        4.2203020     0.6406430    -0.6358120
  O       -2.8737010     0.2643620    -0.8096810
  O       -3.3065970    -1.3497020     1.1531960
  O       -2.1044560    -2.1814480    -1.0350500
  C        0.1200290    -0.1583450    -0.0432010
  C        1.0698050    -1.3527180    -0.1046720
  C        0.7441670     1.0454510     0.6308160
  C        2.4193320    -0.9866070    -0.7068450
  C        2.0603010     1.3853380    -0.0470020
  C        3.0180900     0.2181970     0.0056710
  C       -3.2473180     1.4231610     0.0025120
  C       -3.2076300     2.6262440    -0.9075720
  H       -0.1988186     0.1260939    -1.0331355
  H        0.5965010    -2.1549610    -0.6866410
  H        0.9371260     0.8063110     1.6860210
  H        2.3054700    -0.7437210    -1.7704410
  H        1.8633300     1.6367370    -1.1028410
  H        3.2142070    -0.0417910     1.0561650
  H        0.5126160    -2.0057500     1.6426110
  H        0.3598300     2.9232990     0.7925780
  H        3.1793900    -2.4823080     0.2360710
  H        3.4672560     2.6739710     0.2770410
  H        4.7639490    -0.1654590    -0.7244900
  H       -3.7873380    -2.1826420     0.9908450
  H       -4.2474700     1.2335250     0.4005830
  H       -2.5352900     1.5309660     0.8217280
  H       -3.5402110     3.5125760    -0.3587690
  H       -2.1856630     2.7912820    -1.2511950
  H       -3.8637180     2.4807570    -1.7684970
units angstrom
no_reorient  #important for SAPT in psi4, default
symmetry c1  #important for SAPT in psi4, default
}

set PROPERTIES_ORIGIN ["COM"]
properties('MP2/aug-cc-pvtz', properties = ['dipole'])
--------------------------------------------------------------------------

    Molecular point group: c1
  Charge       = 0
  Multiplicity = 1
  Basis Set: AUG-CC-PVTZ
    Blend: AUG-CC-PVTZ
  Basis Set: (AUG-CC-PVTZ AUX)
    Blend: AUG-CC-PVTZ-JKFIT

    Orbital Energies [Eh]
    ---------------------

    Doubly Occupied:

       1A    -80.116816     2A    -20.614999     3A    -20.607907
       4A    -20.596075     5A    -20.584009     6A    -20.578555
       7A    -20.575371     8A    -20.575200     9A    -20.574689
      10A    -20.522594    11A    -11.319253    12A    -11.305175
      13A    -11.300508    14A    -11.300357    15A    -11.298442
      16A    -11.296181    17A    -11.293053    18A    -11.222927
      19A     -7.632083    20A     -5.530618    21A     -5.530114
      22A     -5.529055    23A     -1.458498    24A     -1.410934
      25A     -1.395462    26A     -1.392722    27A     -1.385214
      28A     -1.372730    29A     -1.364256    30A     -1.354302
      31A     -1.302771    32A     -1.119177    33A     -1.035551
      34A     -1.012167    35A     -1.003599    36A     -0.877928
      37A     -0.862617    38A     -0.859666    39A     -0.823243
      40A     -0.811390    41A     -0.754646    42A     -0.746569
      43A     -0.729107    44A     -0.726435    45A     -0.705910
      46A     -0.687015    47A     -0.679565    48A     -0.674338
      49A     -0.662408    50A     -0.659484    51A     -0.642095
      52A     -0.637672    53A     -0.623785    54A     -0.613109
      55A     -0.604348    56A     -0.596987    57A     -0.581372
      58A     -0.577718    59A     -0.570391    60A     -0.560023
      61A     -0.555530    62A     -0.548495    63A     -0.539059
      64A     -0.537832    65A     -0.530323    66A     -0.517775
      67A     -0.508761    68A     -0.503612    69A     -0.494805
      70A     -0.487644    71A     -0.478811    72A     -0.475526
      73A     -0.462676    74A     -0.457353    75A     -0.451002
      76A     -0.436766

  @DF-RHF Final Energy: -1327.86111594690806

   => Energetics <=

    Nuclear Repulsion Energy =           1774.7405300128154977
    One-Electron Energy =               -5361.6729907236103827
    Two-Electron Energy =                2259.0713447638863727
    Total Energy =                      -1327.8611159469082850
  Basis Set: (AUG-CC-PVTZ AUX)
    Blend: AUG-CC-PVTZ-RI
    Molecular point group: c1

    Geometry (in Angstrom), charge = 0, multiplicity = 1:

       Center              X                  Y                   Z               Mass
    ------------   -----------------  -----------------  -----------------  -----------------
         P           -2.311173309502    -1.018514481912    -0.099353721631    30.973761998420
         O           -1.017843309502    -0.524543481912     0.752434278369    15.994914619570
         O            1.380284690498    -1.769156481912     1.217726278369    15.994914619570
         O           -0.148504309502     2.179060518088     0.518236278369    15.994914619570
         O            3.337644690498    -2.048014481912    -0.647896721631    15.994914619570
         O            2.583175690498     2.564810518088     0.634947278369    15.994914619570
         O            4.231042690498     0.678440518088    -0.638320721631    15.994914619570
         O           -2.862960309502     0.302159518088    -0.812189721631    15.994914619570
         O           -3.295856309502    -1.311904481912     1.150687278369    15.994914619570
         O           -2.093715309502    -2.143650481912    -1.037558721631    15.994914619570
         C            0.130769690498    -0.120547481912    -0.045709721631    12.000000000000
         C            1.080545690498    -1.314920481912    -0.107180721631    12.000000000000
         C            0.754907690498     1.083248518088     0.628307278369    12.000000000000
         C            2.430072690498    -0.948809481912    -0.709353721631    12.000000000000
         C            2.071041690498     1.423135518088    -0.049510721631    12.000000000000
         C            3.028830690498     0.255994518088     0.003162278369    12.000000000000
         C           -3.236577309502     1.460958518088     0.000003278369    12.000000000000
         C           -3.196889309502     2.664041518088    -0.910080721631    12.000000000000
         H           -0.188077909502     0.163891418088    -1.035644221631     1.007825032230
         H            0.607241690498    -2.117163481912    -0.689149721631     1.007825032230
         H            0.947866690498     0.844108518088     1.683512278369     1.007825032230
         H            2.316210690498    -0.705923481912    -1.772949721631     1.007825032230
         H            1.874070690498     1.674534518088    -1.105349721631     1.007825032230
         H            3.224947690498    -0.003993481912     1.053656278369     1.007825032230
         H            0.523356690498    -1.967952481912     1.640102278369     1.007825032230
         H            0.370570690498     2.961096518088     0.790069278369     1.007825032230
         H            3.190130690498    -2.444510481912     0.233562278369     1.007825032230
         H            3.477996690498     2.711768518088     0.274532278369     1.007825032230
         H            4.774689690498    -0.127661481912    -0.726998721631     1.007825032230
         H           -3.776597309502    -2.144844481912     0.988336278369     1.007825032230
         H           -4.236729309502     1.271322518088     0.398074278369     1.007825032230
         H           -2.524549309502     1.568763518088     0.819219278369     1.007825032230
         H           -3.529470309502     3.550373518088    -0.361277721631     1.007825032230
         H           -2.174922309502     2.829079518088    -1.253703721631     1.007825032230
         H           -3.852977309502     2.518554518088    -1.771005721631     1.007825032230

  Basis Set: AUG-CC-PVTZ
    Blend: AUG-CC-PVTZ
  Basis Set: (AUG-CC-PVTZ AUX)
    Blend: AUG-CC-PVTZ-JKFIT
	 Reference Energy          =   -1327.8611159469080576 [Eh]
	 Singles Energy            =      -0.0000000000000000 [Eh]
	 Same-Spin Energy          =      -1.0146373647755877 [Eh]
	 Opposite-Spin Energy      =      -3.0763774448790180 [Eh]
	 Correlation Energy        =      -4.0910148096546060 [Eh]
	 Total Energy              =   -1331.9521307565626103 [Eh]

	 ================> DF-SCS-MP2 Energies <==================
	-----------------------------------------------------------
	 SCS Same-Spin Scale       =       0.3333333333333333 [-]
	 SCS Opposite-Spin Scale   =       1.2000000000000000 [-]
	 SCS Same-Spin Energy      =      -0.3382124549251959 [Eh]
	 SCS Opposite-Spin Energy  =      -3.6916529338548214 [Eh]
	 SCS Correlation Energy    =      -4.0298653887800171 [Eh]
	 SCS Total Energy          =   -1331.8909813356881386 [Eh]
	-----------------------------------------------------------

  Dipole Moment: [D]
     X:    -0.8601      Y:     1.4205      Z:     1.8741     Total:     2.5040

*** Psi4 exiting successfully. Buy a developer a beer!
