                               Psi4 1.3.2 release

  ==> Input File <==

--------------------------------------------------------------------------
#psi4
#
memory 32 gb

molecule  {
0 1
  P       -2.2900960    -0.9400430     0.3446780
  O       -0.9821530    -0.2015620     0.9382890
  O        1.3422500    -1.6754830     1.2308510
  O        0.1308920     2.3903529     0.4189095
  O        3.0685150    -2.1870720    -0.8085900
  O        2.8473350     2.5031130     0.3715350
  O        4.1956880     0.4353970    -0.9728740
  O       -2.8268630     0.0333510    -0.8075310
  O       -3.2591210    -0.7232820     1.6216710
  O       -2.1189930    -2.3436440    -0.0996680
  C        0.1181620     0.0300090     0.0163190
  C        0.9532920    -1.2442050    -0.0757250
  C        0.8985890     1.2026440     0.5648510
  C        2.2596600    -1.0143070    -0.8180370
  C        2.1511010     1.4687353    -0.2482803
  C        3.0258420     0.1487050    -0.2103220
  C       -3.1242130     1.4315980    -0.4888860
  C       -3.5363170     2.0851650    -1.7841190
  H       -0.2830920     0.2988010    -0.9702380
  H        0.3702690    -2.0293640    -0.5720320
  H        1.1571200     0.9978770     1.6121560
  H        2.0609340    -0.7886600    -1.8727560
  H        1.9169870     1.6362870    -1.2735830
  H        3.2958550    -0.0945320     0.8276460
  H        0.5217750    -1.8880320     1.7115100
  H        0.6655400     3.1093110     0.6831840
  H        2.9735430    -2.5473740     0.0946540
  H        3.7214290     2.5491860    -0.0588690
  H        4.6397270    -0.4238340    -1.0970870
  H       -3.8083950    -1.5223380     1.7347280
  H       -3.9305460     1.4455410     0.2493860
  H       -2.2297620     1.8928800    -0.0590960
  H       -3.8005210     3.1308820    -1.6026710
  H       -2.7171960     2.0533230    -2.5048750
  H       -4.4009440     1.5743230    -2.2127240
units angstrom
no_reorient  #important for SAPT in psi4, default
symmetry c1  #important for SAPT in psi4, default
}

set PROPERTIES_ORIGIN ["COM"]
properties('MP2/aug-cc-pvtz', properties = ['dipole'])
--------------------------------------------------------------------------

    Molecular point group: c1
  Charge       = 0
  Multiplicity = 1
  Basis Set: AUG-CC-PVTZ
    Blend: AUG-CC-PVTZ
  Basis Set: (AUG-CC-PVTZ AUX)
    Blend: AUG-CC-PVTZ-JKFIT

    Orbital Energies [Eh]
    ---------------------

    Doubly Occupied:

       1A    -80.117636     2A    -20.615332     3A    -20.608160
       4A    -20.599580     5A    -20.582771     6A    -20.578353
       7A    -20.572867     8A    -20.570908     9A    -20.565887
      10A    -20.523910    11A    -11.322157    12A    -11.303212
      13A    -11.300250    14A    -11.298310    15A    -11.296847
      16A    -11.293787    17A    -11.289035    18A    -11.230259
      19A     -7.633082    20A     -5.531588    21A     -5.531217
      22A     -5.530009    23A     -1.461037    24A     -1.412753
      25A     -1.400448    26A     -1.393205    27A     -1.387437
      28A     -1.373879    29A     -1.368266    30A     -1.354215
      31A     -1.304326    32A     -1.113728    33A     -1.040903
      34A     -1.006125    35A     -1.001133    36A     -0.880720
      37A     -0.865817    38A     -0.856679    39A     -0.823645
      40A     -0.811178    41A     -0.756108    42A     -0.744767
      43A     -0.733432    44A     -0.729394    45A     -0.710662
      46A     -0.692208    47A     -0.677395    48A     -0.673974
      49A     -0.662386    50A     -0.656855    51A     -0.647658
      52A     -0.634460    53A     -0.627152    54A     -0.615035
      55A     -0.609979    56A     -0.597664    57A     -0.582571
      58A     -0.576070    59A     -0.571352    60A     -0.561704
      61A     -0.555790    62A     -0.549210    63A     -0.541608
      64A     -0.536458    65A     -0.530334    66A     -0.519968
      67A     -0.513928    68A     -0.503868    69A     -0.496828
      70A     -0.484326    71A     -0.480534    72A     -0.477028
      73A     -0.463609    74A     -0.452181    75A     -0.439702
      76A     -0.430722

  @DF-RHF Final Energy: -1327.85667333742913

   => Energetics <=

    Nuclear Repulsion Energy =           1771.4227136040708501
    One-Electron Energy =               -5354.9836267858836436
    Two-Electron Energy =                2255.7042398443836646
    Total Energy =                      -1327.8566733374291289
  Basis Set: (AUG-CC-PVTZ AUX)
    Blend: AUG-CC-PVTZ-RI
    Molecular point group: c1

    Geometry (in Angstrom), charge = 0, multiplicity = 1:

       Center              X                  Y                   Z               Mass
    ------------   -----------------  -----------------  -----------------  -----------------
         P           -2.291911688747    -0.944760682882     0.347923093550    30.973761998420
         O           -0.983968688747    -0.206279682882     0.941534093550    15.994914619570
         O            1.340434311253    -1.680200682882     1.234096093550    15.994914619570
         O            0.129076311253     2.385635217118     0.422154593550    15.994914619570
         O            3.066699311253    -2.191789682882    -0.805344906450    15.994914619570
         O            2.845519311253     2.498395317118     0.374780093550    15.994914619570
         O            4.193872311253     0.430679317118    -0.969628906450    15.994914619570
         O           -2.828678688747     0.028633317118    -0.804285906450    15.994914619570
         O           -3.260936688747    -0.727999682882     1.624916093550    15.994914619570
         O           -2.120808688747    -2.348361682882    -0.096422906450    15.994914619570
         C            0.116346311253     0.025291317118     0.019564093550    12.000000000000
         C            0.951476311253    -1.248922682882    -0.072479906450    12.000000000000
         C            0.896773311253     1.197926317118     0.568096093550    12.000000000000
         C            2.257844311253    -1.019024682882    -0.814791906450    12.000000000000
         C            2.149285311253     1.464017617118    -0.245035206450    12.000000000000
         C            3.024026311253     0.143987317118    -0.207076906450    12.000000000000
         C           -3.126028688747     1.426880317118    -0.485640906450    12.000000000000
         C           -3.538132688747     2.080447317118    -1.780873906450    12.000000000000
         H           -0.284907688747     0.294083317118    -0.966992906450     1.007825032230
         H            0.368453311253    -2.034081682882    -0.568786906450     1.007825032230
         H            1.155304311253     0.993159317118     1.615401093550     1.007825032230
         H            2.059118311253    -0.793377682882    -1.869510906450     1.007825032230
         H            1.915171311253     1.631569317118    -1.270337906450     1.007825032230
         H            3.294039311253    -0.099249682882     0.830891093550     1.007825032230
         H            0.519959311253    -1.892749682882     1.714755093550     1.007825032230
         H            0.663724311253     3.104593317118     0.686429093550     1.007825032230
         H            2.971727311253    -2.552091682882     0.097899093550     1.007825032230
         H            3.719613311253     2.544468317118    -0.055623906450     1.007825032230
         H            4.637911311253    -0.428551682882    -1.093841906450     1.007825032230
         H           -3.810210688747    -1.527055682882     1.737973093550     1.007825032230
         H           -3.932361688747     1.440823317118     0.252631093550     1.007825032230
         H           -2.231577688747     1.888162317118    -0.055850906450     1.007825032230
         H           -3.802336688747     3.126164317118    -1.599425906450     1.007825032230
         H           -2.719011688747     2.048605317118    -2.501629906450     1.007825032230
         H           -4.402759688747     1.569605317118    -2.209478906450     1.007825032230

  Basis Set: AUG-CC-PVTZ
    Blend: AUG-CC-PVTZ
  Basis Set: (AUG-CC-PVTZ AUX)
    Blend: AUG-CC-PVTZ-JKFIT
	 Reference Energy          =   -1327.8566733374291289 [Eh]
	 Singles Energy            =      -0.0000000000000000 [Eh]
	 Same-Spin Energy          =      -1.0135153515625557 [Eh]
	 Opposite-Spin Energy      =      -3.0739214053669195 [Eh]
	 Correlation Energy        =      -4.0874367569294749 [Eh]
	 Total Energy              =   -1331.9441100943586207 [Eh]

	 ================> DF-SCS-MP2 Energies <==================
	-----------------------------------------------------------
	 SCS Same-Spin Scale       =       0.3333333333333333 [-]
	 SCS Opposite-Spin Scale   =       1.2000000000000000 [-]
	 SCS Same-Spin Energy      =      -0.3378384505208519 [Eh]
	 SCS Opposite-Spin Energy  =      -3.6887056864403034 [Eh]
	 SCS Correlation Energy    =      -4.0265441369611557 [Eh]
	 SCS Total Energy          =   -1331.8832174743902215 [Eh]
	-----------------------------------------------------------

  Dipole Moment: [D]
     X:    -1.2296      Y:     1.9506      Z:     0.8096     Total:     2.4438

*** Psi4 exiting successfully. Buy a developer a beer!
