                               Psi4 1.3.2 release

  ==> Input File <==

--------------------------------------------------------------------------
#psi4
#
memory 32 gb

molecule  {
0 1
  P       -2.2900960    -0.9400430     0.3446780
  O       -0.9821530    -0.2015620     0.9382890
  O        1.3422500    -1.6754830     1.2308510
  O        0.0787050     2.3596040     0.4621680
  O        3.0685150    -2.1870720    -0.8085900
  O        2.8374223     2.5102819     0.3692556
  O        4.1956880     0.4353970    -0.9728740
  O       -2.8268630     0.0333510    -0.8075310
  O       -3.2591210    -0.7232820     1.6216710
  O       -2.1189930    -2.3436440    -0.0996680
  C        0.1181620     0.0300090     0.0163190
  C        0.9532920    -1.2442050    -0.0757250
  C        0.8985890     1.2026440     0.5648510
  C        2.2596600    -1.0143070    -0.8180370
  C        2.1770750     1.3964720    -0.2280410
  C        3.0161681     0.1421084    -0.2163513
  C       -3.1242130     1.4315980    -0.4888860
  C       -3.5363170     2.0851650    -1.7841190
  H       -0.2830920     0.2988010    -0.9702380
  H        0.3702690    -2.0293640    -0.5720320
  H        1.1571200     0.9978770     1.6121560
  H        2.0609340    -0.7886600    -1.8727560
  H        1.9169870     1.6362870    -1.2735830
  H        3.2958550    -0.0945320     0.8276460
  H        0.5217750    -1.8880320     1.7115100
  H        0.6655400     3.1093110     0.6831840
  H        2.9735430    -2.5473740     0.0946540
  H        3.7214290     2.5491860    -0.0588690
  H        4.6397270    -0.4238340    -1.0970870
  H       -3.8083950    -1.5223380     1.7347280
  H       -3.9305460     1.4455410     0.2493860
  H       -2.2297620     1.8928800    -0.0590960
  H       -3.8005210     3.1308820    -1.6026710
  H       -2.7171960     2.0533230    -2.5048750
  H       -4.4009440     1.5743230    -2.2127240
units angstrom
no_reorient  #important for SAPT in psi4, default
symmetry c1  #important for SAPT in psi4, default
}

set PROPERTIES_ORIGIN ["COM"]
properties('MP2/aug-cc-pvtz', properties = ['dipole'])
--------------------------------------------------------------------------

    Molecular point group: c1
  Charge       = 0
  Multiplicity = 1
  Basis Set: AUG-CC-PVTZ
    Blend: AUG-CC-PVTZ
  Basis Set: (AUG-CC-PVTZ AUX)
    Blend: AUG-CC-PVTZ-JKFIT

    Orbital Energies [Eh]
    ---------------------

    Doubly Occupied:

       1A    -80.116975     2A    -20.614758     3A    -20.607070
       4A    -20.598948     5A    -20.583331     6A    -20.578221
       7A    -20.575080     8A    -20.573842     9A    -20.573171
      10A    -20.523490    11A    -11.320792    12A    -11.303905
      13A    -11.299582    14A    -11.299364    15A    -11.298424
      16A    -11.296846    17A    -11.292138    18A    -11.229842
      19A     -7.632426    20A     -5.530932    21A     -5.530559
      22A     -5.529357    23A     -1.460318    24A     -1.410844
      25A     -1.393975    26A     -1.393121    27A     -1.386851
      28A     -1.372195    29A     -1.363730    30A     -1.353011
      31A     -1.303885    32A     -1.120136    33A     -1.040462
      34A     -1.012983    35A     -1.003966    36A     -0.880398
      37A     -0.864919    38A     -0.859379    39A     -0.822040
      40A     -0.810705    41A     -0.751573    42A     -0.745116
      43A     -0.731477    44A     -0.728514    45A     -0.707437
      46A     -0.687181    47A     -0.678461    48A     -0.673546
      49A     -0.661825    50A     -0.661052    51A     -0.642414
      52A     -0.634588    53A     -0.627390    54A     -0.615619
      55A     -0.603683    56A     -0.598126    57A     -0.581645
      58A     -0.575572    59A     -0.571214    60A     -0.559475
      61A     -0.556630    62A     -0.548493    63A     -0.541266
      64A     -0.536888    65A     -0.529814    66A     -0.521587
      67A     -0.513111    68A     -0.503847    69A     -0.497047
      70A     -0.484727    71A     -0.479863    72A     -0.476674
      73A     -0.462199    74A     -0.455674    75A     -0.450289
      76A     -0.438696

  @DF-RHF Final Energy: -1327.86028017904232

   => Energetics <=

    Nuclear Repulsion Energy =           1772.6047002870784581
    One-Electron Energy =               -5357.3405962832102887
    Two-Electron Energy =                2256.8756158170899653
    Total Energy =                      -1327.8602801790420926
  Basis Set: (AUG-CC-PVTZ AUX)
    Blend: AUG-CC-PVTZ-RI
    Molecular point group: c1

    Geometry (in Angstrom), charge = 0, multiplicity = 1:

       Center              X                  Y                   Z               Mass
    ------------   -----------------  -----------------  -----------------  -----------------
         P           -2.289142559478    -0.940166243514     0.345055724657    30.973761998420
         O           -0.981199559478    -0.201685243514     0.938666724657    15.994914619570
         O            1.343203440522    -1.675606243514     1.231228724657    15.994914619570
         O            0.079658440522     2.359480756486     0.462545724657    15.994914619570
         O            3.069468440522    -2.187195243514    -0.808212275343    15.994914619570
         O            2.838375740522     2.510158656486     0.369633324657    15.994914619570
         O            4.196641440522     0.435273756486    -0.972496275343    15.994914619570
         O           -2.825909559478     0.033227756486    -0.807153275343    15.994914619570
         O           -3.258167559478    -0.723405243514     1.622048724657    15.994914619570
         O           -2.118039559478    -2.343767243514    -0.099290275343    15.994914619570
         C            0.119115440522     0.029885756486     0.016696724657    12.000000000000
         C            0.954245440522    -1.244328243514    -0.075347275343    12.000000000000
         C            0.899542440522     1.202520756486     0.565228724657    12.000000000000
         C            2.260613440522    -1.014430243514    -0.817659275343    12.000000000000
         C            2.178028440522     1.396348756486    -0.227663275343    12.000000000000
         C            3.017121540522     0.141985156486    -0.215973575343    12.000000000000
         C           -3.123259559478     1.431474756486    -0.488508275343    12.000000000000
         C           -3.535363559478     2.085041756486    -1.783741275343    12.000000000000
         H           -0.282138559478     0.298677756486    -0.969860275343     1.007825032230
         H            0.371222440522    -2.029487243514    -0.571654275343     1.007825032230
         H            1.158073440522     0.997753756486     1.612533724657     1.007825032230
         H            2.061887440522    -0.788783243514    -1.872378275343     1.007825032230
         H            1.917940440522     1.636163756486    -1.273205275343     1.007825032230
         H            3.296808440522    -0.094655243514     0.828023724657     1.007825032230
         H            0.522728440522    -1.888155243514     1.711887724657     1.007825032230
         H            0.666493440522     3.109187756486     0.683561724657     1.007825032230
         H            2.974496440522    -2.547497243514     0.095031724657     1.007825032230
         H            3.722382440522     2.549062756486    -0.058491275343     1.007825032230
         H            4.640680440522    -0.423957243514    -1.096709275343     1.007825032230
         H           -3.807441559478    -1.522461243514     1.735105724657     1.007825032230
         H           -3.929592559478     1.445417756486     0.249763724657     1.007825032230
         H           -2.228808559478     1.892756756486    -0.058718275343     1.007825032230
         H           -3.799567559478     3.130758756486    -1.602293275343     1.007825032230
         H           -2.716242559478     2.053199756486    -2.504497275343     1.007825032230
         H           -4.399990559478     1.574199756486    -2.212346275343     1.007825032230

  Basis Set: AUG-CC-PVTZ
    Blend: AUG-CC-PVTZ
  Basis Set: (AUG-CC-PVTZ AUX)
    Blend: AUG-CC-PVTZ-JKFIT
	 Reference Energy          =   -1327.8602801790423200 [Eh]
	 Singles Energy            =      -0.0000000000000000 [Eh]
	 Same-Spin Energy          =      -1.0148559740074978 [Eh]
	 Opposite-Spin Energy      =      -3.0765975014488296 [Eh]
	 Correlation Energy        =      -4.0914534754563272 [Eh]
	 Total Energy              =   -1331.9517336544986392 [Eh]

	 ================> DF-SCS-MP2 Energies <==================
	-----------------------------------------------------------
	 SCS Same-Spin Scale       =       0.3333333333333333 [-]
	 SCS Opposite-Spin Scale   =       1.2000000000000000 [-]
	 SCS Same-Spin Energy      =      -0.3382853246691659 [Eh]
	 SCS Opposite-Spin Energy  =      -3.6919170017385952 [Eh]
	 SCS Correlation Energy    =      -4.0302023264077613 [Eh]
	 SCS Total Energy          =   -1331.8904825054501089 [Eh]
	-----------------------------------------------------------

  Dipole Moment: [D]
     X:    -1.1115      Y:     1.8448      Z:     0.7308     Total:     2.2744

*** Psi4 exiting successfully. Buy a developer a beer!
