                               Psi4 1.3.2 release

  ==> Input File <==

--------------------------------------------------------------------------
#psi4
#
memory 32 gb

molecule  {
0 1
  P       -2.2900960    -0.9400430     0.3446780
  O       -0.9821530    -0.2015620     0.9382890
  O        1.3422500    -1.6754830     1.2308510
  O        0.0256012     2.3169176     0.4321992
  O        3.0685150    -2.1870720    -0.8085900
  O        2.8473350     2.5031130     0.3715350
  O        4.1956880     0.4353970    -0.9728740
  O       -2.8268630     0.0333510    -0.8075310
  O       -3.2591210    -0.7232820     1.6216710
  O       -2.1189930    -2.3436440    -0.0996680
  C        0.0580969     0.0794491     0.0017945
  C        0.9532920    -1.2442050    -0.0757250
  C        0.8985890     1.2026440     0.5648510
  C        2.2596600    -1.0143070    -0.8180370
  C        2.1770750     1.3964720    -0.2280410
  C        3.0258420     0.1487050    -0.2103220
  C       -3.1242130     1.4315980    -0.4888860
  C       -3.5363170     2.0851650    -1.7841190
  H       -0.2830920     0.2988010    -0.9702380
  H        0.3702690    -2.0293640    -0.5720320
  H        1.1571200     0.9978770     1.6121560
  H        2.0609340    -0.7886600    -1.8727560
  H        1.9169870     1.6362870    -1.2735830
  H        3.2958550    -0.0945320     0.8276460
  H        0.5217750    -1.8880320     1.7115100
  H        0.6655400     3.1093110     0.6831840
  H        2.9735430    -2.5473740     0.0946540
  H        3.7214290     2.5491860    -0.0588690
  H        4.6397270    -0.4238340    -1.0970870
  H       -3.8083950    -1.5223380     1.7347280
  H       -3.9305460     1.4455410     0.2493860
  H       -2.2297620     1.8928800    -0.0590960
  H       -3.8005210     3.1308820    -1.6026710
  H       -2.7171960     2.0533230    -2.5048750
  H       -4.4009440     1.5743230    -2.2127240
units angstrom
no_reorient  #important for SAPT in psi4, default
symmetry c1  #important for SAPT in psi4, default
}

set PROPERTIES_ORIGIN ["COM"]
properties('MP2/aug-cc-pvtz', properties = ['dipole'])
--------------------------------------------------------------------------

    Molecular point group: c1
  Charge       = 0
  Multiplicity = 1
  Basis Set: AUG-CC-PVTZ
    Blend: AUG-CC-PVTZ
  Basis Set: (AUG-CC-PVTZ AUX)
    Blend: AUG-CC-PVTZ-JKFIT

    Orbital Energies [Eh]
    ---------------------

    Doubly Occupied:

       1A    -80.118161     2A    -20.615561     3A    -20.610126
       4A    -20.599817     5A    -20.581485     6A    -20.579856
       7A    -20.578029     8A    -20.573363     9A    -20.572439
      10A    -20.524132    11A    -11.315958    12A    -11.301325
      13A    -11.299466    14A    -11.297539    15A    -11.296769
      16A    -11.296569    17A    -11.290618    18A    -11.230089
      19A     -7.633666    20A     -5.532189    21A     -5.531805
      22A     -5.530553    23A     -1.464354    24A     -1.410074
      25A     -1.396851    26A     -1.390495    27A     -1.387680
      28A     -1.370967    29A     -1.359718    30A     -1.351969
      31A     -1.304597    32A     -1.110291    33A     -1.040797
      34A     -1.008270    35A     -0.996800    36A     -0.882121
      37A     -0.865818    38A     -0.852427    39A     -0.825413
      40A     -0.812310    41A     -0.747836    42A     -0.745863
      43A     -0.732292    44A     -0.727634    45A     -0.706356
      46A     -0.681237    47A     -0.675588    48A     -0.673450
      49A     -0.663023    50A     -0.660513    51A     -0.641596
      52A     -0.631804    53A     -0.627893    54A     -0.613494
      55A     -0.604073    56A     -0.596173    57A     -0.580430
      58A     -0.576410    59A     -0.572216    60A     -0.560850
      61A     -0.555332    62A     -0.547360    63A     -0.541329
      64A     -0.536062    65A     -0.532587    66A     -0.523217
      67A     -0.512647    68A     -0.504663    69A     -0.497571
      70A     -0.484991    71A     -0.479332    72A     -0.475984
      73A     -0.460890    74A     -0.455843    75A     -0.439944
      76A     -0.431297

  @DF-RHF Final Energy: -1327.84458468789740

   => Energetics <=

    Nuclear Repulsion Energy =           1773.1078954893216633
    One-Electron Energy =               -5358.4284711271502601
    Two-Electron Energy =                2257.4759909499312016
    Total Energy =                      -1327.8445846878971679
  Basis Set: (AUG-CC-PVTZ AUX)
    Blend: AUG-CC-PVTZ-RI
    Molecular point group: c1

    Geometry (in Angstrom), charge = 0, multiplicity = 1:

       Center              X                  Y                   Z               Mass
    ------------   -----------------  -----------------  -----------------  -----------------
         P           -2.284645136117    -0.939732339381     0.346947101666    30.973761998420
         O           -0.976702136117    -0.201251339381     0.940558101666    15.994914619570
         O            1.347700863883    -1.675172339381     1.233120101666    15.994914619570
         O            0.031052063883     2.317228260619     0.434468301666    15.994914619570
         O            3.073965863883    -2.186761339381    -0.806320898334    15.994914619570
         O            2.852785863883     2.503423660619     0.373804101666    15.994914619570
         O            4.201138863883     0.435707660619    -0.970604898334    15.994914619570
         O           -2.821412136117     0.033661660619    -0.805261898334    15.994914619570
         O           -3.253670136117    -0.722971339381     1.623940101666    15.994914619570
         O           -2.113542136117    -2.343333339381    -0.097398898334    15.994914619570
         C            0.063547763883     0.079759760619     0.004063601666    12.000000000000
         C            0.958742863883    -1.243894339381    -0.073455898334    12.000000000000
         C            0.904039863883     1.202954660619     0.567120101666    12.000000000000
         C            2.265110863883    -1.013996339381    -0.815767898334    12.000000000000
         C            2.182525863883     1.396782660619    -0.225771898334    12.000000000000
         C            3.031292863883     0.149015660619    -0.208052898334    12.000000000000
         C           -3.118762136117     1.431908660619    -0.486616898334    12.000000000000
         C           -3.530866136117     2.085475660619    -1.781849898334    12.000000000000
         H           -0.277641136117     0.299111660619    -0.967968898334     1.007825032230
         H            0.375719863883    -2.029053339381    -0.569762898334     1.007825032230
         H            1.162570863883     0.998187660619     1.614425101666     1.007825032230
         H            2.066384863883    -0.788349339381    -1.870486898334     1.007825032230
         H            1.922437863883     1.636597660619    -1.271313898334     1.007825032230
         H            3.301305863883    -0.094221339381     0.829915101666     1.007825032230
         H            0.527225863883    -1.887721339381     1.713779101666     1.007825032230
         H            0.670990863883     3.109621660619     0.685453101666     1.007825032230
         H            2.978993863883    -2.547063339381     0.096923101666     1.007825032230
         H            3.726879863883     2.549496660619    -0.056599898334     1.007825032230
         H            4.645177863883    -0.423523339381    -1.094817898334     1.007825032230
         H           -3.802944136117    -1.522027339381     1.736997101666     1.007825032230
         H           -3.925095136117     1.445851660619     0.251655101666     1.007825032230
         H           -2.224311136117     1.893190660619    -0.056826898334     1.007825032230
         H           -3.795070136117     3.131192660619    -1.600401898334     1.007825032230
         H           -2.711745136117     2.053633660619    -2.502605898334     1.007825032230
         H           -4.395493136117     1.574633660619    -2.210454898334     1.007825032230

  Basis Set: AUG-CC-PVTZ
    Blend: AUG-CC-PVTZ
  Basis Set: (AUG-CC-PVTZ AUX)
    Blend: AUG-CC-PVTZ-JKFIT
	 Reference Energy          =   -1327.8445846878973953 [Eh]
	 Singles Energy            =      -0.0000000000000000 [Eh]
	 Same-Spin Energy          =      -1.0158604090953722 [Eh]
	 Opposite-Spin Energy      =      -3.0793390005584049 [Eh]
	 Correlation Energy        =      -4.0951994096537767 [Eh]
	 Total Energy              =   -1331.9397840975511826 [Eh]

	 ================> DF-SCS-MP2 Energies <==================
	-----------------------------------------------------------
	 SCS Same-Spin Scale       =       0.3333333333333333 [-]
	 SCS Opposite-Spin Scale   =       1.2000000000000000 [-]
	 SCS Same-Spin Energy      =      -0.3386201363651241 [Eh]
	 SCS Opposite-Spin Energy  =      -3.6952068006700856 [Eh]
	 SCS Correlation Energy    =      -4.0338269370352098 [Eh]
	 SCS Total Energy          =   -1331.8784116249325962 [Eh]
	-----------------------------------------------------------

  Dipole Moment: [D]
     X:    -1.2125      Y:     1.9966      Z:     0.7963     Total:     2.4679

*** Psi4 exiting successfully. Buy a developer a beer!
