                               Psi4 1.3.2 release

  ==> Input File <==

--------------------------------------------------------------------------
#psi4
#
memory 32 gb

molecule  {
0 1
  P       -2.2900960    -0.9400430     0.3446780
  O       -0.9821530    -0.2015620     0.9382890
  O        1.3422500    -1.6754830     1.2308510
  O        0.0787050     2.3596040     0.4621680
  O        3.0685150    -2.1870720    -0.8085900
  O        2.8473350     2.5031130     0.3715350
  O        4.1956880     0.4353970    -0.9728740
  O       -2.8268630     0.0333510    -0.8075310
  O       -3.2591210    -0.7232820     1.6216710
  O       -2.1189930    -2.3436440    -0.0996680
  C        0.1181620     0.0300090     0.0163190
  C        0.9532920    -1.2442050    -0.0757250
  C        0.8985890     1.2026440     0.5648510
  C        2.2596600    -1.0143070    -0.8180370
  C        2.1770750     1.3964720    -0.2280410
  C        3.0258420     0.1487050    -0.2103220
  C       -3.1242130     1.4315980    -0.4888860
  C       -3.5363170     2.0851650    -1.7841190
  H       -0.2830920     0.2988010    -0.9702380
  H        0.4234315    -1.9577699    -0.5267767
  H        1.1571200     0.9978770     1.6121560
  H        2.0609340    -0.7886600    -1.8727560
  H        1.9169870     1.6362870    -1.2735830
  H        3.2958550    -0.0945320     0.8276460
  H        0.5217750    -1.8880320     1.7115100
  H        0.6655400     3.1093110     0.6831840
  H        2.9735430    -2.5473740     0.0946540
  H        3.7214290     2.5491860    -0.0588690
  H        4.6397270    -0.4238340    -1.0970870
  H       -3.8083950    -1.5223380     1.7347280
  H       -3.9305460     1.4455410     0.2493860
  H       -2.2297620     1.8928800    -0.0590960
  H       -3.8005210     3.1308820    -1.6026710
  H       -2.7171960     2.0533230    -2.5048750
  H       -4.4009440     1.5743230    -2.2127240
units angstrom
no_reorient  #important for SAPT in psi4, default
symmetry c1  #important for SAPT in psi4, default
}

set PROPERTIES_ORIGIN ["COM"]
properties('MP2/aug-cc-pvtz', properties = ['dipole'])
--------------------------------------------------------------------------

    Molecular point group: c1
  Charge       = 0
  Multiplicity = 1
  Basis Set: AUG-CC-PVTZ
    Blend: AUG-CC-PVTZ
  Basis Set: (AUG-CC-PVTZ AUX)
    Blend: AUG-CC-PVTZ-JKFIT

    Orbital Energies [Eh]
    ---------------------

    Doubly Occupied:

       1A    -80.117084     2A    -20.614839     3A    -20.607173
       4A    -20.599047     5A    -20.582170     6A    -20.576701
       7A    -20.574924     8A    -20.573955     9A    -20.573287
      10A    -20.523821    11A    -11.320327    12A    -11.299444
      13A    -11.299226    14A    -11.298403    15A    -11.296566
      16A    -11.292761    17A    -11.291249    18A    -11.229915
      19A     -7.632539    20A     -5.531046    21A     -5.530671
      22A     -5.529471    23A     -1.460437    24A     -1.410973
      25A     -1.394702    26A     -1.393063    27A     -1.386958
      28A     -1.372636    29A     -1.363925    30A     -1.353808
      31A     -1.304036    32A     -1.119828    33A     -1.040522
      34A     -1.013777    35A     -1.006616    36A     -0.883616
      37A     -0.866132    38A     -0.861123    39A     -0.822525
      40A     -0.810870    41A     -0.751642    42A     -0.748005
      43A     -0.736456    44A     -0.728769    45A     -0.709153
      46A     -0.688798    47A     -0.679590    48A     -0.674154
      49A     -0.662346    50A     -0.661000    51A     -0.645768
      52A     -0.635136    53A     -0.627548    54A     -0.616264
      55A     -0.603915    56A     -0.598536    57A     -0.581862
      58A     -0.575653    59A     -0.571452    60A     -0.559493
      61A     -0.557826    62A     -0.549310    63A     -0.541796
      64A     -0.536896    65A     -0.530500    66A     -0.521761
      67A     -0.513143    68A     -0.504854    69A     -0.497678
      70A     -0.484756    71A     -0.480199    72A     -0.476684
      73A     -0.462743    74A     -0.455853    75A     -0.451479
      76A     -0.438513

  @DF-RHF Final Energy: -1327.85628672020061

   => Energetics <=

    Nuclear Repulsion Energy =           1773.0735276830962448
    One-Electron Energy =               -5358.2202223494314239
    Two-Electron Energy =                2257.2904079461341098
    Total Energy =                      -1327.8562867202008420
  Basis Set: (AUG-CC-PVTZ AUX)
    Blend: AUG-CC-PVTZ-RI
    Molecular point group: c1

    Geometry (in Angstrom), charge = 0, multiplicity = 1:

       Center              X                  Y                   Z               Mass
    ------------   -----------------  -----------------  -----------------  -----------------
         P           -2.290281964211    -0.940293465110     0.344519658260    30.973761998420
         O           -0.982338964211    -0.201812465110     0.938130658260    15.994914619570
         O            1.342064035789    -1.675733465110     1.230692658260    15.994914619570
         O            0.078519035789     2.359353534890     0.462009658260    15.994914619570
         O            3.068329035789    -2.187322465110    -0.808748341740    15.994914619570
         O            2.847149035789     2.502862534890     0.371376658260    15.994914619570
         O            4.195502035789     0.435146534890    -0.973032341740    15.994914619570
         O           -2.827048964211     0.033100534890    -0.807689341740    15.994914619570
         O           -3.259306964211    -0.723532465110     1.621512658260    15.994914619570
         O           -2.119178964211    -2.343894465110    -0.099826341740    15.994914619570
         C            0.117976035789     0.029758534890     0.016160658260    12.000000000000
         C            0.953106035789    -1.244455465110    -0.075883341740    12.000000000000
         C            0.898403035789     1.202393534890     0.564692658260    12.000000000000
         C            2.259474035789    -1.014557465110    -0.818195341740    12.000000000000
         C            2.176889035789     1.396221534890    -0.228199341740    12.000000000000
         C            3.025656035789     0.148454534890    -0.210480341740    12.000000000000
         C           -3.124398964211     1.431347534890    -0.489044341740    12.000000000000
         C           -3.536502964211     2.084914534890    -1.784277341740    12.000000000000
         H           -0.283277964211     0.298550534890    -0.970396341740     1.007825032230
         H            0.423245535789    -1.958020365110    -0.526935041740     1.007825032230
         H            1.156934035789     0.997626534890     1.611997658260     1.007825032230
         H            2.060748035789    -0.788910465110    -1.872914341740     1.007825032230
         H            1.916801035789     1.636036534890    -1.273741341740     1.007825032230
         H            3.295669035789    -0.094782465110     0.827487658260     1.007825032230
         H            0.521589035789    -1.888282465110     1.711351658260     1.007825032230
         H            0.665354035789     3.109060534890     0.683025658260     1.007825032230
         H            2.973357035789    -2.547624465110     0.094495658260     1.007825032230
         H            3.721243035789     2.548935534890    -0.059027341740     1.007825032230
         H            4.639541035789    -0.424084465110    -1.097245341740     1.007825032230
         H           -3.808580964211    -1.522588465110     1.734569658260     1.007825032230
         H           -3.930731964211     1.445290534890     0.249227658260     1.007825032230
         H           -2.229947964211     1.892629534890    -0.059254341740     1.007825032230
         H           -3.800706964211     3.130631534890    -1.602829341740     1.007825032230
         H           -2.717381964211     2.053072534890    -2.505033341740     1.007825032230
         H           -4.401129964211     1.574072534890    -2.212882341740     1.007825032230

  Basis Set: AUG-CC-PVTZ
    Blend: AUG-CC-PVTZ
  Basis Set: (AUG-CC-PVTZ AUX)
    Blend: AUG-CC-PVTZ-JKFIT
	 Reference Energy          =   -1327.8562867202006146 [Eh]
	 Singles Energy            =      -0.0000000000000000 [Eh]
	 Same-Spin Energy          =      -1.0142812826851106 [Eh]
	 Opposite-Spin Energy      =      -3.0752396537428943 [Eh]
	 Correlation Energy        =      -4.0895209364280047 [Eh]
	 Total Energy              =   -1331.9458076566286309 [Eh]

	 ================> DF-SCS-MP2 Energies <==================
	-----------------------------------------------------------
	 SCS Same-Spin Scale       =       0.3333333333333333 [-]
	 SCS Opposite-Spin Scale   =       1.2000000000000000 [-]
	 SCS Same-Spin Energy      =      -0.3380937608950368 [Eh]
	 SCS Opposite-Spin Energy  =      -3.6902875844914731 [Eh]
	 SCS Correlation Energy    =      -4.0283813453865100 [Eh]
	 SCS Total Energy          =   -1331.8846680655872206 [Eh]
	-----------------------------------------------------------

  Dipole Moment: [D]
     X:    -1.1176      Y:     1.8615      Z:     0.7025     Total:     2.2820

*** Psi4 exiting successfully. Buy a developer a beer!
