                               Psi4 1.3.2 release

  ==> Input File <==

--------------------------------------------------------------------------
#psi4
#
memory 32 gb

molecule  {
0 1
  P       -2.2900960    -0.9400430     0.3446780
  O       -0.9821530    -0.2015620     0.9382890
  O        1.3422500    -1.6754830     1.2308510
  O        0.0787050     2.3596040     0.4621680
  O        3.0685150    -2.1870720    -0.8085900
  O        2.8473350     2.5031130     0.3715350
  O        4.1956880     0.4353970    -0.9728740
  O       -2.8268630     0.0333510    -0.8075310
  O       -3.2591210    -0.7232820     1.6216710
  O       -2.1189930    -2.3436440    -0.0996680
  C        0.1181620     0.0300090     0.0163190
  C        0.9532920    -1.2442050    -0.0757250
  C        0.8985890     1.2026440     0.5648510
  C        2.3230684    -1.0604133    -0.8045370
  C        2.2369641     1.4351917    -0.1940272
  C        3.0258420     0.1487050    -0.2103220
  C       -3.1242130     1.4315980    -0.4888860
  C       -3.5363170     2.0851650    -1.7841190
  H       -0.2830920     0.2988010    -0.9702380
  H        0.3702690    -2.0293640    -0.5720320
  H        1.1571200     0.9978770     1.6121560
  H        2.0609340    -0.7886600    -1.8727560
  H        1.9169870     1.6362870    -1.2735830
  H        3.2958550    -0.0945320     0.8276460
  H        0.5217750    -1.8880320     1.7115100
  H        0.6655400     3.1093110     0.6831840
  H        2.9735430    -2.5473740     0.0946540
  H        3.7214290     2.5491860    -0.0588690
  H        4.6397270    -0.4238340    -1.0970870
  H       -3.8083950    -1.5223380     1.7347280
  H       -3.9305460     1.4455410     0.2493860
  H       -2.2297620     1.8928800    -0.0590960
  H       -3.8005210     3.1308820    -1.6026710
  H       -2.7171960     2.0533230    -2.5048750
  H       -4.4009440     1.5743230    -2.2127240
units angstrom
no_reorient  #important for SAPT in psi4, default
symmetry c1  #important for SAPT in psi4, default
}

set PROPERTIES_ORIGIN ["COM"]
properties('MP2/aug-cc-pvtz', properties = ['dipole'])
--------------------------------------------------------------------------

    Molecular point group: c1
  Charge       = 0
  Multiplicity = 1
  Basis Set: AUG-CC-PVTZ
    Blend: AUG-CC-PVTZ
  Basis Set: (AUG-CC-PVTZ AUX)
    Blend: AUG-CC-PVTZ-JKFIT

    Orbital Energies [Eh]
    ---------------------

    Doubly Occupied:

       1A    -80.115727     2A    -20.613715     3A    -20.605768
       4A    -20.597654     5A    -20.585898     6A    -20.583141
       7A    -20.580441     8A    -20.571519     9A    -20.571460
      10A    -20.522136    11A    -11.318788    12A    -11.301264
      13A    -11.300428    14A    -11.298752    15A    -11.298226
      16A    -11.296184    17A    -11.287309    18A    -11.228809
      19A     -7.631172    20A     -5.529678    21A     -5.529307
      22A     -5.528102    23A     -1.458983    24A     -1.425425
      25A     -1.416010    26A     -1.398516    27A     -1.385872
      28A     -1.373348    29A     -1.370449    30A     -1.363360
      31A     -1.302542    32A     -1.106405    33A     -1.039273
      34A     -1.008470    35A     -0.991612    36A     -0.877897
      37A     -0.863800    38A     -0.860551    39A     -0.823155
      40A     -0.807249    41A     -0.754960    42A     -0.747652
      43A     -0.730449    44A     -0.727868    45A     -0.712455
      46A     -0.687691    47A     -0.683053    48A     -0.673129
      49A     -0.667604    50A     -0.663092    51A     -0.647411
      52A     -0.634428    53A     -0.634051    54A     -0.619081
      55A     -0.607276    56A     -0.602471    57A     -0.582401
      58A     -0.574800    59A     -0.570271    60A     -0.564396
      61A     -0.557319    62A     -0.547864    63A     -0.544336
      64A     -0.538668    65A     -0.526140    66A     -0.518042
      67A     -0.511583    68A     -0.499007    69A     -0.493175
      70A     -0.478597    71A     -0.478328    72A     -0.474456
      73A     -0.455048    74A     -0.449789    75A     -0.440133
      76A     -0.429462

  @DF-RHF Final Energy: -1327.85003189491636

   => Energetics <=

    Nuclear Repulsion Energy =           1771.4165226583793356
    One-Electron Energy =               -5354.9433483656939643
    Two-Electron Energy =                2255.6767938123985004
    Total Energy =                      -1327.8500318949163557
  Basis Set: (AUG-CC-PVTZ AUX)
    Blend: AUG-CC-PVTZ-RI
    Molecular point group: c1

    Geometry (in Angstrom), charge = 0, multiplicity = 1:

       Center              X                  Y                   Z               Mass
    ------------   -----------------  -----------------  -----------------  -----------------
         P           -2.295232274760    -0.939735272521     0.342698668466    30.973761998420
         O           -0.987289274760    -0.201254272521     0.936309668466    15.994914619570
         O            1.337113725240    -1.675175272521     1.228871668466    15.994914619570
         O            0.073568725240     2.359911727479     0.460188668466    15.994914619570
         O            3.063378725240    -2.186764272521    -0.810569331534    15.994914619570
         O            2.842198725240     2.503420727479     0.369555668466    15.994914619570
         O            4.190551725240     0.435704727479    -0.974853331534    15.994914619570
         O           -2.831999274760     0.033658727479    -0.809510331534    15.994914619570
         O           -3.264257274760    -0.722974272521     1.619691668466    15.994914619570
         O           -2.124129274760    -2.343336272521    -0.101647331534    15.994914619570
         C            0.113025725240     0.030316727479     0.014339668466    12.000000000000
         C            0.948155725240    -1.243897272521    -0.077704331534    12.000000000000
         C            0.893452725240     1.202951727479     0.562871668466    12.000000000000
         C            2.317932125240    -1.060105572521    -0.806516331534    12.000000000000
         C            2.231827825240     1.435499427479    -0.196006531534    12.000000000000
         C            3.020705725240     0.149012727479    -0.212301331534    12.000000000000
         C           -3.129349274760     1.431905727479    -0.490865331534    12.000000000000
         C           -3.541453274760     2.085472727479    -1.786098331534    12.000000000000
         H           -0.288228274760     0.299108727479    -0.972217331534     1.007825032230
         H            0.365132725240    -2.029056272521    -0.574011331534     1.007825032230
         H            1.151983725240     0.998184727479     1.610176668466     1.007825032230
         H            2.055797725240    -0.788352272521    -1.874735331534     1.007825032230
         H            1.911850725240     1.636594727479    -1.275562331534     1.007825032230
         H            3.290718725240    -0.094224272521     0.825666668466     1.007825032230
         H            0.516638725240    -1.887724272521     1.709530668466     1.007825032230
         H            0.660403725240     3.109618727479     0.681204668466     1.007825032230
         H            2.968406725240    -2.547066272521     0.092674668466     1.007825032230
         H            3.716292725240     2.549493727479    -0.060848331534     1.007825032230
         H            4.634590725240    -0.423526272521    -1.099066331534     1.007825032230
         H           -3.813531274760    -1.522030272521     1.732748668466     1.007825032230
         H           -3.935682274760     1.445848727479     0.247406668466     1.007825032230
         H           -2.234898274760     1.893187727479    -0.061075331534     1.007825032230
         H           -3.805657274760     3.131189727479    -1.604650331534     1.007825032230
         H           -2.722332274760     2.053630727479    -2.506854331534     1.007825032230
         H           -4.406080274760     1.574630727479    -2.214703331534     1.007825032230

  Basis Set: AUG-CC-PVTZ
    Blend: AUG-CC-PVTZ
  Basis Set: (AUG-CC-PVTZ AUX)
    Blend: AUG-CC-PVTZ-JKFIT
	 Reference Energy          =   -1327.8500318949163557 [Eh]
	 Singles Energy            =      -0.0000000000000000 [Eh]
	 Same-Spin Energy          =      -1.0145930871345539 [Eh]
	 Opposite-Spin Energy      =      -3.0747540389933703 [Eh]
	 Correlation Energy        =      -4.0893471261279242 [Eh]
	 Total Energy              =   -1331.9393790210442603 [Eh]

	 ================> DF-SCS-MP2 Energies <==================
	-----------------------------------------------------------
	 SCS Same-Spin Scale       =       0.3333333333333333 [-]
	 SCS Opposite-Spin Scale   =       1.2000000000000000 [-]
	 SCS Same-Spin Energy      =      -0.3381976957115179 [Eh]
	 SCS Opposite-Spin Energy  =      -3.6897048467920444 [Eh]
	 SCS Correlation Energy    =      -4.0279025425035622 [Eh]
	 SCS Total Energy          =   -1331.8779344374199809 [Eh]
	-----------------------------------------------------------

  Dipole Moment: [D]
     X:    -0.7759      Y:     1.8498      Z:     0.8449     Total:     2.1766

*** Psi4 exiting successfully. Buy a developer a beer!
