                               Psi4 1.3.2 release

  ==> Input File <==

--------------------------------------------------------------------------
#psi4
#
memory 32 gb

molecule  {
0 1
  P       -2.2900960    -0.9400430     0.3446780
  O       -0.9821530    -0.2015620     0.9382890
  O        1.3482607    -1.6851813     1.2258008
  O        0.0787050     2.3596040     0.4621680
  O        3.0685150    -2.1870720    -0.8085900
  O        2.8473350     2.5031130     0.3715350
  O        4.1956880     0.4353970    -0.9728740
  O       -2.8268630     0.0333510    -0.8075310
  O       -3.2591210    -0.7232820     1.6216710
  O       -2.1189930    -2.3436440    -0.0996680
  C        0.1170164     0.0301470     0.0030498
  C        0.9532920    -1.2442050    -0.0757250
  C        0.8985890     1.2026440     0.5648510
  C        2.2596600    -1.0143070    -0.8180370
  C        2.1770750     1.3964720    -0.2280410
  C        3.0258420     0.1487050    -0.2103220
  C       -3.1242130     1.4315980    -0.4888860
  C       -3.5363170     2.0851650    -1.7841190
  H       -0.2830920     0.2988010    -0.9702380
  H        0.3702690    -2.0293640    -0.5720320
  H        1.1571200     0.9978770     1.6121560
  H        2.0609340    -0.7886600    -1.8727560
  H        1.9169870     1.6362870    -1.2735830
  H        3.2958550    -0.0945320     0.8276460
  H        0.5217750    -1.8880320     1.7115100
  H        0.6655400     3.1093110     0.6831840
  H        2.9735430    -2.5473740     0.0946540
  H        3.7214290     2.5491860    -0.0588690
  H        4.6397270    -0.4238340    -1.0970870
  H       -3.8083950    -1.5223380     1.7347280
  H       -3.9305460     1.4455410     0.2493860
  H       -2.2297620     1.8928800    -0.0590960
  H       -3.8005210     3.1308820    -1.6026710
  H       -2.7171960     2.0533230    -2.5048750
  H       -4.4009440     1.5743230    -2.2127240
units angstrom
no_reorient  #important for SAPT in psi4, default
symmetry c1  #important for SAPT in psi4, default
}

set PROPERTIES_ORIGIN ["COM"]
properties('MP2/aug-cc-pvtz', properties = ['dipole'])
--------------------------------------------------------------------------

    Molecular point group: c1
  Charge       = 0
  Multiplicity = 1
  Basis Set: AUG-CC-PVTZ
    Blend: AUG-CC-PVTZ
  Basis Set: (AUG-CC-PVTZ AUX)
    Blend: AUG-CC-PVTZ-JKFIT

    Orbital Energies [Eh]
    ---------------------

    Doubly Occupied:

       1A    -80.116497     2A    -20.614476     3A    -20.606741
       4A    -20.598908     5A    -20.584247     6A    -20.576884
       7A    -20.574261     8A    -20.574117     9A    -20.573669
      10A    -20.523219    11A    -11.321018    12A    -11.303642
      13A    -11.299445    14A    -11.299281    15A    -11.299170
      16A    -11.296726    17A    -11.291476    18A    -11.229957
      19A     -7.631979    20A     -5.530489    21A     -5.530104
      22A     -5.528908    23A     -1.459487    24A     -1.410346
      25A     -1.394203    26A     -1.392711    27A     -1.386740
      28A     -1.372286    29A     -1.363699    30A     -1.353680
      31A     -1.303577    32A     -1.119153    33A     -1.040512
      34A     -1.012186    35A     -1.003176    36A     -0.879678
      37A     -0.864988    38A     -0.858797    39A     -0.822236
      40A     -0.811386    41A     -0.751698    42A     -0.745579
      43A     -0.731339    44A     -0.727891    45A     -0.707884
      46A     -0.687239    47A     -0.677032    48A     -0.673988
      49A     -0.662154    50A     -0.660823    51A     -0.642857
      52A     -0.634713    53A     -0.626971    54A     -0.615501
      55A     -0.603261    56A     -0.598307    57A     -0.581800
      58A     -0.575313    59A     -0.571415    60A     -0.559533
      61A     -0.556684    62A     -0.548877    63A     -0.541203
      64A     -0.536641    65A     -0.530747    66A     -0.521441
      67A     -0.513143    68A     -0.504542    69A     -0.496790
      70A     -0.485866    71A     -0.479786    72A     -0.476564
      73A     -0.462262    74A     -0.456002    75A     -0.450356
      76A     -0.436044

  @DF-RHF Final Energy: -1327.86064867456821

   => Energetics <=

    Nuclear Repulsion Energy =           1772.1598200915022971
    One-Electron Energy =               -5356.4683264587465601
    Two-Electron Energy =                2256.4478576926758251
    Total Energy =                      -1327.8606486745684379
  Basis Set: (AUG-CC-PVTZ AUX)
    Blend: AUG-CC-PVTZ-RI
    Molecular point group: c1

    Geometry (in Angstrom), charge = 0, multiplicity = 1:

       Center              X                  Y                   Z               Mass
    ------------   -----------------  -----------------  -----------------  -----------------
         P           -2.290381994875    -0.939510222007     0.345511175067    30.973761998420
         O           -0.982438994875    -0.201029222007     0.939122175067    15.994914619570
         O            1.347974705125    -1.684648522007     1.226633975067    15.994914619570
         O            0.078419005125     2.360136777993     0.463001175067    15.994914619570
         O            3.068229005125    -2.186539222007    -0.807756824933    15.994914619570
         O            2.847049005125     2.503645777993     0.372368175067    15.994914619570
         O            4.195402005125     0.435929777993    -0.972040824933    15.994914619570
         O           -2.827148994875     0.033883777993    -0.806697824933    15.994914619570
         O           -3.259406994875    -0.722749222007     1.622504175067    15.994914619570
         O           -2.119278994875    -2.343111222007    -0.098834824933    15.994914619570
         C            0.116730405125     0.030679777993     0.003882975067    12.000000000000
         C            0.953006005125    -1.243672222007    -0.074891824933    12.000000000000
         C            0.898303005125     1.203176777993     0.565684175067    12.000000000000
         C            2.259374005125    -1.013774222007    -0.817203824933    12.000000000000
         C            2.176789005125     1.397004777993    -0.227207824933    12.000000000000
         C            3.025556005125     0.149237777993    -0.209488824933    12.000000000000
         C           -3.124498994875     1.432130777993    -0.488052824933    12.000000000000
         C           -3.536602994875     2.085697777993    -1.783285824933    12.000000000000
         H           -0.283377994875     0.299333777993    -0.969404824933     1.007825032230
         H            0.369983005125    -2.028831222007    -0.571198824933     1.007825032230
         H            1.156834005125     0.998409777993     1.612989175067     1.007825032230
         H            2.060648005125    -0.788127222007    -1.871922824933     1.007825032230
         H            1.916701005125     1.636819777993    -1.272749824933     1.007825032230
         H            3.295569005125    -0.093999222007     0.828479175067     1.007825032230
         H            0.521489005125    -1.887499222007     1.712343175067     1.007825032230
         H            0.665254005125     3.109843777993     0.684017175067     1.007825032230
         H            2.973257005125    -2.546841222007     0.095487175067     1.007825032230
         H            3.721143005125     2.549718777993    -0.058035824933     1.007825032230
         H            4.639441005125    -0.423301222007    -1.096253824933     1.007825032230
         H           -3.808680994875    -1.521805222007     1.735561175067     1.007825032230
         H           -3.930831994875     1.446073777993     0.250219175067     1.007825032230
         H           -2.230047994875     1.893412777993    -0.058262824933     1.007825032230
         H           -3.800806994875     3.131414777993    -1.601837824933     1.007825032230
         H           -2.717481994875     2.053855777993    -2.504041824933     1.007825032230
         H           -4.401229994875     1.574855777993    -2.211890824933     1.007825032230

  Basis Set: AUG-CC-PVTZ
    Blend: AUG-CC-PVTZ
  Basis Set: (AUG-CC-PVTZ AUX)
    Blend: AUG-CC-PVTZ-JKFIT
	 Reference Energy          =   -1327.8606486745682105 [Eh]
	 Singles Energy            =      -0.0000000000000000 [Eh]
	 Same-Spin Energy          =      -1.0146900056920518 [Eh]
	 Opposite-Spin Energy      =      -3.0763902420081846 [Eh]
	 Correlation Energy        =      -4.0910802477002361 [Eh]
	 Total Energy              =   -1331.9517289222685577 [Eh]

	 ================> DF-SCS-MP2 Energies <==================
	-----------------------------------------------------------
	 SCS Same-Spin Scale       =       0.3333333333333333 [-]
	 SCS Opposite-Spin Scale   =       1.2000000000000000 [-]
	 SCS Same-Spin Energy      =      -0.3382300018973506 [Eh]
	 SCS Opposite-Spin Energy  =      -3.6916682904098215 [Eh]
	 SCS Correlation Energy    =      -4.0298982923071724 [Eh]
	 SCS Total Energy          =   -1331.8905469668754904 [Eh]
	-----------------------------------------------------------

  Dipole Moment: [D]
     X:    -1.1120      Y:     1.8932      Z:     0.7199     Total:     2.3106

*** Psi4 exiting successfully. Buy a developer a beer!
