                               Psi4 1.3.2 release

  ==> Input File <==

--------------------------------------------------------------------------
#psi4
#
memory 32 gb

molecule  {
0 1
  P       -2.2900960    -0.9400430     0.3446780
  O       -0.9821530    -0.2015620     0.9382890
  O        1.3422500    -1.6754830     1.2308510
  O        0.0787050     2.3596040     0.4621680
  O        3.0685150    -2.1870720    -0.8085900
  O        2.8473350     2.5031130     0.3715350
  O        4.1956880     0.4353970    -0.9728740
  O       -2.8268630     0.0333510    -0.8075310
  O       -3.2591210    -0.7232820     1.6216710
  O       -2.1189930    -2.3436440    -0.0996680
  C        0.0995937     0.0341089     0.0346069
  C        0.9532920    -1.2442050    -0.0757250
  C        0.8985890     1.2026440     0.5648510
  C        2.2596600    -1.0143070    -0.8180370
  C        2.1832486     1.4170763    -0.2126077
  C        3.0258420     0.1487050    -0.2103220
  C       -3.1242130     1.4315980    -0.4888860
  C       -3.5363170     2.0851650    -1.7841190
  H       -0.2830920     0.2988010    -0.9702380
  H        0.3702690    -2.0293640    -0.5720320
  H        1.1571200     0.9978770     1.6121560
  H        2.0609340    -0.7886600    -1.8727560
  H        1.9169870     1.6362870    -1.2735830
  H        3.2958550    -0.0945320     0.8276460
  H        0.5217750    -1.8880320     1.7115100
  H        0.6655400     3.1093110     0.6831840
  H        2.9735430    -2.5473740     0.0946540
  H        3.7214290     2.5491860    -0.0588690
  H        4.6397270    -0.4238340    -1.0970870
  H       -3.8083950    -1.5223380     1.7347280
  H       -3.9305460     1.4455410     0.2493860
  H       -2.2297620     1.8928800    -0.0590960
  H       -3.8005210     3.1308820    -1.6026710
  H       -2.7171960     2.0533230    -2.5048750
  H       -4.4009440     1.5743230    -2.2127240
units angstrom
no_reorient  #important for SAPT in psi4, default
symmetry c1  #important for SAPT in psi4, default
}

set PROPERTIES_ORIGIN ["COM"]
properties('MP2/aug-cc-pvtz', properties = ['dipole'])
--------------------------------------------------------------------------

    Molecular point group: c1
  Charge       = 0
  Multiplicity = 1
  Basis Set: AUG-CC-PVTZ
    Blend: AUG-CC-PVTZ
  Basis Set: (AUG-CC-PVTZ AUX)
    Blend: AUG-CC-PVTZ-JKFIT

    Orbital Energies [Eh]
    ---------------------

    Doubly Occupied:

       1A    -80.118713     2A    -20.615911     3A    -20.609840
       4A    -20.599764     5A    -20.581839     6A    -20.579203
       7A    -20.573955     8A    -20.573119     9A    -20.572260
      10A    -20.524498    11A    -11.320044    12A    -11.302354
      13A    -11.299809    14A    -11.298298    15A    -11.297223
      16A    -11.296556    17A    -11.290357    18A    -11.230034
      19A     -7.634141    20A     -5.532649    21A     -5.532285
      22A     -5.531056    23A     -1.464193    24A     -1.412567
      25A     -1.399885    26A     -1.394519    27A     -1.387795
      28A     -1.373438    29A     -1.365618    30A     -1.355099
      31A     -1.305006    32A     -1.114064    33A     -1.040811
      34A     -1.009093    35A     -1.001219    36A     -0.882381
      37A     -0.865477    38A     -0.857377    39A     -0.823855
      40A     -0.808368    41A     -0.751904    42A     -0.746053
      43A     -0.732295    44A     -0.730496    45A     -0.709856
      46A     -0.686668    47A     -0.677583    48A     -0.673694
      49A     -0.663210    50A     -0.661553    51A     -0.646104
      52A     -0.636258    53A     -0.628138    54A     -0.615226
      55A     -0.606845    56A     -0.597251    57A     -0.581424
      58A     -0.576765    59A     -0.571992    60A     -0.561107
      61A     -0.556142    62A     -0.548320    63A     -0.541522
      64A     -0.536060    65A     -0.529862    66A     -0.521817
      67A     -0.513256    68A     -0.503296    69A     -0.497499
      70A     -0.483093    71A     -0.480316    72A     -0.477000
      73A     -0.460476    74A     -0.450808    75A     -0.446631
      76A     -0.435387

  @DF-RHF Final Energy: -1327.86134138921057

   => Energetics <=

    Nuclear Repulsion Energy =           1772.4794108071575920
    One-Electron Energy =               -5357.0603470201840537
    Two-Electron Energy =                2256.7195948238158962
    Total Energy =                      -1327.8613413892107928
  Basis Set: (AUG-CC-PVTZ AUX)
    Blend: AUG-CC-PVTZ-RI
    Molecular point group: c1

    Geometry (in Angstrom), charge = 0, multiplicity = 1:

       Center              X                  Y                   Z               Mass
    ------------   -----------------  -----------------  -----------------  -----------------
         P           -2.289579630730    -0.941072105950     0.343273238397    30.973761998420
         O           -0.981636630730    -0.202591105950     0.936884238397    15.994914619570
         O            1.342766369270    -1.676512105950     1.229446238397    15.994914619570
         O            0.079221369270     2.358574894050     0.460763238397    15.994914619570
         O            3.069031369270    -2.188101105950    -0.809994761603    15.994914619570
         O            2.847851369270     2.502083894050     0.370130238397    15.994914619570
         O            4.196204369270     0.434367894050    -0.974278761603    15.994914619570
         O           -2.826346630730     0.032321894050    -0.808935761603    15.994914619570
         O           -3.258604630730    -0.724311105950     1.620266238397    15.994914619570
         O           -2.118476630730    -2.344673105950    -0.101072761603    15.994914619570
         C            0.100110069270     0.033079794050     0.033202138397    12.000000000000
         C            0.953808369270    -1.245234105950    -0.077129761603    12.000000000000
         C            0.899105369270     1.201614894050     0.563446238397    12.000000000000
         C            2.260176369270    -1.015336105950    -0.819441761603    12.000000000000
         C            2.183764969270     1.416047194050    -0.214012461603    12.000000000000
         C            3.026358369270     0.147675894050    -0.211726761603    12.000000000000
         C           -3.123696630730     1.430568894050    -0.490290761603    12.000000000000
         C           -3.535800630730     2.084135894050    -1.785523761603    12.000000000000
         H           -0.282575630730     0.297771894050    -0.971642761603     1.007825032230
         H            0.370785369270    -2.030393105950    -0.573436761603     1.007825032230
         H            1.157636369270     0.996847894050     1.610751238397     1.007825032230
         H            2.061450369270    -0.789689105950    -1.874160761603     1.007825032230
         H            1.917503369270     1.635257894050    -1.274987761603     1.007825032230
         H            3.296371369270    -0.095561105950     0.826241238397     1.007825032230
         H            0.522291369270    -1.889061105950     1.710105238397     1.007825032230
         H            0.666056369270     3.108281894050     0.681779238397     1.007825032230
         H            2.974059369270    -2.548403105950     0.093249238397     1.007825032230
         H            3.721945369270     2.548156894050    -0.060273761603     1.007825032230
         H            4.640243369270    -0.424863105950    -1.098491761603     1.007825032230
         H           -3.807878630730    -1.523367105950     1.733323238397     1.007825032230
         H           -3.930029630730     1.444511894050     0.247981238397     1.007825032230
         H           -2.229245630730     1.891850894050    -0.060500761603     1.007825032230
         H           -3.800004630730     3.129852894050    -1.604075761603     1.007825032230
         H           -2.716679630730     2.052293894050    -2.506279761603     1.007825032230
         H           -4.400427630730     1.573293894050    -2.214128761603     1.007825032230

  Basis Set: AUG-CC-PVTZ
    Blend: AUG-CC-PVTZ
  Basis Set: (AUG-CC-PVTZ AUX)
    Blend: AUG-CC-PVTZ-JKFIT
	 Reference Energy          =   -1327.8613413892105655 [Eh]
	 Singles Energy            =      -0.0000000000000000 [Eh]
	 Same-Spin Energy          =      -1.0143845876643729 [Eh]
	 Opposite-Spin Energy      =      -3.0753725523519129 [Eh]
	 Correlation Energy        =      -4.0897571400162853 [Eh]
	 Total Energy              =   -1331.9510985292267833 [Eh]

	 ================> DF-SCS-MP2 Energies <==================
	-----------------------------------------------------------
	 SCS Same-Spin Scale       =       0.3333333333333333 [-]
	 SCS Opposite-Spin Scale   =       1.2000000000000000 [-]
	 SCS Same-Spin Energy      =      -0.3381281958881243 [Eh]
	 SCS Opposite-Spin Energy  =      -3.6904470628222952 [Eh]
	 SCS Correlation Energy    =      -4.0285752587104193 [Eh]
	 SCS Total Energy          =   -1331.8899166479209271 [Eh]
	-----------------------------------------------------------

  Dipole Moment: [D]
     X:    -1.1818      Y:     1.9131      Z:     0.7864     Total:     2.3822

*** Psi4 exiting successfully. Buy a developer a beer!
