                               Psi4 1.3.2 release

  ==> Input File <==

--------------------------------------------------------------------------
#psi4
#
memory 32 gb

molecule  {
0 1
  P       -2.2900960    -0.9400430     0.3446780
  O       -0.9821530    -0.2015620     0.9382890
  O        1.3422500    -1.6754830     1.2308510
  O        0.0787050     2.3596040     0.4621680
  O        3.0685150    -2.1870720    -0.8085900
  O        2.8473350     2.5031130     0.3715350
  O        4.1956880     0.4353970    -0.9728740
  O       -2.8268630     0.0333510    -0.8075310
  O       -3.2591210    -0.7232820     1.6216710
  O       -2.1189930    -2.3436440    -0.0996680
  C        0.1181620     0.0300090     0.0163190
  C        0.9532920    -1.2442050    -0.0757250
  C        0.8985890     1.2026440     0.5648510
  C        2.2596600    -1.0143070    -0.8180370
  C        2.2375705     1.3852594    -0.2703254
  C        3.0258420     0.1487050    -0.2103220
  C       -3.1242130     1.4315980    -0.4888860
  C       -3.5363170     2.0851650    -1.7841190
  H       -0.2830920     0.2988010    -0.9702380
  H        0.3702690    -2.0293640    -0.5720320
  H        1.1571200     0.9978770     1.6121560
  H        2.0609340    -0.7886600    -1.8727560
  H        1.9169870     1.6362870    -1.2735830
  H        3.2958550    -0.0945320     0.8276460
  H        0.5217750    -1.8880320     1.7115100
  H        0.6655400     3.1093110     0.6831840
  H        2.9735430    -2.5473740     0.0946540
  H        3.7082417     2.5086322    -0.0869623
  H        4.6397270    -0.4238340    -1.0970870
  H       -3.8083950    -1.5223380     1.7347280
  H       -3.9305460     1.4455410     0.2493860
  H       -2.2297620     1.8928800    -0.0590960
  H       -3.8005210     3.1308820    -1.6026710
  H       -2.7171960     2.0533230    -2.5048750
  H       -4.4009440     1.5743230    -2.2127240
units angstrom
no_reorient  #important for SAPT in psi4, default
symmetry c1  #important for SAPT in psi4, default
}

set PROPERTIES_ORIGIN ["COM"]
properties('MP2/aug-cc-pvtz', properties = ['dipole'])
--------------------------------------------------------------------------

    Molecular point group: c1
  Charge       = 0
  Multiplicity = 1
  Basis Set: AUG-CC-PVTZ
    Blend: AUG-CC-PVTZ
  Basis Set: (AUG-CC-PVTZ AUX)
    Blend: AUG-CC-PVTZ-JKFIT

    Orbital Energies [Eh]
    ---------------------

    Doubly Occupied:

       1A    -80.116297     2A    -20.614245     3A    -20.605844
       4A    -20.598500     5A    -20.583092     6A    -20.579589
       7A    -20.576067     8A    -20.574411     9A    -20.573483
      10A    -20.522990    11A    -11.318854    12A    -11.303488
      13A    -11.300999    14A    -11.299427    15A    -11.299084
      16A    -11.295722    17A    -11.290619    18A    -11.229690
      19A     -7.631758    20A     -5.530264    21A     -5.529885
      22A     -5.528692    23A     -1.459560    24A     -1.411457
      25A     -1.396762    26A     -1.392752    27A     -1.386436
      28A     -1.372677    29A     -1.365156    30A     -1.355450
      31A     -1.303387    32A     -1.116978    33A     -1.040274
      34A     -1.016701    35A     -0.997074    36A     -0.876888
      37A     -0.863563    38A     -0.862301    39A     -0.821481
      40A     -0.811356    41A     -0.751886    42A     -0.746730
      43A     -0.731747    44A     -0.727702    45A     -0.705452
      46A     -0.687193    47A     -0.678821    48A     -0.673507
      49A     -0.664111    50A     -0.659660    51A     -0.641498
      52A     -0.632844    53A     -0.628472    54A     -0.616809
      55A     -0.602024    56A     -0.599050    57A     -0.581915
      58A     -0.575247    59A     -0.571049    60A     -0.563638
      61A     -0.557032    62A     -0.547468    63A     -0.541599
      64A     -0.539643    65A     -0.529650    66A     -0.519472
      67A     -0.513235    68A     -0.504895    69A     -0.495445
      70A     -0.484223    71A     -0.479227    72A     -0.476278
      73A     -0.466196    74A     -0.456108    75A     -0.444768
      76A     -0.437317

  @DF-RHF Final Energy: -1327.85343827995439

   => Energetics <=

    Nuclear Repulsion Energy =           1771.9459136363839207
    One-Electron Energy =               -5356.0283805017988925
    Two-Electron Energy =                2256.2290285854605827
    Total Energy =                      -1327.8534382799543891
  Basis Set: (AUG-CC-PVTZ AUX)
    Blend: AUG-CC-PVTZ-RI
    Molecular point group: c1

    Geometry (in Angstrom), charge = 0, multiplicity = 1:

       Center              X                  Y                   Z               Mass
    ------------   -----------------  -----------------  -----------------  -----------------
         P           -2.292569941295    -0.939434006022     0.346537756220    30.973761998420
         O           -0.984626941295    -0.200953006022     0.940148756220    15.994914619570
         O            1.339776058705    -1.674874006022     1.232710756220    15.994914619570
         O            0.076231058705     2.360212993978     0.464027756220    15.994914619570
         O            3.066041058705    -2.186463006022    -0.806730243780    15.994914619570
         O            2.844861058705     2.503721993978     0.373394756220    15.994914619570
         O            4.193214058705     0.436005993978    -0.971014243780    15.994914619570
         O           -2.829336941295     0.033959993978    -0.805671243780    15.994914619570
         O           -3.261594941295    -0.722673006022     1.623530756220    15.994914619570
         O           -2.121466941295    -2.343035006022    -0.097808243780    15.994914619570
         C            0.115688058705     0.030617993978     0.018178756220    12.000000000000
         C            0.950818058705    -1.243596006022    -0.073865243780    12.000000000000
         C            0.896115058705     1.203252993978     0.566710756220    12.000000000000
         C            2.257186058705    -1.013698006022    -0.816177243780    12.000000000000
         C            2.235096558705     1.385868393978    -0.268465643780    12.000000000000
         C            3.023368058705     0.149313993978    -0.208462243780    12.000000000000
         C           -3.126686941295     1.432206993978    -0.487026243780    12.000000000000
         C           -3.538790941295     2.085773993978    -1.782259243780    12.000000000000
         H           -0.285565941295     0.299409993978    -0.968378243780     1.007825032230
         H            0.367795058705    -2.028755006022    -0.570172243780     1.007825032230
         H            1.154646058705     0.998485993978     1.614015756220     1.007825032230
         H            2.058460058705    -0.788051006022    -1.870896243780     1.007825032230
         H            1.914513058705     1.636895993978    -1.271723243780     1.007825032230
         H            3.293381058705    -0.093923006022     0.829505756220     1.007825032230
         H            0.519301058705    -1.887423006022     1.713369756220     1.007825032230
         H            0.663066058705     3.109919993978     0.685043756220     1.007825032230
         H            2.971069058705    -2.546765006022     0.096513756220     1.007825032230
         H            3.705767758705     2.509241193978    -0.085102543780     1.007825032230
         H            4.637253058705    -0.423225006022    -1.095227243780     1.007825032230
         H           -3.810868941295    -1.521729006022     1.736587756220     1.007825032230
         H           -3.933019941295     1.446149993978     0.251245756220     1.007825032230
         H           -2.232235941295     1.893488993978    -0.057236243780     1.007825032230
         H           -3.802994941295     3.131490993978    -1.600811243780     1.007825032230
         H           -2.719669941295     2.053931993978    -2.503015243780     1.007825032230
         H           -4.403417941295     1.574931993978    -2.210864243780     1.007825032230

  Basis Set: AUG-CC-PVTZ
    Blend: AUG-CC-PVTZ
  Basis Set: (AUG-CC-PVTZ AUX)
    Blend: AUG-CC-PVTZ-JKFIT
	 Reference Energy          =   -1327.8534382799543891 [Eh]
	 Singles Energy            =      -0.0000000000000000 [Eh]
	 Same-Spin Energy          =      -1.0152015087738280 [Eh]
	 Opposite-Spin Energy      =      -3.0773882262534236 [Eh]
	 Correlation Energy        =      -4.0925897350272518 [Eh]
	 Total Energy              =   -1331.9460280149817208 [Eh]

	 ================> DF-SCS-MP2 Energies <==================
	-----------------------------------------------------------
	 SCS Same-Spin Scale       =       0.3333333333333333 [-]
	 SCS Opposite-Spin Scale   =       1.2000000000000000 [-]
	 SCS Same-Spin Energy      =      -0.3384005029246093 [Eh]
	 SCS Opposite-Spin Energy  =      -3.6928658715041083 [Eh]
	 SCS Correlation Energy    =      -4.0312663744287178 [Eh]
	 SCS Total Energy          =   -1331.8847046543830857 [Eh]
	-----------------------------------------------------------

  Dipole Moment: [D]
     X:    -1.0753      Y:     1.8168      Z:     0.6700     Total:     2.2149

*** Psi4 exiting successfully. Buy a developer a beer!
