                               Psi4 1.3.2 release

  ==> Input File <==

--------------------------------------------------------------------------
#psi4
#
memory 32 gb

molecule  {
0 1
  P       -2.2900960    -0.9400430     0.3446780
  O       -0.9821530    -0.2015620     0.9382890
  O        1.3422500    -1.6754830     1.2308510
  O        0.0787050     2.3596040     0.4621680
  O        3.0685150    -2.1870720    -0.8085900
  O        2.8473350     2.5031130     0.3715350
  O        4.1956880     0.4353970    -0.9728740
  O       -2.8268630     0.0333510    -0.8075310
  O       -3.2591210    -0.7232820     1.6216710
  O       -2.1189930    -2.3436440    -0.0996680
  C        0.1148084     0.0550867    -0.0299824
  C        0.9532920    -1.2442050    -0.0757250
  C        0.8985890     1.2026440     0.5648510
  C        2.2596600    -1.0143070    -0.8180370
  C        2.1770750     1.3964720    -0.2280410
  C        3.0258420     0.1487050    -0.2103220
  C       -3.1242130     1.4315980    -0.4888860
  C       -3.5363170     2.0851650    -1.7841190
  H       -0.2830920     0.2988010    -0.9702380
  H        0.3702690    -2.0293640    -0.5720320
  H        1.1747874     1.0318508     1.6137360
  H        2.0609340    -0.7886600    -1.8727560
  H        1.9169870     1.6362870    -1.2735830
  H        3.2958550    -0.0945320     0.8276460
  H        0.5217750    -1.8880320     1.7115100
  H        0.6655400     3.1093110     0.6831840
  H        2.9735430    -2.5473740     0.0946540
  H        3.7214290     2.5491860    -0.0588690
  H        4.6397270    -0.4238340    -1.0970870
  H       -3.8083950    -1.5223380     1.7347280
  H       -3.9305460     1.4455410     0.2493860
  H       -2.2297620     1.8928800    -0.0590960
  H       -3.8005210     3.1308820    -1.6026710
  H       -2.7171960     2.0533230    -2.5048750
  H       -4.4009440     1.5743230    -2.2127240
units angstrom
no_reorient  #important for SAPT in psi4, default
symmetry c1  #important for SAPT in psi4, default
}

set PROPERTIES_ORIGIN ["COM"]
properties('MP2/aug-cc-pvtz', properties = ['dipole'])
--------------------------------------------------------------------------

    Molecular point group: c1
  Charge       = 0
  Multiplicity = 1
  Basis Set: AUG-CC-PVTZ
    Blend: AUG-CC-PVTZ
  Basis Set: (AUG-CC-PVTZ AUX)
    Blend: AUG-CC-PVTZ-JKFIT

    Orbital Energies [Eh]
    ---------------------

    Doubly Occupied:

       1A    -80.114674     2A    -20.613235     3A    -20.604090
       4A    -20.598250     5A    -20.584386     6A    -20.577364
       7A    -20.574405     8A    -20.574249     9A    -20.572992
      10A    -20.522099    11A    -11.321175    12A    -11.305369
      13A    -11.299849    14A    -11.299145    15A    -11.299077
      16A    -11.296801    17A    -11.291797    18A    -11.229862
      19A     -7.630197    20A     -5.528714    21A     -5.528315
      22A     -5.527128    23A     -1.456361    24A     -1.409594
      25A     -1.394033    26A     -1.390627    27A     -1.385879
      28A     -1.370645    29A     -1.364086    30A     -1.353816
      31A     -1.302323    32A     -1.119633    33A     -1.040238
      34A     -1.012170    35A     -1.003489    36A     -0.878521
      37A     -0.865180    38A     -0.857799    39A     -0.822408
      40A     -0.814372    41A     -0.750790    42A     -0.746186
      43A     -0.731184    44A     -0.725975    45A     -0.707254
      46A     -0.687029    47A     -0.677082    48A     -0.674081
      49A     -0.662267    50A     -0.660620    51A     -0.640915
      52A     -0.634628    53A     -0.625793    54A     -0.615200
      55A     -0.601222    56A     -0.598568    57A     -0.582582
      58A     -0.573803    59A     -0.570406    60A     -0.559703
      61A     -0.557190    62A     -0.549185    63A     -0.541097
      64A     -0.537322    65A     -0.532478    66A     -0.522061
      67A     -0.513015    68A     -0.505799    69A     -0.497236
      70A     -0.486609    71A     -0.478940    72A     -0.475666
      73A     -0.460793    74A     -0.456335    75A     -0.449451
      76A     -0.436486

  @DF-RHF Final Energy: -1327.85746386641767

   => Energetics <=

    Nuclear Repulsion Energy =           1771.8673858269812627
    One-Electron Energy =               -5355.9311041854725772
    Two-Electron Energy =                2256.2062544920736400
    Total Energy =                      -1327.8574638664176746
  Basis Set: (AUG-CC-PVTZ AUX)
    Blend: AUG-CC-PVTZ-RI
    Molecular point group: c1

    Geometry (in Angstrom), charge = 0, multiplicity = 1:

       Center              X                  Y                   Z               Mass
    ------------   -----------------  -----------------  -----------------  -----------------
         P           -2.290018075502    -0.941206527630     0.346601279239    30.973761998420
         O           -0.982075075502    -0.202725527630     0.940212279239    15.994914619570
         O            1.342327924498    -1.676646527630     1.232774279239    15.994914619570
         O            0.078782924498     2.358440472370     0.464091279239    15.994914619570
         O            3.068592924498    -2.188235527630    -0.806666720761    15.994914619570
         O            2.847412924498     2.501949472370     0.373458279239    15.994914619570
         O            4.195765924498     0.434233472370    -0.970950720761    15.994914619570
         O           -2.826785075502     0.032187472370    -0.805607720761    15.994914619570
         O           -3.259043075502    -0.724445527630     1.623594279239    15.994914619570
         O           -2.118915075502    -2.344807527630    -0.097744720761    15.994914619570
         C            0.114886324498     0.053923172370    -0.028059120761    12.000000000000
         C            0.953369924498    -1.245368527630    -0.073801720761    12.000000000000
         C            0.898666924498     1.201480472370     0.566774279239    12.000000000000
         C            2.259737924498    -1.015470527630    -0.816113720761    12.000000000000
         C            2.177152924498     1.395308472370    -0.226117720761    12.000000000000
         C            3.025919924498     0.147541472370    -0.208398720761    12.000000000000
         C           -3.124135075502     1.430434472370    -0.486962720761    12.000000000000
         C           -3.536239075502     2.084001472370    -1.782195720761    12.000000000000
         H           -0.283014075502     0.297637472370    -0.968314720761     1.007825032230
         H            0.370346924498    -2.030527527630    -0.570108720761     1.007825032230
         H            1.174865324498     1.030687272370     1.615659279239     1.007825032230
         H            2.061011924498    -0.789823527630    -1.870832720761     1.007825032230
         H            1.917064924498     1.635123472370    -1.271659720761     1.007825032230
         H            3.295932924498    -0.095695527630     0.829569279239     1.007825032230
         H            0.521852924498    -1.889195527630     1.713433279239     1.007825032230
         H            0.665617924498     3.108147472370     0.685107279239     1.007825032230
         H            2.973620924498    -2.548537527630     0.096577279239     1.007825032230
         H            3.721506924498     2.548022472370    -0.056945720761     1.007825032230
         H            4.639804924498    -0.424997527630    -1.095163720761     1.007825032230
         H           -3.808317075502    -1.523501527630     1.736651279239     1.007825032230
         H           -3.930468075502     1.444377472370     0.251309279239     1.007825032230
         H           -2.229684075502     1.891716472370    -0.057172720761     1.007825032230
         H           -3.800443075502     3.129718472370    -1.600747720761     1.007825032230
         H           -2.717118075502     2.052159472370    -2.502951720761     1.007825032230
         H           -4.400866075502     1.573159472370    -2.210800720761     1.007825032230

  Basis Set: AUG-CC-PVTZ
    Blend: AUG-CC-PVTZ
  Basis Set: (AUG-CC-PVTZ AUX)
    Blend: AUG-CC-PVTZ-JKFIT
	 Reference Energy          =   -1327.8574638664176746 [Eh]
	 Singles Energy            =      -0.0000000000000000 [Eh]
	 Same-Spin Energy          =      -1.0146006400661294 [Eh]
	 Opposite-Spin Energy      =      -3.0765458581117802 [Eh]
	 Correlation Energy        =      -4.0911464981779098 [Eh]
	 Total Energy              =   -1331.9486103645956518 [Eh]

	 ================> DF-SCS-MP2 Energies <==================
	-----------------------------------------------------------
	 SCS Same-Spin Scale       =       0.3333333333333333 [-]
	 SCS Opposite-Spin Scale   =       1.2000000000000000 [-]
	 SCS Same-Spin Energy      =      -0.3382002133553764 [Eh]
	 SCS Opposite-Spin Energy  =      -3.6918550297341359 [Eh]
	 SCS Correlation Energy    =      -4.0300552430895120 [Eh]
	 SCS Total Energy          =   -1331.8875191095071386 [Eh]
	-----------------------------------------------------------

  Dipole Moment: [D]
     X:    -1.0227      Y:     1.9159      Z:     0.6829     Total:     2.2766

*** Psi4 exiting successfully. Buy a developer a beer!
