                               Psi4 1.3.2 release

  ==> Input File <==

--------------------------------------------------------------------------
#psi4
#
memory 32 gb

molecule  {
0 1
  P       -2.2900960    -0.9400430     0.3446780
  O       -0.9821530    -0.2015620     0.9382890
  O        1.3422500    -1.6754830     1.2308510
  O        0.0787050     2.3596040     0.4621680
  O        3.0685150    -2.1870720    -0.8085900
  O        2.8473350     2.5031130     0.3715350
  O        4.1956880     0.4353970    -0.9728740
  O       -2.8268630     0.0333510    -0.8075310
  O       -3.2591210    -0.7232820     1.6216710
  O       -2.1189930    -2.3436440    -0.0996680
  C        0.1181620     0.0300090     0.0163190
  C        0.9532920    -1.2442050    -0.0757250
  C        0.8985890     1.2026440     0.5648510
  C        2.2596600    -1.0143070    -0.8180370
  C        2.1770750     1.3964720    -0.2280410
  C        3.0258420     0.1487050    -0.2103220
  C       -3.1242130     1.4315980    -0.4888860
  C       -3.5363170     2.0851650    -1.7841190
  H       -0.2830920     0.2988010    -0.9702380
  H        0.3702690    -2.0293640    -0.5720320
  H        1.1571200     0.9978770     1.6121560
  H        2.0609340    -0.7886600    -1.8727560
  H        1.9169870     1.6362870    -1.2735830
  H        3.2958550    -0.0945320     0.8276460
  H        0.5217750    -1.8880320     1.7115100
  H        0.7255813     3.1860163     0.7057970
  H        2.9735430    -2.5473740     0.0946540
  H        3.7214290     2.5491860    -0.0588690
  H        4.6397270    -0.4238340    -1.0970870
  H       -3.8083950    -1.5223380     1.7347280
  H       -3.9305460     1.4455410     0.2493860
  H       -2.2297620     1.8928800    -0.0590960
  H       -3.8005210     3.1308820    -1.6026710
  H       -2.7171960     2.0533230    -2.5048750
  H       -4.4009440     1.5743230    -2.2127240
units angstrom
no_reorient  #important for SAPT in psi4, default
symmetry c1  #important for SAPT in psi4, default
}

set PROPERTIES_ORIGIN ["COM"]
properties('MP2/aug-cc-pvtz', properties = ['dipole'])
--------------------------------------------------------------------------

    Molecular point group: c1
  Charge       = 0
  Multiplicity = 1
  Basis Set: AUG-CC-PVTZ
    Blend: AUG-CC-PVTZ
  Basis Set: (AUG-CC-PVTZ AUX)
    Blend: AUG-CC-PVTZ-JKFIT

    Orbital Energies [Eh]
    ---------------------

    Doubly Occupied:

       1A    -80.116564     2A    -20.614405     3A    -20.606525
       4A    -20.598565     5A    -20.582763     6A    -20.579283
       7A    -20.577457     8A    -20.574379     9A    -20.573897
      10A    -20.523097    11A    -11.320183    12A    -11.303199
      13A    -11.299081    14A    -11.299000    15A    -11.297315
      16A    -11.296150    17A    -11.291117    18A    -11.229553
      19A     -7.632014    20A     -5.530521    21A     -5.530147
      22A     -5.528946    23A     -1.459821    24A     -1.409711
      25A     -1.394416    26A     -1.389752    27A     -1.386228
      28A     -1.370319    29A     -1.358268    30A     -1.347265
      31A     -1.303443    32A     -1.117046    33A     -1.040096
      34A     -1.011190    35A     -1.000626    36A     -0.879832
      37A     -0.864551    38A     -0.855850    39A     -0.821685
      40A     -0.810036    41A     -0.747725    42A     -0.744520
      43A     -0.729557    44A     -0.727354    45A     -0.706482
      46A     -0.680992    47A     -0.677811    48A     -0.672988
      49A     -0.661657    50A     -0.659792    51A     -0.638882
      52A     -0.631292    53A     -0.626801    54A     -0.614909
      55A     -0.601899    56A     -0.597668    57A     -0.580838
      58A     -0.575159    59A     -0.570713    60A     -0.556714
      61A     -0.555705    62A     -0.547912    63A     -0.540791
      64A     -0.536079    65A     -0.529332    66A     -0.519980
      67A     -0.512690    68A     -0.503704    69A     -0.496025
      70A     -0.483872    71A     -0.479015    72A     -0.476169
      73A     -0.461021    74A     -0.455450    75A     -0.448457
      76A     -0.435890

  @DF-RHF Final Energy: -1327.84793285825572

   => Energetics <=

    Nuclear Repulsion Energy =           1771.7761867062281453
    One-Electron Energy =               -5355.8279526115602494
    Two-Electron Energy =                2256.2038330470763867
    Total Energy =                      -1327.8479328582557173
  Basis Set: (AUG-CC-PVTZ AUX)
    Blend: AUG-CC-PVTZ-RI
    Molecular point group: c1

    Geometry (in Angstrom), charge = 0, multiplicity = 1:

       Center              X                  Y                   Z               Mass
    ------------   -----------------  -----------------  -----------------  -----------------
         P           -2.290306030733    -0.940311347416     0.344598875770    30.973761998420
         O           -0.982363030733    -0.201830347416     0.938209875770    15.994914619570
         O            1.342039969267    -1.675751347416     1.230771875770    15.994914619570
         O            0.078494969267     2.359335652584     0.462088875770    15.994914619570
         O            3.068304969267    -2.187340347416    -0.808669124230    15.994914619570
         O            2.847124969267     2.502844652584     0.371455875770    15.994914619570
         O            4.195477969267     0.435128652584    -0.972953124230    15.994914619570
         O           -2.827073030733     0.033082652584    -0.807610124230    15.994914619570
         O           -3.259331030733    -0.723550347416     1.621591875770    15.994914619570
         O           -2.119203030733    -2.343912347416    -0.099747124230    15.994914619570
         C            0.117951969267     0.029740652584     0.016239875770    12.000000000000
         C            0.953081969267    -1.244473347416    -0.075804124230    12.000000000000
         C            0.898378969267     1.202375652584     0.564771875770    12.000000000000
         C            2.259449969267    -1.014575347416    -0.818116124230    12.000000000000
         C            2.176864969267     1.396203652584    -0.228120124230    12.000000000000
         C            3.025631969267     0.148436652584    -0.210401124230    12.000000000000
         C           -3.124423030733     1.431329652584    -0.488965124230    12.000000000000
         C           -3.536527030733     2.084896652584    -1.784198124230    12.000000000000
         H           -0.283302030733     0.298532652584    -0.970317124230     1.007825032230
         H            0.370058969267    -2.029632347416    -0.572111124230     1.007825032230
         H            1.156909969267     0.997608652584     1.612076875770     1.007825032230
         H            2.060723969267    -0.788928347416    -1.872835124230     1.007825032230
         H            1.916776969267     1.636018652584    -1.273662124230     1.007825032230
         H            3.295644969267    -0.094800347416     0.827566875770     1.007825032230
         H            0.521564969267    -1.888300347416     1.711430875770     1.007825032230
         H            0.725371269267     3.185747952584     0.705717875770     1.007825032230
         H            2.973332969267    -2.547642347416     0.094574875770     1.007825032230
         H            3.721218969267     2.548917652584    -0.058948124230     1.007825032230
         H            4.639516969267    -0.424102347416    -1.097166124230     1.007825032230
         H           -3.808605030733    -1.522606347416     1.734648875770     1.007825032230
         H           -3.930756030733     1.445272652584     0.249306875770     1.007825032230
         H           -2.229972030733     1.892611652584    -0.059175124230     1.007825032230
         H           -3.800731030733     3.130613652584    -1.602750124230     1.007825032230
         H           -2.717406030733     2.053054652584    -2.504954124230     1.007825032230
         H           -4.401154030733     1.574054652584    -2.212803124230     1.007825032230

  Basis Set: AUG-CC-PVTZ
    Blend: AUG-CC-PVTZ
  Basis Set: (AUG-CC-PVTZ AUX)
    Blend: AUG-CC-PVTZ-JKFIT
	 Reference Energy          =   -1327.8479328582557173 [Eh]
	 Singles Energy            =      -0.0000000000000000 [Eh]
	 Same-Spin Energy          =      -1.0159205955377395 [Eh]
	 Opposite-Spin Energy      =      -3.0794118409916695 [Eh]
	 Correlation Energy        =      -4.0953324365294090 [Eh]
	 Total Energy              =   -1331.9432652947850784 [Eh]

	 ================> DF-SCS-MP2 Energies <==================
	-----------------------------------------------------------
	 SCS Same-Spin Scale       =       0.3333333333333333 [-]
	 SCS Opposite-Spin Scale   =       1.2000000000000000 [-]
	 SCS Same-Spin Energy      =      -0.3386401985125798 [Eh]
	 SCS Opposite-Spin Energy  =      -3.6952942091900032 [Eh]
	 SCS Correlation Energy    =      -4.0339344077025832 [Eh]
	 SCS Total Energy          =   -1331.8818672659583626 [Eh]
	-----------------------------------------------------------

  Dipole Moment: [D]
     X:    -1.0501      Y:     1.9572      Z:     0.7428     Total:     2.3420

*** Psi4 exiting successfully. Buy a developer a beer!
