                               Psi4 1.3.2 release

  ==> Input File <==

--------------------------------------------------------------------------
#psi4
#
memory 32 gb

molecule  {
0 1
  P       -2.2900960    -0.9400430     0.3446780
  O       -0.9821530    -0.2015620     0.9382890
  O        1.3422500    -1.6754830     1.2308510
  O        0.0787050     2.3596040     0.4621680
  O        3.0685150    -2.1870720    -0.8085900
  O        2.8473350     2.5031130     0.3715350
  O        4.1956880     0.4353970    -0.9728740
  O       -2.8268630     0.0333510    -0.8075310
  O       -3.2591210    -0.7232820     1.6216710
  O       -2.1189930    -2.3436440    -0.0996680
  C        0.1181620     0.0300090     0.0163190
  C        0.9532920    -1.2442050    -0.0757250
  C        0.8985890     1.2026440     0.5648510
  C        2.2596600    -1.0143070    -0.8180370
  C        2.0085016     1.3709150    -0.1234951
  C        3.0258420     0.1487050    -0.2103220
  C       -3.1242130     1.4315980    -0.4888860
  C       -3.5363170     2.0851650    -1.7841190
  H       -0.2830920     0.2988010    -0.9702380
  H        0.3702690    -2.0293640    -0.5720320
  H        1.1571200     0.9978770     1.6121560
  H        2.0609340    -0.7886600    -1.8727560
  H        1.9169870     1.6362870    -1.2735830
  H        3.2958550    -0.0945320     0.8276460
  H        0.5217750    -1.8880320     1.7115100
  H        0.6655400     3.1093110     0.6831840
  H        2.9735430    -2.5473740     0.0946540
  H        3.7214290     2.5491860    -0.0588690
  H        4.6397270    -0.4238340    -1.0970870
  H       -3.8083950    -1.5223380     1.7347280
  H       -3.9305460     1.4455410     0.2493860
  H       -2.2297620     1.8928800    -0.0590960
  H       -3.8005210     3.1308820    -1.6026710
  H       -2.7171960     2.0533230    -2.5048750
  H       -4.4009440     1.5743230    -2.2127240
units angstrom
no_reorient  #important for SAPT in psi4, default
symmetry c1  #important for SAPT in psi4, default
}

set PROPERTIES_ORIGIN ["COM"]
properties('MP2/aug-cc-pvtz', properties = ['dipole'])
--------------------------------------------------------------------------

    Molecular point group: c1
  Charge       = 0
  Multiplicity = 1
  Basis Set: AUG-CC-PVTZ
    Blend: AUG-CC-PVTZ
  Basis Set: (AUG-CC-PVTZ AUX)
    Blend: AUG-CC-PVTZ-JKFIT

    Orbital Energies [Eh]
    ---------------------

    Doubly Occupied:

       1A    -80.119207     2A    -20.616534     3A    -20.610654
       4A    -20.600738     5A    -20.585121     6A    -20.578089
       7A    -20.576302     8A    -20.573079     9A    -20.564867
      10A    -20.525344    11A    -11.327703    12A    -11.305825
      13A    -11.304628    14A    -11.300773    15A    -11.299611
      16A    -11.297958    17A    -11.292899    18A    -11.230768
      19A     -7.634646    20A     -5.533152    21A     -5.532788
      22A     -5.531570    23A     -1.462949    24A     -1.412667
      25A     -1.396042    26A     -1.391169    27A     -1.388445
      28A     -1.375926    29A     -1.359845    30A     -1.338307
      31A     -1.305741    32A     -1.140906    33A     -1.041669
      34A     -1.029899    35A     -1.006321    36A     -0.892341
      37A     -0.867972    38A     -0.851700    39A     -0.825389
      40A     -0.809806    41A     -0.754956    42A     -0.742294
      43A     -0.733609    44A     -0.730222    45A     -0.708601
      46A     -0.690841    47A     -0.678551    48A     -0.675224
      49A     -0.668290    50A     -0.660995    51A     -0.649298
      52A     -0.637139    53A     -0.628297    54A     -0.616247
      55A     -0.603402    56A     -0.597738    57A     -0.582578
      58A     -0.576869    59A     -0.573399    60A     -0.559806
      61A     -0.553339    62A     -0.545976    63A     -0.541643
      64A     -0.534139    65A     -0.528811    66A     -0.524174
      67A     -0.508611    68A     -0.505088    69A     -0.499285
      70A     -0.488854    71A     -0.481625    72A     -0.478284
      73A     -0.473166    74A     -0.455663    75A     -0.437849
      76A     -0.427167

  @DF-RHF Final Energy: -1327.80735744869116

   => Energetics <=

    Nuclear Repulsion Energy =           1775.0475627627777158
    One-Electron Energy =               -5361.9270820492938583
    Two-Electron Energy =                2259.0721618378252060
    Total Energy =                      -1327.8073574486911639
  Basis Set: (AUG-CC-PVTZ AUX)
    Blend: AUG-CC-PVTZ-RI
    Molecular point group: c1

    Geometry (in Angstrom), charge = 0, multiplicity = 1:

       Center              X                  Y                   Z               Mass
    ------------   -----------------  -----------------  -----------------  -----------------
         P           -2.283073563350    -0.938978332895     0.340322834339    30.973761998420
         O           -0.975130563350    -0.200497332895     0.933933834339    15.994914619570
         O            1.349272436650    -1.674418332895     1.226495834339    15.994914619570
         O            0.085727436650     2.360668667105     0.457812834339    15.994914619570
         O            3.075537436650    -2.186007332895    -0.812945165661    15.994914619570
         O            2.854357436650     2.504177667105     0.367179834339    15.994914619570
         O            4.202710436650     0.436461667105    -0.977229165661    15.994914619570
         O           -2.819840563350     0.034415667105    -0.811886165661    15.994914619570
         O           -3.252098563350    -0.722217332895     1.617315834339    15.994914619570
         O           -2.111970563350    -2.342579332895    -0.104023165661    15.994914619570
         C            0.125184436650     0.031073667105     0.011963834339    12.000000000000
         C            0.960314436650    -1.243140332895    -0.080080165661    12.000000000000
         C            0.905611436650     1.203708667105     0.560495834339    12.000000000000
         C            2.266682436650    -1.013242332895    -0.822392165661    12.000000000000
         C            2.015524036650     1.371979667105    -0.127850265661    12.000000000000
         C            3.032864436650     0.149769667105    -0.214677165661    12.000000000000
         C           -3.117190563350     1.432662667105    -0.493241165661    12.000000000000
         C           -3.529294563350     2.086229667105    -1.788474165661    12.000000000000
         H           -0.276069563350     0.299865667105    -0.974593165661     1.007825032230
         H            0.377291436650    -2.028299332895    -0.576387165661     1.007825032230
         H            1.164142436650     0.998941667105     1.607800834339     1.007825032230
         H            2.067956436650    -0.787595332895    -1.877111165661     1.007825032230
         H            1.924009436650     1.637351667105    -1.277938165661     1.007825032230
         H            3.302877436650    -0.093467332895     0.823290834339     1.007825032230
         H            0.528797436650    -1.886967332895     1.707154834339     1.007825032230
         H            0.672562436650     3.110375667105     0.678828834339     1.007825032230
         H            2.980565436650    -2.546309332895     0.090298834339     1.007825032230
         H            3.728451436650     2.550250667105    -0.063224165661     1.007825032230
         H            4.646749436650    -0.422769332895    -1.101442165661     1.007825032230
         H           -3.801372563350    -1.521273332895     1.730372834339     1.007825032230
         H           -3.923523563350     1.446605667105     0.245030834339     1.007825032230
         H           -2.222739563350     1.893944667105    -0.063451165661     1.007825032230
         H           -3.793498563350     3.131946667105    -1.607026165661     1.007825032230
         H           -2.710173563350     2.054387667105    -2.509230165661     1.007825032230
         H           -4.393921563350     1.575387667105    -2.217079165661     1.007825032230

  Basis Set: AUG-CC-PVTZ
    Blend: AUG-CC-PVTZ
  Basis Set: (AUG-CC-PVTZ AUX)
    Blend: AUG-CC-PVTZ-JKFIT
	 Reference Energy          =   -1327.8073574486911639 [Eh]
	 Singles Energy            =      -0.0000000000000000 [Eh]
	 Same-Spin Energy          =      -1.0173696746358654 [Eh]
	 Opposite-Spin Energy      =      -3.0805374021027467 [Eh]
	 Correlation Energy        =      -4.0979070767386121 [Eh]
	 Total Energy              =   -1331.9052645254298568 [Eh]

	 ================> DF-SCS-MP2 Energies <==================
	-----------------------------------------------------------
	 SCS Same-Spin Scale       =       0.3333333333333333 [-]
	 SCS Opposite-Spin Scale   =       1.2000000000000000 [-]
	 SCS Same-Spin Energy      =      -0.3391232248786218 [Eh]
	 SCS Opposite-Spin Energy  =      -3.6966448825232958 [Eh]
	 SCS Correlation Energy    =      -4.0357681074019176 [Eh]
	 SCS Total Energy          =   -1331.8431255560931277 [Eh]
	-----------------------------------------------------------

  Dipole Moment: [D]
     X:    -1.4135      Y:     1.6063      Z:     0.7589     Total:     2.2703

*** Psi4 exiting successfully. Buy a developer a beer!
