                               Psi4 1.3.2 release

  ==> Input File <==

--------------------------------------------------------------------------
#psi4
#
memory 32 gb

molecule  {
0 1
  P       -2.2900960    -0.9400430     0.3446780
  O       -0.9821530    -0.2015620     0.9382890
  O        1.3422500    -1.6754830     1.2308510
  O        0.0787050     2.3596040     0.4621680
  O        3.0685150    -2.1870720    -0.8085900
  O        2.8473350     2.5031130     0.3715350
  O        4.1956880     0.4353970    -0.9728740
  O       -2.8268630     0.0333510    -0.8075310
  O       -3.3190252    -0.7098820     1.7006135
  O       -2.1189930    -2.3436440    -0.0996680
  C        0.1181620     0.0300090     0.0163190
  C        0.9532920    -1.2442050    -0.0757250
  C        0.8985890     1.2026440     0.5648510
  C        2.2596600    -1.0143070    -0.8180370
  C        2.1770750     1.3964720    -0.2280410
  C        3.0258420     0.1487050    -0.2103220
  C       -3.1242130     1.4315980    -0.4888860
  C       -3.5363170     2.0851650    -1.7841190
  H       -0.2830920     0.2988010    -0.9702380
  H        0.3702690    -2.0293640    -0.5720320
  H        1.1571200     0.9978770     1.6121560
  H        2.0609340    -0.7886600    -1.8727560
  H        1.9169870     1.6362870    -1.2735830
  H        3.2958550    -0.0945320     0.8276460
  H        0.5217750    -1.8880320     1.7115100
  H        0.6655400     3.1093110     0.6831840
  H        2.9735430    -2.5473740     0.0946540
  H        3.7214290     2.5491860    -0.0588690
  H        4.6397270    -0.4238340    -1.0970870
  H       -3.8083950    -1.5223380     1.7347280
  H       -3.9305460     1.4455410     0.2493860
  H       -2.2297620     1.8928800    -0.0590960
  H       -3.8005210     3.1308820    -1.6026710
  H       -2.7171960     2.0533230    -2.5048750
  H       -4.4009440     1.5743230    -2.2127240
units angstrom
no_reorient  #important for SAPT in psi4, default
symmetry c1  #important for SAPT in psi4, default
}

set PROPERTIES_ORIGIN ["COM"]
properties('MP2/aug-cc-pvtz', properties = ['dipole'])
--------------------------------------------------------------------------

    Molecular point group: c1
  Charge       = 0
  Multiplicity = 1
  Basis Set: AUG-CC-PVTZ
    Blend: AUG-CC-PVTZ
  Basis Set: (AUG-CC-PVTZ AUX)
    Blend: AUG-CC-PVTZ-JKFIT

    Orbital Energies [Eh]
    ---------------------

    Doubly Occupied:

       1A    -80.127377     2A    -20.611987     3A    -20.608450
       4A    -20.605078     5A    -20.585004     6A    -20.578093
       7A    -20.576106     8A    -20.575354     9A    -20.575026
      10A    -20.531842    11A    -11.323894    12A    -11.305887
      13A    -11.301375    14A    -11.301092    15A    -11.300586
      16A    -11.298286    17A    -11.292892    18A    -11.231422
      19A     -7.641370    20A     -5.539736    21A     -5.539476
      22A     -5.538245    23A     -1.455656    24A     -1.411019
      25A     -1.395771    26A     -1.394079    27A     -1.379197
      28A     -1.373322    29A     -1.365505    30A     -1.355273
      31A     -1.310430    32A     -1.121125    33A     -1.042616
      34A     -1.014079    35A     -1.005326    36A     -0.880607
      37A     -0.867002    38A     -0.860674    39A     -0.816255
      40A     -0.811927    41A     -0.753087    42A     -0.744408
      43A     -0.729352    44A     -0.728268    45A     -0.704972
      46A     -0.688718    47A     -0.679223    48A     -0.674581
      49A     -0.663243    50A     -0.657036    51A     -0.640994
      52A     -0.637629    53A     -0.630783    54A     -0.617072
      55A     -0.604141    56A     -0.599893    57A     -0.583401
      58A     -0.573957    59A     -0.568782    60A     -0.560211
      61A     -0.557723    62A     -0.550104    63A     -0.540927
      64A     -0.538166    65A     -0.531067    66A     -0.524042
      67A     -0.515068    68A     -0.506161    69A     -0.500113
      70A     -0.487706    71A     -0.483531    72A     -0.480966
      73A     -0.465184    74A     -0.457291    75A     -0.452544
      76A     -0.438074

  @DF-RHF Final Energy: -1327.85033354625989

   => Energetics <=

    Nuclear Repulsion Energy =           1767.8798839739999949
    One-Electron Energy =               -5347.6267189188984048
    Two-Electron Energy =                2251.8965013986380654
    Total Energy =                      -1327.8503335462601171
  Basis Set: (AUG-CC-PVTZ AUX)
    Blend: AUG-CC-PVTZ-RI
    Molecular point group: c1

    Geometry (in Angstrom), charge = 0, multiplicity = 1:

       Center              X                  Y                   Z               Mass
    ------------   -----------------  -----------------  -----------------  -----------------
         P           -2.286769718556    -0.940787032515     0.340294618972    30.973761998420
         O           -0.978826718556    -0.202306032515     0.933905618972    15.994914619570
         O            1.345576281444    -1.676227032515     1.226467618972    15.994914619570
         O            0.082031281444     2.358859967485     0.457784618972    15.994914619570
         O            3.071841281444    -2.187816032515    -0.812973381028    15.994914619570
         O            2.850661281444     2.502368967485     0.367151618972    15.994914619570
         O            4.199014281444     0.434652967485    -0.977257381028    15.994914619570
         O           -2.823536718556     0.032606967485    -0.811914381028    15.994914619570
         O           -3.315698918556    -0.710626032515     1.696230118972    15.994914619570
         O           -2.115666718556    -2.344388032515    -0.104051381028    15.994914619570
         C            0.121488281444     0.029264967485     0.011935618972    12.000000000000
         C            0.956618281444    -1.244949032515    -0.080108381028    12.000000000000
         C            0.901915281444     1.201899967485     0.560467618972    12.000000000000
         C            2.262986281444    -1.015051032515    -0.822420381028    12.000000000000
         C            2.180401281444     1.395727967485    -0.232424381028    12.000000000000
         C            3.029168281444     0.147960967485    -0.214705381028    12.000000000000
         C           -3.120886718556     1.430853967485    -0.493269381028    12.000000000000
         C           -3.532990718556     2.084420967485    -1.788502381028    12.000000000000
         H           -0.279765718556     0.298056967485    -0.974621381028     1.007825032230
         H            0.373595281444    -2.030108032515    -0.576415381028     1.007825032230
         H            1.160446281444     0.997132967485     1.607772618972     1.007825032230
         H            2.064260281444    -0.789404032515    -1.877139381028     1.007825032230
         H            1.920313281444     1.635542967485    -1.277966381028     1.007825032230
         H            3.299181281444    -0.095276032515     0.823262618972     1.007825032230
         H            0.525101281444    -1.888776032515     1.707126618972     1.007825032230
         H            0.668866281444     3.108566967485     0.678800618972     1.007825032230
         H            2.976869281444    -2.548118032515     0.090270618972     1.007825032230
         H            3.724755281444     2.548441967485    -0.063252381028     1.007825032230
         H            4.643053281444    -0.424578032515    -1.101470381028     1.007825032230
         H           -3.805068718556    -1.523082032515     1.730344618972     1.007825032230
         H           -3.927219718556     1.444796967485     0.245002618972     1.007825032230
         H           -2.226435718556     1.892135967485    -0.063479381028     1.007825032230
         H           -3.797194718556     3.130137967485    -1.607054381028     1.007825032230
         H           -2.713869718556     2.052578967485    -2.509258381028     1.007825032230
         H           -4.397617718556     1.573578967485    -2.217107381028     1.007825032230

  Basis Set: AUG-CC-PVTZ
    Blend: AUG-CC-PVTZ
  Basis Set: (AUG-CC-PVTZ AUX)
    Blend: AUG-CC-PVTZ-JKFIT
	 Reference Energy          =   -1327.8503335462598898 [Eh]
	 Singles Energy            =      -0.0000000000000000 [Eh]
	 Same-Spin Energy          =      -1.0153171107576993 [Eh]
	 Opposite-Spin Energy      =      -3.0788804328784258 [Eh]
	 Correlation Energy        =      -4.0941975436361249 [Eh]
	 Total Energy              =   -1331.9445310898959178 [Eh]

	 ================> DF-SCS-MP2 Energies <==================
	-----------------------------------------------------------
	 SCS Same-Spin Scale       =       0.3333333333333333 [-]
	 SCS Opposite-Spin Scale   =       1.2000000000000000 [-]
	 SCS Same-Spin Energy      =      -0.3384390369192330 [Eh]
	 SCS Opposite-Spin Energy  =      -3.6946565194541110 [Eh]
	 SCS Correlation Energy    =      -4.0330955563733442 [Eh]
	 SCS Total Energy          =   -1331.8834291026332721 [Eh]
	-----------------------------------------------------------

  Dipole Moment: [D]
     X:    -0.6770      Y:     1.9034      Z:     0.2577     Total:     2.0366

*** Psi4 exiting successfully. Buy a developer a beer!
