                               Psi4 1.3.2 release

  ==> Input File <==

--------------------------------------------------------------------------
#psi4
#
memory 32 gb

molecule  {
0 1
  P       -2.2791727    -0.9143571     0.3489191
  O       -0.9821530    -0.2015620     0.9382890
  O        1.3422500    -1.6754830     1.2308510
  O        0.0787050     2.3596040     0.4621680
  O        3.0685150    -2.1870720    -0.8085900
  O        2.8473350     2.5031130     0.3715350
  O        4.1956880     0.4353970    -0.9728740
  O       -2.8268630     0.0333510    -0.8075310
  O       -3.2591210    -0.7232820     1.6216710
  O       -2.1189930    -2.3436440    -0.0996680
  C        0.1181620     0.0300090     0.0163190
  C        0.9532920    -1.2442050    -0.0757250
  C        0.8985890     1.2026440     0.5648510
  C        2.2596600    -1.0143070    -0.8180370
  C        2.1770750     1.3964720    -0.2280410
  C        3.0258420     0.1487050    -0.2103220
  C       -3.1242130     1.4315980    -0.4888860
  C       -3.5363170     2.0851650    -1.7841190
  H       -0.2830920     0.2988010    -0.9702380
  H        0.3702690    -2.0293640    -0.5720320
  H        1.1571200     0.9978770     1.6121560
  H        2.0609340    -0.7886600    -1.8727560
  H        1.9169870     1.6362870    -1.2735830
  H        3.2958550    -0.0945320     0.8276460
  H        0.5217750    -1.8880320     1.7115100
  H        0.6655400     3.1093110     0.6831840
  H        2.9735430    -2.5473740     0.0946540
  H        3.7214290     2.5491860    -0.0588690
  H        4.6397270    -0.4238340    -1.0970870
  H       -3.8158548    -1.5151171     1.7482371
  H       -3.9305460     1.4455410     0.2493860
  H       -2.2297620     1.8928800    -0.0590960
  H       -3.8005210     3.1308820    -1.6026710
  H       -2.7171960     2.0533230    -2.5048750
  H       -4.4009440     1.5743230    -2.2127240
units angstrom
no_reorient  #important for SAPT in psi4, default
symmetry c1  #important for SAPT in psi4, default
}

set PROPERTIES_ORIGIN ["COM"]
properties('MP2/aug-cc-pvtz', properties = ['dipole'])
--------------------------------------------------------------------------

    Molecular point group: c1
  Charge       = 0
  Multiplicity = 1
  Basis Set: AUG-CC-PVTZ
    Blend: AUG-CC-PVTZ
  Basis Set: (AUG-CC-PVTZ AUX)
    Blend: AUG-CC-PVTZ-JKFIT

    Orbital Energies [Eh]
    ---------------------

    Doubly Occupied:

       1A    -80.116888     2A    -20.611998     3A    -20.611591
       4A    -20.600959     5A    -20.583939     6A    -20.577872
       7A    -20.575250     8A    -20.575144     9A    -20.574836
      10A    -20.516980    11A    -11.323904    12A    -11.304515
      13A    -11.300822    14A    -11.300457    15A    -11.300212
      16A    -11.297985    17A    -11.292327    18A    -11.230841
      19A     -7.632031    20A     -5.530594    21A     -5.530288
      22A     -5.528795    23A     -1.464516    24A     -1.412257
      25A     -1.397118    26A     -1.394412    27A     -1.388156
      28A     -1.375216    29A     -1.365036    30A     -1.354916
      31A     -1.287969    32A     -1.121053    33A     -1.041985
      34A     -1.014758    35A     -1.004692    36A     -0.882691
      37A     -0.866683    38A     -0.860527    39A     -0.824343
      40A     -0.812295    41A     -0.753496    42A     -0.747752
      43A     -0.733430    44A     -0.732052    45A     -0.709532
      46A     -0.688563    47A     -0.678862    48A     -0.673891
      49A     -0.662653    50A     -0.660278    51A     -0.644764
      52A     -0.637046    53A     -0.628401    54A     -0.616865
      55A     -0.605639    56A     -0.599343    57A     -0.580070
      58A     -0.575052    59A     -0.573177    60A     -0.559302
      61A     -0.555915    62A     -0.549290    63A     -0.540092
      64A     -0.537090    65A     -0.532272    66A     -0.522324
      67A     -0.514729    68A     -0.505597    69A     -0.496411
      70A     -0.486549    71A     -0.477682    72A     -0.466911
      73A     -0.461377    74A     -0.456957    75A     -0.450378
      76A     -0.436360

  @DF-RHF Final Energy: -1327.86029565012518

   => Energetics <=

    Nuclear Repulsion Energy =           1773.2506091335869769
    One-Electron Energy =               -5358.5479087672765672
    Two-Electron Energy =                2257.4370039835639545
    Total Energy =                      -1327.8602956501254084
  Basis Set: (AUG-CC-PVTZ AUX)
    Blend: AUG-CC-PVTZ-RI
    Molecular point group: c1

    Geometry (in Angstrom), charge = 0, multiplicity = 1:

       Center              X                  Y                   Z               Mass
    ------------   -----------------  -----------------  -----------------  -----------------
         P           -2.280321095795    -0.917144222216     0.348415802850    30.973761998420
         O           -0.983301395795    -0.204349122216     0.937785702850    15.994914619570
         O            1.341101604205    -1.678270122216     1.230347702850    15.994914619570
         O            0.077556604205     2.356816877784     0.461664702850    15.994914619570
         O            3.067366604205    -2.189859122216    -0.809093297150    15.994914619570
         O            2.846186604205     2.500325877784     0.371031702850    15.994914619570
         O            4.194539604205     0.432609877784    -0.973377297150    15.994914619570
         O           -2.828011395795     0.030563877784    -0.808034297150    15.994914619570
         O           -3.260269395795    -0.726069122216     1.621167702850    15.994914619570
         O           -2.120141395795    -2.346431122216    -0.100171297150    15.994914619570
         C            0.117013604205     0.027221877784     0.015815702850    12.000000000000
         C            0.952143604205    -1.246992122216    -0.076228297150    12.000000000000
         C            0.897440604205     1.199856877784     0.564347702850    12.000000000000
         C            2.258511604205    -1.017094122216    -0.818540297150    12.000000000000
         C            2.175926604205     1.393684877784    -0.228544297150    12.000000000000
         C            3.024693604205     0.145917877784    -0.210825297150    12.000000000000
         C           -3.125361395795     1.428810877784    -0.489389297150    12.000000000000
         C           -3.537465395795     2.082377877784    -1.784622297150    12.000000000000
         H           -0.284240395795     0.296013877784    -0.970741297150     1.007825032230
         H            0.369120604205    -2.032151122216    -0.572535297150     1.007825032230
         H            1.155971604205     0.995089877784     1.611652702850     1.007825032230
         H            2.059785604205    -0.791447122216    -1.873259297150     1.007825032230
         H            1.915838604205     1.633499877784    -1.274086297150     1.007825032230
         H            3.294706604205    -0.097319122216     0.827142702850     1.007825032230
         H            0.520626604205    -1.890819122216     1.711006702850     1.007825032230
         H            0.664391604205     3.106523877784     0.682680702850     1.007825032230
         H            2.972394604205    -2.550161122216     0.094150702850     1.007825032230
         H            3.720280604205     2.546398877784    -0.059372297150     1.007825032230
         H            4.638578604205    -0.426621122216    -1.097590297150     1.007825032230
         H           -3.817003195795    -1.517904222216     1.747733802850     1.007825032230
         H           -3.931694395795     1.442753877784     0.248882702850     1.007825032230
         H           -2.230910395795     1.890092877784    -0.059599297150     1.007825032230
         H           -3.801669395795     3.128094877784    -1.603174297150     1.007825032230
         H           -2.718344395795     2.050535877784    -2.505378297150     1.007825032230
         H           -4.402092395795     1.571535877784    -2.213227297150     1.007825032230

  Basis Set: AUG-CC-PVTZ
    Blend: AUG-CC-PVTZ
  Basis Set: (AUG-CC-PVTZ AUX)
    Blend: AUG-CC-PVTZ-JKFIT
	 Reference Energy          =   -1327.8602956501251811 [Eh]
	 Singles Energy            =      -0.0000000000000000 [Eh]
	 Same-Spin Energy          =      -1.0147210261001489 [Eh]
	 Opposite-Spin Energy      =      -3.0761493361881542 [Eh]
	 Correlation Energy        =      -4.0908703622883031 [Eh]
	 Total Energy              =   -1331.9511660124135233 [Eh]

	 ================> DF-SCS-MP2 Energies <==================
	-----------------------------------------------------------
	 SCS Same-Spin Scale       =       0.3333333333333333 [-]
	 SCS Opposite-Spin Scale   =       1.2000000000000000 [-]
	 SCS Same-Spin Energy      =      -0.3382403420333829 [Eh]
	 SCS Opposite-Spin Energy  =      -3.6913792034257851 [Eh]
	 SCS Correlation Energy    =      -4.0296195454591679 [Eh]
	 SCS Total Energy          =   -1331.8899151955843081 [Eh]
	-----------------------------------------------------------

  Dipole Moment: [D]
     X:    -0.9575      Y:     2.1425      Z:     0.7475     Total:     2.4629

*** Psi4 exiting successfully. Buy a developer a beer!
