                               Psi4 1.4a3.dev225

  ==> Input File <==

--------------------------------------------------------------------------
#psi4
#
memory 32 gb

molecule  {
0 1
  P       -2.3219140    -1.0563120    -0.0968450
  O       -1.0285840    -0.5623410     0.7549430
  O        1.3695440    -1.8069540     1.2202350
  O       -0.1592450     2.1412630     0.5207450
  O        3.3269040    -2.0858120    -0.6453880
  O        2.5724350     2.5270130     0.6374560
  O        4.2203020     0.6406430    -0.6358120
  O       -2.8737010     0.2643620    -0.8096810
  O       -3.3065970    -1.3497020     1.1531960
  O       -2.1044560    -2.1814480    -1.0350500
  C        0.1200290    -0.1583450    -0.0432010
  C        1.0698050    -1.3527180    -0.1046720
  C        0.7441670     1.0454510     0.6308160
  C        2.4193320    -0.9866070    -0.7068450
  C        2.0776307     1.3898133    -0.0559269
  C        3.0180900     0.2181970     0.0056710
  C       -3.2473180     1.4231610     0.0025120
  C       -3.2076300     2.6262440    -0.9075720
  H       -0.2047330     0.1313700    -1.0514980
  H        0.5965010    -2.1549610    -0.6866410
  H        0.9371260     0.8063110     1.6860210
  H        2.3054700    -0.7437210    -1.7704410
  H        1.8633300     1.6367370    -1.1028410
  H        3.2142070    -0.0417910     1.0561650
  H        0.5126160    -2.0057500     1.6426110
  H        0.3598300     2.9232990     0.7925780
  H        3.1793900    -2.4823080     0.2360710
  H        3.4672560     2.6739710     0.2770410
  H        4.7639490    -0.1654590    -0.7244900
  H       -3.7873380    -2.1826420     0.9908450
  H       -4.2474700     1.2335250     0.4005830
  H       -2.5352900     1.5309660     0.8217280
  H       -3.5402110     3.5125760    -0.3587690
  H       -2.1856630     2.7912820    -1.2511950
  H       -3.8637180     2.4807570    -1.7684970
units angstrom
no_reorient  #important for SAPT in psi4, default
symmetry c1  #important for SAPT in psi4, default
}

set PROPERTIES_ORIGIN ["COM"]
properties('MP2/aug-cc-pvtz', properties = ['dipole'])
--------------------------------------------------------------------------

    Molecular point group: c1
  Charge       = 0
  Multiplicity = 1
  Basis Set: AUG-CC-PVTZ
    Blend: AUG-CC-PVTZ
  Basis Set: (AUG-CC-PVTZ AUX)
    Blend: AUG-CC-PVTZ-JKFIT

    Orbital Energies [Eh]
    ---------------------

    Doubly Occupied:

       1A    -80.116635     2A    -20.614851     3A    -20.607762
       4A    -20.595877     5A    -20.583944     6A    -20.579643
       7A    -20.575389     8A    -20.574998     9A    -20.574413
      10A    -20.522378    11A    -11.320873    12A    -11.305078
      13A    -11.300749    14A    -11.300506    15A    -11.298000
      16A    -11.296038    17A    -11.292534    18A    -11.222823
      19A     -7.631899    20A     -5.530434    21A     -5.529930
      22A     -5.528870    23A     -1.458276    24A     -1.411033
      25A     -1.396428    26A     -1.392567    27A     -1.385037
      28A     -1.372542    29A     -1.364845    30A     -1.354848
      31A     -1.302562    32A     -1.117436    33A     -1.035417
      34A     -1.012003    35A     -1.001551    36A     -0.876789
      37A     -0.862108    38A     -0.860200    39A     -0.822704
      40A     -0.810116    41A     -0.754332    42A     -0.746463
      43A     -0.729015    44A     -0.725987    45A     -0.705487
      46A     -0.686746    47A     -0.679192    48A     -0.674325
      49A     -0.662596    50A     -0.659074    51A     -0.642289
      52A     -0.636877    53A     -0.624016    54A     -0.613268
      55A     -0.604019    56A     -0.596973    57A     -0.580856
      58A     -0.577490    59A     -0.570139    60A     -0.561529
      61A     -0.555079    62A     -0.547859    63A     -0.539250
      64A     -0.537906    65A     -0.529918    66A     -0.517614
      67A     -0.508294    68A     -0.503378    69A     -0.493694
      70A     -0.487290    71A     -0.478561    72A     -0.475350
      73A     -0.461332    74A     -0.458275    75A     -0.450174
      76A     -0.436984

  @DF-RHF Final Energy: -1327.86050278181574

   => Energetics <=

    Nuclear Repulsion Energy =           1774.3690817966262330
    One-Electron Energy =               -5360.9557358479114555
    Two-Electron Energy =                2258.7261512694694829
    Total Energy =                      -1327.8605027818157396
  Basis Set: (AUG-CC-PVTZ AUX)
    Blend: AUG-CC-PVTZ-RI
    Molecular point group: c1

    Geometry (in Angstrom), charge = 0, multiplicity = 1:

       Center              X                  Y                   Z               Mass
    ------------   -----------------  -----------------  -----------------  -----------------
         P           -2.311874534958    -1.018719372480    -0.098917685587    30.973761998420
         O           -1.018544534958    -0.524748372480     0.752870314413    15.994914619570
         O            1.379583465042    -1.769361372480     1.218162314413    15.994914619570
         O           -0.149205534958     2.178855627520     0.518672314413    15.994914619570
         O            3.336943465042    -2.048219372480    -0.647460685587    15.994914619570
         O            2.582474465042     2.564605627520     0.635383314413    15.994914619570
         O            4.230341465042     0.678235627520    -0.637884685587    15.994914619570
         O           -2.863661534958     0.301954627520    -0.811753685587    15.994914619570
         O           -3.296557534958    -1.312109372480     1.151123314413    15.994914619570
         O           -2.094416534958    -2.143855372480    -1.037122685587    15.994914619570
         C            0.130068465042    -0.120752372480    -0.045273685587    12.000000000000
         C            1.079844465042    -1.315125372480    -0.106744685587    12.000000000000
         C            0.754206465042     1.083043627520     0.628743314413    12.000000000000
         C            2.429371465042    -0.949014372480    -0.708917685587    12.000000000000
         C            2.087670165042     1.427405927520    -0.057999585587    12.000000000000
         C            3.028129465042     0.255789627520     0.003598314413    12.000000000000
         C           -3.237278534958     1.460753627520     0.000439314413    12.000000000000
         C           -3.197590534958     2.663836627520    -0.909644685587    12.000000000000
         H           -0.194693534958     0.168962627520    -1.053570685587     1.007825032230
         H            0.606540465042    -2.117368372480    -0.688713685587     1.007825032230
         H            0.947165465042     0.843903627520     1.683948314413     1.007825032230
         H            2.315509465042    -0.706128372480    -1.772513685587     1.007825032230
         H            1.873369465042     1.674329627520    -1.104913685587     1.007825032230
         H            3.224246465042    -0.004198372480     1.054092314413     1.007825032230
         H            0.522655465042    -1.968157372480     1.640538314413     1.007825032230
         H            0.369869465042     2.960891627520     0.790505314413     1.007825032230
         H            3.189429465042    -2.444715372480     0.233998314413     1.007825032230
         H            3.477295465042     2.711563627520     0.274968314413     1.007825032230
         H            4.773988465042    -0.127866372480    -0.726562685587     1.007825032230
         H           -3.777298534958    -2.145049372480     0.988772314413     1.007825032230
         H           -4.237430534958     1.271117627520     0.398510314413     1.007825032230
         H           -2.525250534958     1.568558627520     0.819655314413     1.007825032230
         H           -3.530171534958     3.550168627520    -0.360841685587     1.007825032230
         H           -2.175623534958     2.828874627520    -1.253267685587     1.007825032230
         H           -3.853678534958     2.518349627520    -1.770569685587     1.007825032230

  Basis Set: AUG-CC-PVTZ
    Blend: AUG-CC-PVTZ
  Basis Set: (AUG-CC-PVTZ AUX)
    Blend: AUG-CC-PVTZ-JKFIT
	 Reference Energy          =   -1327.8605027818157396 [Eh]
	 Singles Energy            =      -0.0000000000000000 [Eh]
	 Same-Spin Energy          =      -1.0147046152129693 [Eh]
	 Opposite-Spin Energy      =      -3.0766096509761214 [Eh]
	 Correlation Energy        =      -4.0913142661890909 [Eh]
	 Total Energy              =   -1331.9518170480048411 [Eh]

	 ================> DF-SCS-MP2 Energies <==================
	-----------------------------------------------------------
	 SCS Same-Spin Scale       =       0.3333333333333333 [-]
	 SCS Opposite-Spin Scale   =       1.2000000000000000 [-]
	 SCS Same-Spin Energy      =      -0.3382348717376564 [Eh]
	 SCS Opposite-Spin Energy  =      -3.6919315811713456 [Eh]
	 SCS Correlation Energy    =      -4.0301664529090022 [Eh]
	 SCS Total Energy          =   -1331.8906692347247827 [Eh]
	-----------------------------------------------------------

  Dipole Moment: [D]
     X:    -0.8377      Y:     1.4424      Z:     1.8778     Total:     2.5116

*** Psi4 exiting successfully. Buy a developer a beer!
