                               Psi4 1.3.2 release

  ==> Input File <==

--------------------------------------------------------------------------
#psi4
#
memory 32 gb

molecule  {
0 1
  P       -2.2900960    -0.9400430     0.3446780
  O       -0.9821530    -0.2015620     0.9382890
  O        1.3422500    -1.6754830     1.2308510
  O        0.0787050     2.3596040     0.4621680
  O        3.0685150    -2.1870720    -0.8085900
  O        2.8473350     2.5031130     0.3715350
  O        4.1956880     0.4353970    -0.9728740
  O       -2.8268630     0.0333510    -0.8075310
  O       -3.2591210    -0.7232820     1.6216710
  O       -2.1189930    -2.3436440    -0.0996680
  C        0.1181620     0.0300090     0.0163190
  C        0.9532920    -1.2442050    -0.0757250
  C        0.8985890     1.2026440     0.5648510
  C        2.2596600    -1.0143070    -0.8180370
  C        2.1770750     1.3964720    -0.2280410
  C        3.0258420     0.1487050    -0.2103220
  C       -3.1242130     1.4315980    -0.4888860
  C       -3.5363170     2.0851650    -1.7841190
  H       -0.2830920     0.2988010    -0.9702380
  H        0.3702690    -2.0293640    -0.5720320
  H        1.1571200     0.9978770     1.6121560
  H        2.0609340    -0.7886600    -1.8727560
  H        1.9169870     1.6362870    -1.2735830
  H        3.2958550    -0.0945320     0.8276460
  H        0.5217750    -1.8880320     1.7115100
  H        0.6655400     3.1093110     0.6831840
  H        2.9735430    -2.5473740     0.0946540
  H        3.7214290     2.5491860    -0.0588690
  H        4.6397270    -0.4238340    -1.0970870
  H       -3.9209276    -1.6860448     1.7578906
  H       -3.9305460     1.4455410     0.2493860
  H       -2.2297620     1.8928800    -0.0590960
  H       -3.8005210     3.1308820    -1.6026710
  H       -2.7171960     2.0533230    -2.5048750
  H       -4.4009440     1.5743230    -2.2127240
units angstrom
no_reorient  #important for SAPT in psi4, default
symmetry c1  #important for SAPT in psi4, default
}

set PROPERTIES_ORIGIN ["COM"]
properties('MP2/aug-cc-pvtz', properties = ['dipole'])
--------------------------------------------------------------------------

    Molecular point group: c1
  Charge       = 0
  Multiplicity = 1
  Basis Set: AUG-CC-PVTZ
    Blend: AUG-CC-PVTZ
  Basis Set: (AUG-CC-PVTZ AUX)
    Blend: AUG-CC-PVTZ-JKFIT

    Orbital Energies [Eh]
    ---------------------

    Doubly Occupied:

       1A    -80.113231     2A    -20.623166     3A    -20.605219
       4A    -20.596652     5A    -20.582198     6A    -20.576124
       7A    -20.573954     8A    -20.573497     9A    -20.572542
      10A    -20.520202    11A    -11.319465    12A    -11.302510
      13A    -11.298582    14A    -11.297762    15A    -11.297653
      16A    -11.295908    17A    -11.290744    18A    -11.228729
      19A     -7.628683    20A     -5.527123    21A     -5.526847
      22A     -5.525643    23A     -1.452627    24A     -1.407941
      25A     -1.393030    26A     -1.389885    27A     -1.372966
      28A     -1.363205    29A     -1.360418    30A     -1.352556
      31A     -1.299210    32A     -1.117960    33A     -1.038832
      34A     -1.010487    35A     -1.002558    36A     -0.875750
      37A     -0.863335    38A     -0.857690    39A     -0.811101
      40A     -0.805472    41A     -0.750279    42A     -0.740594
      43A     -0.726514    44A     -0.722245    45A     -0.693680
      46A     -0.684156    47A     -0.676728    48A     -0.666759
      49A     -0.659973    50A     -0.655897    51A     -0.641249
      52A     -0.632971    53A     -0.619444    54A     -0.612083
      55A     -0.600780    56A     -0.597618    57A     -0.579417
      58A     -0.571103    59A     -0.569364    60A     -0.557788
      61A     -0.554791    62A     -0.547040    63A     -0.538443
      64A     -0.535643    65A     -0.527602    66A     -0.520360
      67A     -0.511637    68A     -0.503283    69A     -0.494745
      70A     -0.483425    71A     -0.477776    72A     -0.473345
      73A     -0.461024    74A     -0.455161    75A     -0.448830
      76A     -0.435420

  @DF-RHF Final Energy: -1327.82645838514190

   => Energetics <=

    Nuclear Repulsion Energy =           1771.0741339775402139
    One-Electron Energy =               -5354.6439383086699308
    Two-Electron Energy =                2255.7433459459875849
    Total Energy =                      -1327.8264583851419047
  Basis Set: (AUG-CC-PVTZ AUX)
    Blend: AUG-CC-PVTZ-RI
    Molecular point group: c1

    Geometry (in Angstrom), charge = 0, multiplicity = 1:

       Center              X                  Y                   Z               Mass
    ------------   -----------------  -----------------  -----------------  -----------------
         P           -2.289702254849    -0.939470229332     0.344596952911    30.973761998420
         O           -0.981759254849    -0.200989229332     0.938207952911    15.994914619570
         O            1.342643745151    -1.674910229332     1.230769952911    15.994914619570
         O            0.079098745151     2.360176770668     0.462086952911    15.994914619570
         O            3.068908745151    -2.186499229332    -0.808671047089    15.994914619570
         O            2.847728745151     2.503685770668     0.371453952911    15.994914619570
         O            4.196081745151     0.435969770668    -0.972955047089    15.994914619570
         O           -2.826469254849     0.033923770668    -0.807612047089    15.994914619570
         O           -3.258727254849    -0.722709229332     1.621589952911    15.994914619570
         O           -2.118599254849    -2.343071229332    -0.099749047089    15.994914619570
         C            0.118555745151     0.030581770668     0.016237952911    12.000000000000
         C            0.953685745151    -1.243632229332    -0.075806047089    12.000000000000
         C            0.898982745151     1.203216770668     0.564769952911    12.000000000000
         C            2.260053745151    -1.013734229332    -0.818118047089    12.000000000000
         C            2.177468745151     1.397044770668    -0.228122047089    12.000000000000
         C            3.026235745151     0.149277770668    -0.210403047089    12.000000000000
         C           -3.123819254849     1.432170770668    -0.488967047089    12.000000000000
         C           -3.535923254849     2.085737770668    -1.784200047089    12.000000000000
         H           -0.282698254849     0.299373770668    -0.970319047089     1.007825032230
         H            0.370662745151    -2.028791229332    -0.572113047089     1.007825032230
         H            1.157513745151     0.998449770668     1.612074952911     1.007825032230
         H            2.061327745151    -0.788087229332    -1.872837047089     1.007825032230
         H            1.917380745151     1.636859770668    -1.273664047089     1.007825032230
         H            3.296248745151    -0.093959229332     0.827564952911     1.007825032230
         H            0.522168745151    -1.887459229332     1.711428952911     1.007825032230
         H            0.665933745151     3.109883770668     0.683102952911     1.007825032230
         H            2.973936745151    -2.546801229332     0.094572952911     1.007825032230
         H            3.721822745151     2.549758770668    -0.058950047089     1.007825032230
         H            4.640120745151    -0.423261229332    -1.097168047089     1.007825032230
         H           -3.920533854849    -1.685472029332     1.757809552911     1.007825032230
         H           -3.930152254849     1.446113770668     0.249304952911     1.007825032230
         H           -2.229368254849     1.893452770668    -0.059177047089     1.007825032230
         H           -3.800127254849     3.131454770668    -1.602752047089     1.007825032230
         H           -2.716802254849     2.053895770668    -2.504956047089     1.007825032230
         H           -4.400550254849     1.574895770668    -2.212805047089     1.007825032230

  Basis Set: AUG-CC-PVTZ
    Blend: AUG-CC-PVTZ
  Basis Set: (AUG-CC-PVTZ AUX)
    Blend: AUG-CC-PVTZ-JKFIT
	 Reference Energy          =   -1327.8264583851419047 [Eh]
	 Singles Energy            =      -0.0000000000000000 [Eh]
	 Same-Spin Energy          =      -1.0167456121706406 [Eh]
	 Opposite-Spin Energy      =      -3.0819581915663594 [Eh]
	 Correlation Energy        =      -4.0987038037370001 [Eh]
	 Total Energy              =   -1331.9251621888788577 [Eh]

	 ================> DF-SCS-MP2 Energies <==================
	-----------------------------------------------------------
	 SCS Same-Spin Scale       =       0.3333333333333333 [-]
	 SCS Opposite-Spin Scale   =       1.2000000000000000 [-]
	 SCS Same-Spin Energy      =      -0.3389152040568802 [Eh]
	 SCS Opposite-Spin Energy  =      -3.6983498298796311 [Eh]
	 SCS Correlation Energy    =      -4.0372650339365110 [Eh]
	 SCS Total Energy          =   -1331.8637234190784966 [Eh]
	-----------------------------------------------------------

  Dipole Moment: [D]
     X:    -1.3585      Y:     1.6230      Z:     0.8508     Total:     2.2812

*** Psi4 exiting successfully. Buy a developer a beer!
