                               Psi4 1.3.2 release

  ==> Input File <==

--------------------------------------------------------------------------
#psi4
#
memory 32 gb

molecule  {
0 1
  P       -2.2900960    -0.9400430     0.3446780
  O       -0.9821530    -0.2015620     0.9382890
  O        1.3422500    -1.6754830     1.2308510
  O        0.0787050     2.3596040     0.4621680
  O        3.0685150    -2.1870720    -0.8085900
  O        2.8473350     2.5031130     0.3715350
  O        4.1956880     0.4353970    -0.9728740
  O       -2.8268630     0.0333510    -0.8075310
  O       -3.2591210    -0.7232820     1.6216710
  O       -2.1189930    -2.3436440    -0.0996680
  C        0.1181620     0.0300090     0.0163190
  C        0.9532920    -1.2442050    -0.0757250
  C        0.8985890     1.2026440     0.5648510
  C        2.2596600    -1.0143070    -0.8180370
  C        2.0927883     1.3836935    -0.1757680
  C        3.0258420     0.1487050    -0.2103220
  C       -3.1242130     1.4315980    -0.4888860
  C       -3.5363170     2.0851650    -1.7841190
  H       -0.2830920     0.2988010    -0.9702380
  H        0.3702690    -2.0293640    -0.5720320
  H        1.1571200     0.9978770     1.6121560
  H        2.0609340    -0.7886600    -1.8727560
  H        1.9169870     1.6362870    -1.2735830
  H        3.2958550    -0.0945320     0.8276460
  H        0.5217750    -1.8880320     1.7115100
  H        0.6655400     3.1093110     0.6831840
  H        2.9735430    -2.5473740     0.0946540
  H        3.7214290     2.5491860    -0.0588690
  H        4.6397270    -0.4238340    -1.0970870
  H       -3.8083950    -1.5223380     1.7347280
  H       -3.9305460     1.4455410     0.2493860
  H       -2.2297620     1.8928800    -0.0590960
  H       -3.8005210     3.1308820    -1.6026710
  H       -2.7171960     2.0533230    -2.5048750
  H       -4.4009440     1.5743230    -2.2127240
units angstrom
no_reorient  #important for SAPT in psi4, default
symmetry c1  #important for SAPT in psi4, default
}

set PROPERTIES_ORIGIN ["COM"]
properties('MP2/aug-cc-pvtz', properties = ['dipole'])
--------------------------------------------------------------------------

    Molecular point group: c1
  Charge       = 0
  Multiplicity = 1
  Basis Set: AUG-CC-PVTZ
    Blend: AUG-CC-PVTZ
  Basis Set: (AUG-CC-PVTZ AUX)
    Blend: AUG-CC-PVTZ-JKFIT

    Orbital Energies [Eh]
    ---------------------

    Doubly Occupied:

       1A    -80.118038     2A    -20.615602     3A    -20.608788
       4A    -20.599806     5A    -20.584046     6A    -20.576062
       7A    -20.574809     8A    -20.573734     9A    -20.571175
      10A    -20.524348    11A    -11.323882    12A    -11.304594
      13A    -11.300213    14A    -11.300061    15A    -11.298597
      16A    -11.296621    17A    -11.294839    18A    -11.230311
      19A     -7.633481    20A     -5.531987    21A     -5.531619
      22A     -5.530409    23A     -1.461552    24A     -1.411274
      25A     -1.394393    26A     -1.391287    27A     -1.387694
      28A     -1.374220    29A     -1.361218    30A     -1.348460
      31A     -1.304745    32A     -1.127768    33A     -1.041028
      34A     -1.015556    35A     -1.009153    36A     -0.885998
      37A     -0.866604    38A     -0.855686    39A     -0.823549
      40A     -0.810361    41A     -0.752832    42A     -0.743660
      43A     -0.732258    44A     -0.729560    45A     -0.708307
      46A     -0.688548    47A     -0.678263    48A     -0.674334
      49A     -0.663852    50A     -0.661231    51A     -0.644080
      52A     -0.638163    53A     -0.627554    54A     -0.614968
      55A     -0.603891    56A     -0.598362    57A     -0.582138
      58A     -0.576203    59A     -0.572088    60A     -0.558956
      61A     -0.551205    62A     -0.550265    63A     -0.541434
      64A     -0.532158    65A     -0.531713    66A     -0.525393
      67A     -0.511361    68A     -0.504468    69A     -0.499412
      70A     -0.486881    71A     -0.480852    72A     -0.477414
      73A     -0.470288    74A     -0.454219    75A     -0.445080
      76A     -0.434309

  @DF-RHF Final Energy: -1327.84905638107989

   => Energetics <=

    Nuclear Repulsion Energy =           1773.6965183551390055
    One-Electron Energy =               -5359.4126118803360441
    Two-Electron Energy =                2257.8670371441166935
    Total Energy =                      -1327.8490563810801177
  Basis Set: (AUG-CC-PVTZ AUX)
    Blend: AUG-CC-PVTZ-RI
    Molecular point group: c1

    Geometry (in Angstrom), charge = 0, multiplicity = 1:

       Center              X                  Y                   Z               Mass
    ------------   -----------------  -----------------  -----------------  -----------------
         P           -2.286584765258    -0.939510657611     0.342500410471    30.973761998420
         O           -0.978641765258    -0.201029657611     0.936111410471    15.994914619570
         O            1.345761234742    -1.674950657611     1.228673410471    15.994914619570
         O            0.082216234742     2.360136342389     0.459990410471    15.994914619570
         O            3.072026234742    -2.186539657611    -0.810767589529    15.994914619570
         O            2.850846234742     2.503645342389     0.369357410471    15.994914619570
         O            4.199199234742     0.435929342389    -0.975051589529    15.994914619570
         O           -2.823351765258     0.033883342389    -0.809708589529    15.994914619570
         O           -3.255609765258    -0.722749657611     1.619493410471    15.994914619570
         O           -2.115481765258    -2.343111657611    -0.101845589529    15.994914619570
         C            0.121673234742     0.030541342389     0.014141410471    12.000000000000
         C            0.956803234742    -1.243672657611    -0.077902589529    12.000000000000
         C            0.902100234742     1.203176342389     0.562673410471    12.000000000000
         C            2.263171234742    -1.013774657611    -0.820214589529    12.000000000000
         C            2.096299534742     1.384225842389    -0.177945589529    12.000000000000
         C            3.029353234742     0.149237342389    -0.212499589529    12.000000000000
         C           -3.120701765258     1.432130342389    -0.491063589529    12.000000000000
         C           -3.532805765258     2.085697342389    -1.786296589529    12.000000000000
         H           -0.279580765258     0.299333342389    -0.972415589529     1.007825032230
         H            0.373780234742    -2.028831657611    -0.574209589529     1.007825032230
         H            1.160631234742     0.998409342389     1.609978410471     1.007825032230
         H            2.064445234742    -0.788127657611    -1.874933589529     1.007825032230
         H            1.920498234742     1.636819342389    -1.275760589529     1.007825032230
         H            3.299366234742    -0.093999657611     0.825468410471     1.007825032230
         H            0.525286234742    -1.887499657611     1.709332410471     1.007825032230
         H            0.669051234742     3.109843342389     0.681006410471     1.007825032230
         H            2.977054234742    -2.546841657611     0.092476410471     1.007825032230
         H            3.724940234742     2.549718342389    -0.061046589529     1.007825032230
         H            4.643238234742    -0.423301657611    -1.099264589529     1.007825032230
         H           -3.804883765258    -1.521805657611     1.732550410471     1.007825032230
         H           -3.927034765258     1.446073342389     0.247208410471     1.007825032230
         H           -2.226250765258     1.893412342389    -0.061273589529     1.007825032230
         H           -3.797009765258     3.131414342389    -1.604848589529     1.007825032230
         H           -2.713684765258     2.053855342389    -2.507052589529     1.007825032230
         H           -4.397432765258     1.574855342389    -2.214901589529     1.007825032230

  Basis Set: AUG-CC-PVTZ
    Blend: AUG-CC-PVTZ
  Basis Set: (AUG-CC-PVTZ AUX)
    Blend: AUG-CC-PVTZ-JKFIT
	 Reference Energy          =   -1327.8490563810798903 [Eh]
	 Singles Energy            =      -0.0000000000000000 [Eh]
	 Same-Spin Energy          =      -1.0153450127018873 [Eh]
	 Opposite-Spin Energy      =      -3.0772065670413919 [Eh]
	 Correlation Energy        =      -4.0925515797432794 [Eh]
	 Total Energy              =   -1331.9416079608231485 [Eh]

	 ================> DF-SCS-MP2 Energies <==================
	-----------------------------------------------------------
	 SCS Same-Spin Scale       =       0.3333333333333333 [-]
	 SCS Opposite-Spin Scale   =       1.2000000000000000 [-]
	 SCS Same-Spin Energy      =      -0.3384483375672958 [Eh]
	 SCS Opposite-Spin Energy  =      -3.6926478804496701 [Eh]
	 SCS Correlation Energy    =      -4.0310962180169660 [Eh]
	 SCS Total Energy          =   -1331.8801525990968457 [Eh]
	-----------------------------------------------------------

  Dipole Moment: [D]
     X:    -1.2536      Y:     1.7474      Z:     0.7363     Total:     2.2731

*** Psi4 exiting successfully. Buy a developer a beer!
