                               Psi4 1.3.2 release

  ==> Input File <==

--------------------------------------------------------------------------
#psi4
#
memory 32 gb

molecule  {
0 1
  P       -2.2900960    -0.9400430     0.3446780
  O       -0.9821530    -0.2015620     0.9382890
  O        1.3422500    -1.6754830     1.2308510
  O        0.0787050     2.3596040     0.4621680
  O        3.0685150    -2.1870720    -0.8085900
  O        2.8473350     2.5031130     0.3715350
  O        4.1956880     0.4353970    -0.9728740
  O       -2.8268630     0.0333510    -0.8075310
  O       -3.2591210    -0.7232820     1.6216710
  O       -2.1189930    -2.3436440    -0.0996680
  C        0.1181620     0.0300090     0.0163190
  C        0.9532920    -1.2442050    -0.0757250
  C        0.8985890     1.2026440     0.5648510
  C        2.2455400    -1.0519565    -0.8526505
  C        2.1770750     1.3964720    -0.2280410
  C        3.0258420     0.1487050    -0.2103220
  C       -3.1242130     1.4315980    -0.4888860
  C       -3.5363170     2.0851650    -1.7841190
  H       -0.2830920     0.2988010    -0.9702380
  H        0.3981997    -2.0327649    -0.5979863
  H        1.1571200     0.9978770     1.6121560
  H        2.0609340    -0.7886600    -1.8727560
  H        1.9169870     1.6362870    -1.2735830
  H        3.2958550    -0.0945320     0.8276460
  H        0.5217750    -1.8880320     1.7115100
  H        0.6655400     3.1093110     0.6831840
  H        2.9735430    -2.5473740     0.0946540
  H        3.7214290     2.5491860    -0.0588690
  H        4.6397270    -0.4238340    -1.0970870
  H       -3.8083950    -1.5223380     1.7347280
  H       -3.9305460     1.4455410     0.2493860
  H       -2.2297620     1.8928800    -0.0590960
  H       -3.8005210     3.1308820    -1.6026710
  H       -2.7171960     2.0533230    -2.5048750
  H       -4.4009440     1.5743230    -2.2127240
units angstrom
no_reorient  #important for SAPT in psi4, default
symmetry c1  #important for SAPT in psi4, default
}

set PROPERTIES_ORIGIN ["COM"]
properties('MP2/aug-cc-pvtz', properties = ['dipole'])
--------------------------------------------------------------------------

    Molecular point group: c1
  Charge       = 0
  Multiplicity = 1
  Basis Set: AUG-CC-PVTZ
    Blend: AUG-CC-PVTZ
  Basis Set: (AUG-CC-PVTZ AUX)
    Blend: AUG-CC-PVTZ-JKFIT

    Orbital Energies [Eh]
    ---------------------

    Doubly Occupied:

       1A    -80.116573     2A    -20.614469     3A    -20.606883
       4A    -20.598697     5A    -20.584078     6A    -20.576637
       7A    -20.575752     8A    -20.572925     9A    -20.572463
      10A    -20.522848    11A    -11.321288    12A    -11.302895
      13A    -11.299181    14A    -11.298790    15A    -11.298021
      16A    -11.295219    17A    -11.290542    18A    -11.229722
      19A     -7.632023    20A     -5.530528    21A     -5.530157
      22A     -5.528950    23A     -1.460025    24A     -1.411696
      25A     -1.395179    26A     -1.393532    27A     -1.386677
      28A     -1.372014    29A     -1.366600    30A     -1.354288
      31A     -1.303218    32A     -1.115425    33A     -1.040211
      34A     -1.007581    35A     -1.003113    36A     -0.878310
      37A     -0.864321    38A     -0.859966    39A     -0.822568
      40A     -0.811629    41A     -0.751544    42A     -0.743727
      43A     -0.730585    44A     -0.728335    45A     -0.707255
      46A     -0.685495    47A     -0.682361    48A     -0.672873
      49A     -0.661856    50A     -0.660607    51A     -0.642545
      52A     -0.634669    53A     -0.628064    54A     -0.615939
      55A     -0.604271    56A     -0.600531    57A     -0.581860
      58A     -0.575635    59A     -0.570489    60A     -0.559220
      61A     -0.556951    62A     -0.548328    63A     -0.541469
      64A     -0.539569    65A     -0.530850    66A     -0.521467
      67A     -0.512880    68A     -0.504111    69A     -0.496500
      70A     -0.485555    71A     -0.479614    72A     -0.476096
      73A     -0.462191    74A     -0.454545    75A     -0.450447
      76A     -0.423904

  @DF-RHF Final Energy: -1327.85939407853289

   => Energetics <=

    Nuclear Repulsion Energy =           1771.6808986863338760
    One-Electron Energy =               -5355.5459314620593432
    Two-Electron Energy =                2256.0056386971923530
    Total Energy =                      -1327.8593940785331142
  Basis Set: (AUG-CC-PVTZ AUX)
    Blend: AUG-CC-PVTZ-RI
    Molecular point group: c1

    Geometry (in Angstrom), charge = 0, multiplicity = 1:

       Center              X                  Y                   Z               Mass
    ------------   -----------------  -----------------  -----------------  -----------------
         P           -2.289605478235    -0.938462686896     0.346210719476    30.973761998420
         O           -0.981662478235    -0.199981686896     0.939821719476    15.994914619570
         O            1.342740521765    -1.673902686896     1.232383719476    15.994914619570
         O            0.079195521765     2.361184313104     0.463700719476    15.994914619570
         O            3.069005521765    -2.185491686896    -0.807057280524    15.994914619570
         O            2.847825521765     2.504693313104     0.373067719476    15.994914619570
         O            4.196178521765     0.436977313104    -0.971341280524    15.994914619570
         O           -2.826372478235     0.034931313104    -0.805998280524    15.994914619570
         O           -3.258630478235    -0.721701686896     1.623203719476    15.994914619570
         O           -2.118502478235    -2.342063686896    -0.098135280524    15.994914619570
         C            0.118652521765     0.031589313104     0.017851719476    12.000000000000
         C            0.953782521765    -1.242624686896    -0.074192280524    12.000000000000
         C            0.899079521765     1.204224313104     0.566383719476    12.000000000000
         C            2.246030521765    -1.050376186896    -0.851117780524    12.000000000000
         C            2.177565521765     1.398052313104    -0.226508280524    12.000000000000
         C            3.026332521765     0.150285313104    -0.208789280524    12.000000000000
         C           -3.123722478235     1.433178313104    -0.487353280524    12.000000000000
         C           -3.535826478235     2.086745313104    -1.782586280524    12.000000000000
         H           -0.282601478235     0.300381313104    -0.968705280524     1.007825032230
         H            0.398690221765    -2.031184586896    -0.596453580524     1.007825032230
         H            1.157610521765     0.999457313104     1.613688719476     1.007825032230
         H            2.061424521765    -0.787079686896    -1.871223280524     1.007825032230
         H            1.917477521765     1.637867313104    -1.272050280524     1.007825032230
         H            3.296345521765    -0.092951686896     0.829178719476     1.007825032230
         H            0.522265521765    -1.886451686896     1.713042719476     1.007825032230
         H            0.666030521765     3.110891313104     0.684716719476     1.007825032230
         H            2.974033521765    -2.545793686896     0.096186719476     1.007825032230
         H            3.721919521765     2.550766313104    -0.057336280524     1.007825032230
         H            4.640217521765    -0.422253686896    -1.095554280524     1.007825032230
         H           -3.807904478235    -1.520757686896     1.736260719476     1.007825032230
         H           -3.930055478235     1.447121313104     0.250918719476     1.007825032230
         H           -2.229271478235     1.894460313104    -0.057563280524     1.007825032230
         H           -3.800030478235     3.132462313104    -1.601138280524     1.007825032230
         H           -2.716705478235     2.054903313104    -2.503342280524     1.007825032230
         H           -4.400453478235     1.575903313104    -2.211191280524     1.007825032230

  Basis Set: AUG-CC-PVTZ
    Blend: AUG-CC-PVTZ
  Basis Set: (AUG-CC-PVTZ AUX)
    Blend: AUG-CC-PVTZ-JKFIT
	 Reference Energy          =   -1327.8593940785328869 [Eh]
	 Singles Energy            =      -0.0000000000000000 [Eh]
	 Same-Spin Energy          =      -1.0143209672620073 [Eh]
	 Opposite-Spin Energy      =      -3.0755807411201230 [Eh]
	 Correlation Energy        =      -4.0899017083821301 [Eh]
	 Total Energy              =   -1331.9492957869149450 [Eh]

	 ================> DF-SCS-MP2 Energies <==================
	-----------------------------------------------------------
	 SCS Same-Spin Scale       =       0.3333333333333333 [-]
	 SCS Opposite-Spin Scale   =       1.2000000000000000 [-]
	 SCS Same-Spin Energy      =      -0.3381069890873357 [Eh]
	 SCS Opposite-Spin Energy  =      -3.6906968893441476 [Eh]
	 SCS Correlation Energy    =      -4.0288038784314830 [Eh]
	 SCS Total Energy          =   -1331.8881979569644045 [Eh]
	-----------------------------------------------------------

  Dipole Moment: [D]
     X:    -1.0764      Y:     1.7544      Z:     0.6741     Total:     2.1659

*** Psi4 exiting successfully. Buy a developer a beer!
