                               Psi4 1.3.2 release

  ==> Input File <==

--------------------------------------------------------------------------
#psi4
#
memory 32 gb

molecule  {
0 1
  P       -2.2900960    -0.9400430     0.3446780
  O       -0.9821530    -0.2015620     0.9382890
  O        1.3422500    -1.6754830     1.2308510
  O        0.0787050     2.3596040     0.4621680
  O        3.0685150    -2.1870720    -0.8085900
  O        2.8473350     2.5031130     0.3715350
  O        4.1956880     0.4353970    -0.9728740
  O       -2.8268630     0.0333510    -0.8075310
  O       -3.2591210    -0.7232820     1.6216710
  O       -2.1189930    -2.3436440    -0.0996680
  C        0.1181620     0.0300090     0.0163190
  C        0.9532920    -1.2442050    -0.0757250
  C        0.8985890     1.2026440     0.5648510
  C        2.2596600    -1.0143070    -0.8180370
  C        2.1870344     1.3943917    -0.2352057
  C        3.0258420     0.1487050    -0.2103220
  C       -3.1242130     1.4315980    -0.4888860
  C       -3.5363170     2.0851650    -1.7841190
  H       -0.2830920     0.2988010    -0.9702380
  H        0.3702690    -2.0293640    -0.5720320
  H        1.1571200     0.9978770     1.6121560
  H        2.0609340    -0.7886600    -1.8727560
  H        1.9169870     1.6362870    -1.2735830
  H        3.2958550    -0.0945320     0.8276460
  H        0.5217750    -1.8880320     1.7115100
  H        0.6655400     3.1093110     0.6831840
  H        2.9735430    -2.5473740     0.0946540
  H        3.7193966     2.5424328    -0.0636353
  H        4.6397270    -0.4238340    -1.0970870
  H       -3.8083950    -1.5223380     1.7347280
  H       -3.9305460     1.4455410     0.2493860
  H       -2.2297620     1.8928800    -0.0590960
  H       -3.8005210     3.1308820    -1.6026710
  H       -2.7171960     2.0533230    -2.5048750
  H       -4.4009440     1.5743230    -2.2127240
units angstrom
no_reorient  #important for SAPT in psi4, default
symmetry c1  #important for SAPT in psi4, default
}

set PROPERTIES_ORIGIN ["COM"]
properties('MP2/aug-cc-pvtz', properties = ['dipole'])
--------------------------------------------------------------------------

    Molecular point group: c1
  Charge       = 0
  Multiplicity = 1
  Basis Set: AUG-CC-PVTZ
    Blend: AUG-CC-PVTZ
  Basis Set: (AUG-CC-PVTZ AUX)
    Blend: AUG-CC-PVTZ-JKFIT

    Orbital Energies [Eh]
    ---------------------

    Doubly Occupied:

       1A    -80.116848     2A    -20.614662     3A    -20.606850
       4A    -20.598876     5A    -20.583145     6A    -20.577283
       7A    -20.574867     8A    -20.574167     9A    -20.573492
      10A    -20.523372    11A    -11.320449    12A    -11.303549
      13A    -11.299643    14A    -11.299344    15A    -11.298833
      16A    -11.296443    17A    -11.291297    18A    -11.229843
      19A     -7.632300    20A     -5.530806    21A     -5.530432
      22A     -5.529231    23A     -1.460178    24A     -1.410909
      25A     -1.395022    26A     -1.392968    27A     -1.386799
      28A     -1.372732    29A     -1.364195    30A     -1.354127
      31A     -1.303769    32A     -1.118668    33A     -1.040436
      34A     -1.012825    35A     -1.002312    36A     -0.879695
      37A     -0.864712    38A     -0.859666    39A     -0.822151
      40A     -0.810830    41A     -0.751731    42A     -0.745550
      43A     -0.731544    44A     -0.728460    45A     -0.707526
      46A     -0.687142    47A     -0.678269    48A     -0.673681
      49A     -0.662536    50A     -0.660775    51A     -0.642795
      52A     -0.634631    53A     -0.627432    54A     -0.615640
      55A     -0.603328    56A     -0.598644    57A     -0.581763
      58A     -0.575516    59A     -0.571107    60A     -0.559962
      61A     -0.556877    62A     -0.548316    63A     -0.541211
      64A     -0.537207    65A     -0.529871    66A     -0.521242
      67A     -0.513236    68A     -0.504424    69A     -0.496819
      70A     -0.484686    71A     -0.479757    72A     -0.476572
      73A     -0.461547    74A     -0.457380    75A     -0.449761
      76A     -0.436573

  @DF-RHF Final Energy: -1327.86105587795873

   => Energetics <=

    Nuclear Repulsion Energy =           1772.3628418748985496
    One-Electron Energy =               -5356.8653252502435862
    Two-Electron Energy =                2256.6414274973863030
    Total Energy =                      -1327.8610558779587336
  Basis Set: (AUG-CC-PVTZ AUX)
    Blend: AUG-CC-PVTZ-RI
    Molecular point group: c1

    Geometry (in Angstrom), charge = 0, multiplicity = 1:

       Center              X                  Y                   Z               Mass
    ------------   -----------------  -----------------  -----------------  -----------------
         P           -2.290503743604    -0.939932694429     0.344993132321    30.973761998420
         O           -0.982560743604    -0.201451694429     0.938604132321    15.994914619570
         O            1.341842256396    -1.675372694429     1.231166132321    15.994914619570
         O            0.078297256396     2.359714305571     0.462483132321    15.994914619570
         O            3.068107256396    -2.186961694429    -0.808274867679    15.994914619570
         O            2.846927256396     2.503223305571     0.371850132321    15.994914619570
         O            4.195280256396     0.435507305571    -0.972558867679    15.994914619570
         O           -2.827270743604     0.033461305571    -0.807215867679    15.994914619570
         O           -3.259528743604    -0.723171694429     1.621986132321    15.994914619570
         O           -2.119400743604    -2.343533694429    -0.099352867679    15.994914619570
         C            0.117754256396     0.030119305571     0.016634132321    12.000000000000
         C            0.952884256396    -1.244094694429    -0.075409867679    12.000000000000
         C            0.898181256396     1.202754305571     0.565166132321    12.000000000000
         C            2.259252256396    -1.014196694429    -0.817721867679    12.000000000000
         C            2.186626656396     1.394502005571    -0.234890567679    12.000000000000
         C            3.025434256396     0.148815305571    -0.210006867679    12.000000000000
         C           -3.124620743604     1.431708305571    -0.488570867679    12.000000000000
         C           -3.536724743604     2.085275305571    -1.783803867679    12.000000000000
         H           -0.283499743604     0.298911305571    -0.969922867679     1.007825032230
         H            0.369861256396    -2.029253694429    -0.571716867679     1.007825032230
         H            1.156712256396     0.997987305571     1.612471132321     1.007825032230
         H            2.060526256396    -0.788549694429    -1.872440867679     1.007825032230
         H            1.916579256396     1.636397305571    -1.273267867679     1.007825032230
         H            3.295447256396    -0.094421694429     0.827961132321     1.007825032230
         H            0.521367256396    -1.887921694429     1.711825132321     1.007825032230
         H            0.665132256396     3.109421305571     0.683499132321     1.007825032230
         H            2.973135256396    -2.547263694429     0.094969132321     1.007825032230
         H            3.718988856396     2.542543105571    -0.063320167679     1.007825032230
         H            4.639319256396    -0.423723694429    -1.096771867679     1.007825032230
         H           -3.808802743604    -1.522227694429     1.735043132321     1.007825032230
         H           -3.930953743604     1.445651305571     0.249701132321     1.007825032230
         H           -2.230169743604     1.892990305571    -0.058780867679     1.007825032230
         H           -3.800928743604     3.130992305571    -1.602355867679     1.007825032230
         H           -2.717603743604     2.053433305571    -2.504559867679     1.007825032230
         H           -4.401351743604     1.574433305571    -2.212408867679     1.007825032230

  Basis Set: AUG-CC-PVTZ
    Blend: AUG-CC-PVTZ
  Basis Set: (AUG-CC-PVTZ AUX)
    Blend: AUG-CC-PVTZ-JKFIT
	 Reference Energy          =   -1327.8610558779587336 [Eh]
	 Singles Energy            =      -0.0000000000000000 [Eh]
	 Same-Spin Energy          =      -1.0146553040998132 [Eh]
	 Opposite-Spin Energy      =      -3.0762254549640504 [Eh]
	 Correlation Energy        =      -4.0908807590638636 [Eh]
	 Total Energy              =   -1331.9519366370225271 [Eh]

	 ================> DF-SCS-MP2 Energies <==================
	-----------------------------------------------------------
	 SCS Same-Spin Scale       =       0.3333333333333333 [-]
	 SCS Opposite-Spin Scale   =       1.2000000000000000 [-]
	 SCS Same-Spin Energy      =      -0.3382184346999377 [Eh]
	 SCS Opposite-Spin Energy  =      -3.6914705459568604 [Eh]
	 SCS Correlation Energy    =      -4.0296889806567986 [Eh]
	 SCS Total Energy          =   -1331.8907448586155624 [Eh]
	-----------------------------------------------------------

  Dipole Moment: [D]
     X:    -1.1069      Y:     1.8549      Z:     0.7122     Total:     2.2744

*** Psi4 exiting successfully. Buy a developer a beer!
