                               Psi4 1.3.2 release

  ==> Input File <==

--------------------------------------------------------------------------
#psi4
#
memory 32 gb

molecule  {
0 1
  P       -2.2900960    -0.9400430     0.3446780
  O       -0.9821530    -0.2015620     0.9382890
  O        1.3422500    -1.6754830     1.2308510
  O        0.0787050     2.3596040     0.4621680
  O        3.0685150    -2.1870720    -0.8085900
  O        2.8473350     2.5031130     0.3715350
  O        4.1956880     0.4353970    -0.9728740
  O       -2.8268630     0.0333510    -0.8075310
  O       -3.2591210    -0.7232820     1.6216710
  O       -2.1189930    -2.3436440    -0.0996680
  C        0.1181620     0.0300090     0.0163190
  C        0.9260890    -1.2140422    -0.1671045
  C        0.8985890     1.2026440     0.5648510
  C        2.2596600    -1.0143070    -0.8180370
  C        2.1770750     1.3964720    -0.2280410
  C        3.0258420     0.1487050    -0.2103220
  C       -3.1242130     1.4315980    -0.4888860
  C       -3.5363170     2.0851650    -1.7841190
  H       -0.2830920     0.2988010    -0.9702380
  H        0.3702690    -2.0293640    -0.5720320
  H        1.1571200     0.9978770     1.6121560
  H        2.0609340    -0.7886600    -1.8727560
  H        1.9169870     1.6362870    -1.2735830
  H        3.2958550    -0.0945320     0.8276460
  H        0.5217750    -1.8880320     1.7115100
  H        0.6655400     3.1093110     0.6831840
  H        2.9735430    -2.5473740     0.0946540
  H        3.7214290     2.5491860    -0.0588690
  H        4.6397270    -0.4238340    -1.0970870
  H       -3.8083950    -1.5223380     1.7347280
  H       -3.9305460     1.4455410     0.2493860
  H       -2.2297620     1.8928800    -0.0590960
  H       -3.8005210     3.1308820    -1.6026710
  H       -2.7171960     2.0533230    -2.5048750
  H       -4.4009440     1.5743230    -2.2127240
units angstrom
no_reorient  #important for SAPT in psi4, default
symmetry c1  #important for SAPT in psi4, default
}

set PROPERTIES_ORIGIN ["COM"]
properties('MP2/aug-cc-pvtz', properties = ['dipole'])
--------------------------------------------------------------------------

    Molecular point group: c1
  Charge       = 0
  Multiplicity = 1
  Basis Set: AUG-CC-PVTZ
    Blend: AUG-CC-PVTZ
  Basis Set: (AUG-CC-PVTZ AUX)
    Blend: AUG-CC-PVTZ-JKFIT

    Orbital Energies [Eh]
    ---------------------

    Doubly Occupied:

       1A    -80.118035     2A    -20.615407     3A    -20.609334
       4A    -20.599805     5A    -20.577580     6A    -20.576505
       7A    -20.575116     8A    -20.574584     9A    -20.571054
      10A    -20.524510    11A    -11.324136    12A    -11.306223
      13A    -11.302054    14A    -11.300537    15A    -11.300047
      16A    -11.297788    17A    -11.293153    18A    -11.230437
      19A     -7.633493    20A     -5.531998    21A     -5.531625
      22A     -5.530423    23A     -1.461247    24A     -1.407297
      25A     -1.395454    26A     -1.388546    27A     -1.387517
      28A     -1.369530    29A     -1.357698    30A     -1.340731
      31A     -1.304877    32A     -1.125694    33A     -1.041142
      34A     -1.017635    35A     -1.009599    36A     -0.882162
      37A     -0.866010    38A     -0.863850    39A     -0.824427
      40A     -0.806885    41A     -0.751341    42A     -0.742440
      43A     -0.733655    44A     -0.728538    45A     -0.709070
      46A     -0.687970    47A     -0.673622    48A     -0.670298
      49A     -0.662670    50A     -0.659732    51A     -0.644972
      52A     -0.635731    53A     -0.626206    54A     -0.612433
      55A     -0.604424    56A     -0.598107    57A     -0.583894
      58A     -0.576346    59A     -0.568270    60A     -0.559852
      61A     -0.556160    62A     -0.545639    63A     -0.540207
      64A     -0.537010    65A     -0.522540    66A     -0.517793
      67A     -0.514180    68A     -0.503724    69A     -0.497065
      70A     -0.487607    71A     -0.480876    72A     -0.477819
      73A     -0.466652    74A     -0.456794    75A     -0.454590
      76A     -0.442093

  @DF-RHF Final Energy: -1327.85070977737405

   => Energetics <=

    Nuclear Repulsion Energy =           1772.1340382075170510
    One-Electron Energy =               -5356.3605624765395987
    Two-Electron Energy =                2256.3758144916487254
    Total Energy =                      -1327.8507097773740497
  Basis Set: (AUG-CC-PVTZ AUX)
    Blend: AUG-CC-PVTZ-RI
    Molecular point group: c1

    Geometry (in Angstrom), charge = 0, multiplicity = 1:

       Center              X                  Y                   Z               Mass
    ------------   -----------------  -----------------  -----------------  -----------------
         P           -2.288962748930    -0.941299499438     0.348484663409    30.973761998420
         O           -0.981019748930    -0.202818499438     0.942095663409    15.994914619570
         O            1.343383251070    -1.676739499438     1.234657663409    15.994914619570
         O            0.079838251070     2.358347500562     0.465974663409    15.994914619570
         O            3.069648251070    -2.188328499438    -0.804783336591    15.994914619570
         O            2.848468251070     2.501856500562     0.375341663409    15.994914619570
         O            4.196821251070     0.434140500562    -0.969067336591    15.994914619570
         O           -2.825729748930     0.032094500562    -0.803724336591    15.994914619570
         O           -3.257987748930    -0.724538499438     1.625477663409    15.994914619570
         O           -2.117859748930    -2.344900499438    -0.095861336591    15.994914619570
         C            0.119295251070     0.028752500562     0.020125663409    12.000000000000
         C            0.927222251070    -1.215298699438    -0.163297836591    12.000000000000
         C            0.899722251070     1.201387500562     0.568657663409    12.000000000000
         C            2.260793251070    -1.015563499438    -0.814230336591    12.000000000000
         C            2.178208251070     1.395215500562    -0.224234336591    12.000000000000
         C            3.026975251070     0.147448500562    -0.206515336591    12.000000000000
         C           -3.123079748930     1.430341500562    -0.485079336591    12.000000000000
         C           -3.535183748930     2.083908500562    -1.780312336591    12.000000000000
         H           -0.281958748930     0.297544500562    -0.966431336591     1.007825032230
         H            0.371402251070    -2.030620499438    -0.568225336591     1.007825032230
         H            1.158253251070     0.996620500562     1.615962663409     1.007825032230
         H            2.062067251070    -0.789916499438    -1.868949336591     1.007825032230
         H            1.918120251070     1.635030500562    -1.269776336591     1.007825032230
         H            3.296988251070    -0.095788499438     0.831452663409     1.007825032230
         H            0.522908251070    -1.889288499438     1.715316663409     1.007825032230
         H            0.666673251070     3.108054500562     0.686990663409     1.007825032230
         H            2.974676251070    -2.548630499438     0.098460663409     1.007825032230
         H            3.722562251070     2.547929500562    -0.055062336591     1.007825032230
         H            4.640860251070    -0.425090499438    -1.093280336591     1.007825032230
         H           -3.807261748930    -1.523594499438     1.738534663409     1.007825032230
         H           -3.929412748930     1.444284500562     0.253192663409     1.007825032230
         H           -2.228628748930     1.891623500562    -0.055289336591     1.007825032230
         H           -3.799387748930     3.129625500562    -1.598864336591     1.007825032230
         H           -2.716062748930     2.052066500562    -2.501068336591     1.007825032230
         H           -4.399810748930     1.573066500562    -2.208917336591     1.007825032230

  Basis Set: AUG-CC-PVTZ
    Blend: AUG-CC-PVTZ
  Basis Set: (AUG-CC-PVTZ AUX)
    Blend: AUG-CC-PVTZ-JKFIT
	 Reference Energy          =   -1327.8507097773740497 [Eh]
	 Singles Energy            =      -0.0000000000000000 [Eh]
	 Same-Spin Energy          =      -1.0152447411359848 [Eh]
	 Opposite-Spin Energy      =      -3.0783279773004648 [Eh]
	 Correlation Energy        =      -4.0935727184364499 [Eh]
	 Total Energy              =   -1331.9442824958105120 [Eh]

	 ================> DF-SCS-MP2 Energies <==================
	-----------------------------------------------------------
	 SCS Same-Spin Scale       =       0.3333333333333333 [-]
	 SCS Opposite-Spin Scale   =       1.2000000000000000 [-]
	 SCS Same-Spin Energy      =      -0.3384149137119949 [Eh]
	 SCS Opposite-Spin Energy  =      -3.6939935727605575 [Eh]
	 SCS Correlation Energy    =      -4.0324084864725522 [Eh]
	 SCS Total Energy          =   -1331.8831182638466544 [Eh]
	-----------------------------------------------------------

  Dipole Moment: [D]
     X:    -1.1751      Y:     1.9820      Z:     0.4922     Total:     2.3562

*** Psi4 exiting successfully. Buy a developer a beer!
