                               Psi4 1.3.2 release

  ==> Input File <==

--------------------------------------------------------------------------
#psi4
#
memory 32 gb

molecule  {
0 1
  P       -2.2900960    -0.9400430     0.3446780
  O       -0.9821530    -0.2015620     0.9382890
  O        1.3422500    -1.6754830     1.2308510
  O        0.0787050     2.3596040     0.4621680
  O        3.0685150    -2.1870720    -0.8085900
  O        2.8473350     2.5031130     0.3715350
  O        4.1956880     0.4353970    -0.9728740
  O       -2.8268630     0.0333510    -0.8075310
  O       -3.2591210    -0.7232820     1.6216710
  O       -2.1189930    -2.3436440    -0.0996680
  C        0.1181620     0.0300090     0.0163190
  C        0.9532920    -1.2442050    -0.0757250
  C        0.8985890     1.2026440     0.5648510
  C        2.2389821    -0.9982233    -0.8221685
  C        2.1576210     1.3827999    -0.2393727
  C        3.0258420     0.1487050    -0.2103220
  C       -3.1242130     1.4315980    -0.4888860
  C       -3.5363170     2.0851650    -1.7841190
  H       -0.2830920     0.2988010    -0.9702380
  H        0.3702690    -2.0293640    -0.5720320
  H        1.1571200     0.9978770     1.6121560
  H        2.0609340    -0.7886600    -1.8727560
  H        1.9169870     1.6362870    -1.2735830
  H        3.2958550    -0.0945320     0.8276460
  H        0.5217750    -1.8880320     1.7115100
  H        0.6655400     3.1093110     0.6831840
  H        2.9735430    -2.5473740     0.0946540
  H        3.7214290     2.5491860    -0.0588690
  H        4.6397270    -0.4238340    -1.0970870
  H       -3.8083950    -1.5223380     1.7347280
  H       -3.9305460     1.4455410     0.2493860
  H       -2.2297620     1.8928800    -0.0590960
  H       -3.8005210     3.1308820    -1.6026710
  H       -2.7171960     2.0533230    -2.5048750
  H       -4.4009440     1.5743230    -2.2127240
units angstrom
no_reorient  #important for SAPT in psi4, default
symmetry c1  #important for SAPT in psi4, default
}

set PROPERTIES_ORIGIN ["COM"]
properties('MP2/aug-cc-pvtz', properties = ['dipole'])
--------------------------------------------------------------------------

    Molecular point group: c1
  Charge       = 0
  Multiplicity = 1
  Basis Set: AUG-CC-PVTZ
    Blend: AUG-CC-PVTZ
  Basis Set: (AUG-CC-PVTZ AUX)
    Blend: AUG-CC-PVTZ-JKFIT

    Orbital Energies [Eh]
    ---------------------

    Doubly Occupied:

       1A    -80.117349     2A    -20.615074     3A    -20.607441
       4A    -20.599369     5A    -20.584093     6A    -20.575095
       7A    -20.574194     8A    -20.573794     9A    -20.571792
      10A    -20.523873    11A    -11.321455    12A    -11.304536
      13A    -11.299774    14A    -11.299467    15A    -11.299378
      16A    -11.296681    17A    -11.293154    18A    -11.230214
      19A     -7.632801    20A     -5.531307    21A     -5.530933
      22A     -5.529732    23A     -1.460734    24A     -1.409689
      25A     -1.392442    26A     -1.390412    27A     -1.387099
      28A     -1.373250    29A     -1.357893    30A     -1.348722
      31A     -1.304266    32A     -1.123622    33A     -1.040858
      34A     -1.013427    35A     -1.007480    36A     -0.881313
      37A     -0.865443    38A     -0.858811    39A     -0.822445
      40A     -0.812478    41A     -0.751489    42A     -0.744700
      43A     -0.732369    44A     -0.728883    45A     -0.706442
      46A     -0.687702    47A     -0.676980    48A     -0.674013
      49A     -0.661889    50A     -0.658128    51A     -0.641822
      52A     -0.635629    53A     -0.626539    54A     -0.614972
      55A     -0.602876    56A     -0.596898    57A     -0.582018
      58A     -0.575952    59A     -0.571209    60A     -0.558491
      61A     -0.555753    62A     -0.548848    63A     -0.541600
      64A     -0.534564    65A     -0.531261    66A     -0.522141
      67A     -0.513197    68A     -0.505452    69A     -0.497690
      70A     -0.485780    71A     -0.480310    72A     -0.477062
      73A     -0.465330    74A     -0.457858    75A     -0.451938
      76A     -0.437250

  @DF-RHF Final Energy: -1327.85895036996976

   => Energetics <=

    Nuclear Repulsion Energy =           1772.8257203671612388
    One-Electron Energy =               -5357.7755037972783612
    Two-Electron Energy =                2257.0908330601473608
    Total Energy =                      -1327.8589503699699890
  Basis Set: (AUG-CC-PVTZ AUX)
    Blend: AUG-CC-PVTZ-RI
    Molecular point group: c1

    Geometry (in Angstrom), charge = 0, multiplicity = 1:

       Center              X                  Y                   Z               Mass
    ------------   -----------------  -----------------  -----------------  -----------------
         P           -2.288424158875    -0.940143444374     0.345322154290    30.973761998420
         O           -0.980481158875    -0.201662444374     0.938933154290    15.994914619570
         O            1.343921841125    -1.675583444374     1.231495154290    15.994914619570
         O            0.080376841125     2.359503555626     0.462812154290    15.994914619570
         O            3.070186841125    -2.187172444374    -0.807945845710    15.994914619570
         O            2.849006841125     2.503012555626     0.372179154290    15.994914619570
         O            4.197359841125     0.435296555626    -0.972229845710    15.994914619570
         O           -2.825191158875     0.033250555626    -0.806886845710    15.994914619570
         O           -3.257449158875    -0.723382444374     1.622315154290    15.994914619570
         O           -2.117321158875    -2.343744444374    -0.099023845710    15.994914619570
         C            0.119833841125     0.029908555626     0.016963154290    12.000000000000
         C            0.954963841125    -1.244305444374    -0.075080845710    12.000000000000
         C            0.900260841125     1.202543555626     0.565495154290    12.000000000000
         C            2.240653941125    -0.998323744374    -0.821524345710    12.000000000000
         C            2.159292841125     1.382699455626    -0.238728545710    12.000000000000
         C            3.027513841125     0.148604555626    -0.209677845710    12.000000000000
         C           -3.122541158875     1.431497555626    -0.488241845710    12.000000000000
         C           -3.534645158875     2.085064555626    -1.783474845710    12.000000000000
         H           -0.281420158875     0.298700555626    -0.969593845710     1.007825032230
         H            0.371940841125    -2.029464444374    -0.571387845710     1.007825032230
         H            1.158791841125     0.997776555626     1.612800154290     1.007825032230
         H            2.062605841125    -0.788760444374    -1.872111845710     1.007825032230
         H            1.918658841125     1.636186555626    -1.272938845710     1.007825032230
         H            3.297526841125    -0.094632444374     0.828290154290     1.007825032230
         H            0.523446841125    -1.888132444374     1.712154154290     1.007825032230
         H            0.667211841125     3.109210555626     0.683828154290     1.007825032230
         H            2.975214841125    -2.547474444374     0.095298154290     1.007825032230
         H            3.723100841125     2.549085555626    -0.058224845710     1.007825032230
         H            4.641398841125    -0.423934444374    -1.096442845710     1.007825032230
         H           -3.806723158875    -1.522438444374     1.735372154290     1.007825032230
         H           -3.928874158875     1.445440555626     0.250030154290     1.007825032230
         H           -2.228090158875     1.892779555626    -0.058451845710     1.007825032230
         H           -3.798849158875     3.130781555626    -1.602026845710     1.007825032230
         H           -2.715524158875     2.053222555626    -2.504230845710     1.007825032230
         H           -4.399272158875     1.574222555626    -2.212079845710     1.007825032230

  Basis Set: AUG-CC-PVTZ
    Blend: AUG-CC-PVTZ
  Basis Set: (AUG-CC-PVTZ AUX)
    Blend: AUG-CC-PVTZ-JKFIT
	 Reference Energy          =   -1327.8589503699697616 [Eh]
	 Singles Energy            =      -0.0000000000000000 [Eh]
	 Same-Spin Energy          =      -1.0148782415138726 [Eh]
	 Opposite-Spin Energy      =      -3.0770162444522184 [Eh]
	 Correlation Energy        =      -4.0918944859660913 [Eh]
	 Total Energy              =   -1331.9508448559358840 [Eh]

	 ================> DF-SCS-MP2 Energies <==================
	-----------------------------------------------------------
	 SCS Same-Spin Scale       =       0.3333333333333333 [-]
	 SCS Opposite-Spin Scale   =       1.2000000000000000 [-]
	 SCS Same-Spin Energy      =      -0.3382927471712909 [Eh]
	 SCS Opposite-Spin Energy  =      -3.6924194933426620 [Eh]
	 SCS Correlation Energy    =      -4.0307122405139530 [Eh]
	 SCS Total Energy          =   -1331.8896626104838106 [Eh]
	-----------------------------------------------------------

  Dipole Moment: [D]
     X:    -1.2166      Y:     1.8655      Z:     0.6879     Total:     2.3310

*** Psi4 exiting successfully. Buy a developer a beer!
