                               Psi4 1.3.2 release

  ==> Input File <==

--------------------------------------------------------------------------
#psi4
#
memory 32 gb

molecule  {
0 1
  P       -2.2900960    -0.9400430     0.3446780
  O       -0.9821530    -0.2015620     0.9382890
  O        1.3422500    -1.6754830     1.2308510
  O        0.0787050     2.3596040     0.4621680
  O        3.0685150    -2.1870720    -0.8085900
  O        2.8473350     2.5031130     0.3715350
  O        4.1956880     0.4353970    -0.9728740
  O       -2.8268630     0.0333510    -0.8075310
  O       -3.2591210    -0.7232820     1.6216710
  O       -2.1189930    -2.3436440    -0.0996680
  C        0.1181620     0.0300090     0.0163190
  C        0.9413179    -1.2459335    -0.0726714
  C        0.8985890     1.2026440     0.5648510
  C        2.2596600    -1.0143070    -0.8180370
  C        2.1770750     1.3964720    -0.2280410
  C        3.0258420     0.1487050    -0.2103220
  C       -3.1242130     1.4315980    -0.4888860
  C       -3.5363170     2.0851650    -1.7841190
  H       -0.2830920     0.2988010    -0.9702380
  H        0.3702690    -2.0293640    -0.5720320
  H        1.1571200     0.9978770     1.6121560
  H        2.0609340    -0.7886600    -1.8727560
  H        1.9169870     1.6362870    -1.2735830
  H        3.2958550    -0.0945320     0.8276460
  H        0.5172420    -1.8859029     1.7046384
  H        0.6655400     3.1093110     0.6831840
  H        2.9735430    -2.5473740     0.0946540
  H        3.7214290     2.5491860    -0.0588690
  H        4.6397270    -0.4238340    -1.0970870
  H       -3.8083950    -1.5223380     1.7347280
  H       -3.9305460     1.4455410     0.2493860
  H       -2.2297620     1.8928800    -0.0590960
  H       -3.8005210     3.1308820    -1.6026710
  H       -2.7171960     2.0533230    -2.5048750
  H       -4.4009440     1.5743230    -2.2127240
units angstrom
no_reorient  #important for SAPT in psi4, default
symmetry c1  #important for SAPT in psi4, default
}

set PROPERTIES_ORIGIN ["COM"]
properties('MP2/aug-cc-pvtz', properties = ['dipole'])
--------------------------------------------------------------------------

    Molecular point group: c1
  Charge       = 0
  Multiplicity = 1
  Basis Set: AUG-CC-PVTZ
    Blend: AUG-CC-PVTZ
  Basis Set: (AUG-CC-PVTZ AUX)
    Blend: AUG-CC-PVTZ-JKFIT

    Orbital Energies [Eh]
    ---------------------

    Doubly Occupied:

       1A    -80.117042     2A    -20.614796     3A    -20.606918
       4A    -20.599036     5A    -20.583663     6A    -20.576791
       7A    -20.574531     8A    -20.574027     9A    -20.573695
      10A    -20.523581    11A    -11.320714    12A    -11.303230
      13A    -11.299571    14A    -11.299469    15A    -11.298900
      16A    -11.296704    17A    -11.291353    18A    -11.229931
      19A     -7.632494    20A     -5.531000    21A     -5.530627
      22A     -5.529425    23A     -1.460445    24A     -1.410955
      25A     -1.394839    26A     -1.392997    27A     -1.386941
      28A     -1.372916    29A     -1.364095    30A     -1.353845
      31A     -1.303993    32A     -1.118590    33A     -1.040538
      34A     -1.012576    35A     -1.002186    36A     -0.880188
      37A     -0.864925    38A     -0.859515    39A     -0.822308
      40A     -0.810225    41A     -0.751863    42A     -0.745333
      43A     -0.731860    44A     -0.728684    45A     -0.707986
      46A     -0.687382    47A     -0.677509    48A     -0.673796
      49A     -0.662107    50A     -0.660867    51A     -0.643526
      52A     -0.635063    53A     -0.627150    54A     -0.615413
      55A     -0.603748    56A     -0.598612    57A     -0.581824
      58A     -0.575621    59A     -0.571559    60A     -0.559523
      61A     -0.556959    62A     -0.549030    63A     -0.541340
      64A     -0.536569    65A     -0.529800    66A     -0.521656
      67A     -0.512904    68A     -0.503735    69A     -0.497266
      70A     -0.484271    71A     -0.480070    72A     -0.476708
      73A     -0.462472    74A     -0.455863    75A     -0.450763
      76A     -0.436415

  @DF-RHF Final Energy: -1327.86114550868183

   => Energetics <=

    Nuclear Repulsion Energy =           1772.4750698239392932
    One-Electron Energy =               -5357.0827833405855927
    Two-Electron Energy =                2256.7465680079640151
    Total Energy =                      -1327.8611455086820570
  Basis Set: (AUG-CC-PVTZ AUX)
    Blend: AUG-CC-PVTZ-RI
    Molecular point group: c1

    Geometry (in Angstrom), charge = 0, multiplicity = 1:

       Center              X                  Y                   Z               Mass
    ------------   -----------------  -----------------  -----------------  -----------------
         P           -2.289581292632    -0.939978425727     0.344574825720    30.973761998420
         O           -0.981638292632    -0.201497425727     0.938185825720    15.994914619570
         O            1.342764707368    -1.675418425727     1.230747825720    15.994914619570
         O            0.079219707368     2.359668574273     0.462064825720    15.994914619570
         O            3.069029707368    -2.187007425727    -0.808693174280    15.994914619570
         O            2.847849707368     2.503177574273     0.371431825720    15.994914619570
         O            4.196202707368     0.435461574273    -0.972977174280    15.994914619570
         O           -2.826348292632     0.033415574273    -0.807634174280    15.994914619570
         O           -3.258606292632    -0.723217425727     1.621567825720    15.994914619570
         O           -2.118478292632    -2.343579425727    -0.099771174280    15.994914619570
         C            0.118676707368     0.030073574273     0.016215825720    12.000000000000
         C            0.941832607368    -1.245868925727    -0.072774574280    12.000000000000
         C            0.899103707368     1.202708574273     0.564747825720    12.000000000000
         C            2.260174707368    -1.014242425727    -0.818140174280    12.000000000000
         C            2.177589707368     1.396536574273    -0.228144174280    12.000000000000
         C            3.026356707368     0.148769574273    -0.210425174280    12.000000000000
         C           -3.123698292632     1.431662574273    -0.488989174280    12.000000000000
         C           -3.535802292632     2.085229574273    -1.784222174280    12.000000000000
         H           -0.282577292632     0.298865574273    -0.970341174280     1.007825032230
         H            0.370783707368    -2.029299425727    -0.572135174280     1.007825032230
         H            1.157634707368     0.997941574273     1.612052825720     1.007825032230
         H            2.061448707368    -0.788595425727    -1.872859174280     1.007825032230
         H            1.917501707368     1.636351574273    -1.273686174280     1.007825032230
         H            3.296369707368    -0.094467425727     0.827542825720     1.007825032230
         H            0.517756707368    -1.885838325727     1.704535225720     1.007825032230
         H            0.666054707368     3.109375574273     0.683080825720     1.007825032230
         H            2.974057707368    -2.547309425727     0.094550825720     1.007825032230
         H            3.721943707368     2.549250574273    -0.058972174280     1.007825032230
         H            4.640241707368    -0.423769425727    -1.097190174280     1.007825032230
         H           -3.807880292632    -1.522273425727     1.734624825720     1.007825032230
         H           -3.930031292632     1.445605574273     0.249282825720     1.007825032230
         H           -2.229247292632     1.892944574273    -0.059199174280     1.007825032230
         H           -3.800006292632     3.130946574273    -1.602774174280     1.007825032230
         H           -2.716681292632     2.053387574273    -2.504978174280     1.007825032230
         H           -4.400429292632     1.574387574273    -2.212827174280     1.007825032230

  Basis Set: AUG-CC-PVTZ
    Blend: AUG-CC-PVTZ
  Basis Set: (AUG-CC-PVTZ AUX)
    Blend: AUG-CC-PVTZ-JKFIT
	 Reference Energy          =   -1327.8611455086818296 [Eh]
	 Singles Energy            =      -0.0000000000000000 [Eh]
	 Same-Spin Energy          =      -1.0146176145072214 [Eh]
	 Opposite-Spin Energy      =      -3.0761748639838071 [Eh]
	 Correlation Energy        =      -4.0907924784910286 [Eh]
	 Total Energy              =   -1331.9519379871728688 [Eh]

	 ================> DF-SCS-MP2 Energies <==================
	-----------------------------------------------------------
	 SCS Same-Spin Scale       =       0.3333333333333333 [-]
	 SCS Opposite-Spin Scale   =       1.2000000000000000 [-]
	 SCS Same-Spin Energy      =      -0.3382058715024071 [Eh]
	 SCS Opposite-Spin Energy  =      -3.6914098367805686 [Eh]
	 SCS Correlation Energy    =      -4.0296157082829760 [Eh]
	 SCS Total Energy          =   -1331.8907612169648473 [Eh]
	-----------------------------------------------------------

  Dipole Moment: [D]
     X:    -1.1250      Y:     1.8661      Z:     0.7152     Total:     2.2933

*** Psi4 exiting successfully. Buy a developer a beer!
