                               Psi4 1.3.2 release

  ==> Input File <==

--------------------------------------------------------------------------
#psi4
#
memory 32 gb

molecule  {
0 1
  P       -2.2900960    -0.9400430     0.3446780
  O       -0.9821530    -0.2015620     0.9382890
  O        1.3422500    -1.6754830     1.2308510
  O        0.0787050     2.3596040     0.4621680
  O        3.0499321    -2.1997107    -0.8192299
  O        2.8473350     2.5031130     0.3715350
  O        4.1956880     0.4353970    -0.9728740
  O       -2.8268630     0.0333510    -0.8075310
  O       -3.2591210    -0.7232820     1.6216710
  O       -2.1189930    -2.3436440    -0.0996680
  C        0.1181620     0.0300090     0.0163190
  C        0.9532920    -1.2442050    -0.0757250
  C        0.8985890     1.2026440     0.5648510
  C        2.2596600    -1.0143070    -0.8180370
  C        2.1770750     1.3964720    -0.2280410
  C        3.0048560     0.1643853    -0.2144504
  C       -3.1242130     1.4315980    -0.4888860
  C       -3.5363170     2.0851650    -1.7841190
  H       -0.2830920     0.2988010    -0.9702380
  H        0.3702690    -2.0293640    -0.5720320
  H        1.1571200     0.9978770     1.6121560
  H        2.0609340    -0.7886600    -1.8727560
  H        1.9169870     1.6362870    -1.2735830
  H        3.2958550    -0.0945320     0.8276460
  H        0.5217750    -1.8880320     1.7115100
  H        0.6655400     3.1093110     0.6831840
  H        2.9735430    -2.5473740     0.0946540
  H        3.7214290     2.5491860    -0.0588690
  H        4.6397270    -0.4238340    -1.0970870
  H       -3.8083950    -1.5223380     1.7347280
  H       -3.9305460     1.4455410     0.2493860
  H       -2.2297620     1.8928800    -0.0590960
  H       -3.8005210     3.1308820    -1.6026710
  H       -2.7171960     2.0533230    -2.5048750
  H       -4.4009440     1.5743230    -2.2127240
units angstrom
no_reorient  #important for SAPT in psi4, default
symmetry c1  #important for SAPT in psi4, default
}

set PROPERTIES_ORIGIN ["COM"]
properties('MP2/aug-cc-pvtz', properties = ['dipole'])
--------------------------------------------------------------------------

    Molecular point group: c1
  Charge       = 0
  Multiplicity = 1
  Basis Set: AUG-CC-PVTZ
    Blend: AUG-CC-PVTZ
  Basis Set: (AUG-CC-PVTZ AUX)
    Blend: AUG-CC-PVTZ-JKFIT

    Orbital Energies [Eh]
    ---------------------

    Doubly Occupied:

       1A    -80.116963     2A    -20.614755     3A    -20.607096
       4A    -20.598984     5A    -20.582993     6A    -20.577847
       7A    -20.576082     8A    -20.574000     9A    -20.572858
      10A    -20.523393    11A    -11.320841    12A    -11.303016
      13A    -11.299984    14A    -11.299469    15A    -11.299438
      16A    -11.297082    17A    -11.292888    18A    -11.229933
      19A     -7.632412    20A     -5.530918    21A     -5.530545
      22A     -5.529342    23A     -1.460334    24A     -1.410626
      25A     -1.394611    26A     -1.392751    27A     -1.386812
      28A     -1.371309    29A     -1.364275    30A     -1.352516
      31A     -1.303792    32A     -1.121680    33A     -1.040576
      34A     -1.014710    35A     -1.004325    36A     -0.879911
      37A     -0.864830    38A     -0.860693    39A     -0.822146
      40A     -0.810705    41A     -0.751856    42A     -0.745351
      43A     -0.731638    44A     -0.728687    45A     -0.708440
      46A     -0.686786    47A     -0.677681    48A     -0.673373
      49A     -0.662689    50A     -0.661174    51A     -0.643453
      52A     -0.635161    53A     -0.627368    54A     -0.615730
      55A     -0.603989    56A     -0.597567    57A     -0.580990
      58A     -0.575534    59A     -0.570795    60A     -0.559815
      61A     -0.555653    62A     -0.548292    63A     -0.541108
      64A     -0.537175    65A     -0.529501    66A     -0.521983
      67A     -0.513662    68A     -0.503161    69A     -0.497329
      70A     -0.484649    71A     -0.479864    72A     -0.476590
      73A     -0.462729    74A     -0.459629    75A     -0.450255
      76A     -0.436629

  @DF-RHF Final Energy: -1327.85979690531349

   => Energetics <=

    Nuclear Repulsion Energy =           1772.7288346833468040
    One-Electron Energy =               -5357.5698104481261907
    Two-Electron Energy =                2256.9811788594661266
    Total Energy =                      -1327.8597969053134875
  Basis Set: (AUG-CC-PVTZ AUX)
    Blend: AUG-CC-PVTZ-RI
    Molecular point group: c1

    Geometry (in Angstrom), charge = 0, multiplicity = 1:

       Center              X                  Y                   Z               Mass
    ------------   -----------------  -----------------  -----------------  -----------------
         P           -2.288189899137    -0.939994411619     0.345440763507    30.973761998420
         O           -0.980246899137    -0.201513411619     0.939051763507    15.994914619570
         O            1.344156100863    -1.675434411619     1.231613763507    15.994914619570
         O            0.080611100863     2.359652588381     0.462930763507    15.994914619570
         O            3.051838200863    -2.199662111619    -0.818467136493    15.994914619570
         O            2.849241100863     2.503161588381     0.372297763507    15.994914619570
         O            4.197594100863     0.435445588381    -0.972111236493    15.994914619570
         O           -2.824956899137     0.033399588381    -0.806768236493    15.994914619570
         O           -3.257214899137    -0.723233411619     1.622433763507    15.994914619570
         O           -2.117086899137    -2.343595411619    -0.098905236493    15.994914619570
         C            0.120068100863     0.030057588381     0.017081763507    12.000000000000
         C            0.955198100863    -1.244156411619    -0.074962236493    12.000000000000
         C            0.900495100863     1.202692588381     0.565613763507    12.000000000000
         C            2.261566100863    -1.014258411619    -0.817274236493    12.000000000000
         C            2.178981100863     1.396520588381    -0.227278236493    12.000000000000
         C            3.006762100863     0.164433888381    -0.213687636493    12.000000000000
         C           -3.122306899137     1.431646588381    -0.488123236493    12.000000000000
         C           -3.534410899137     2.085213588381    -1.783356236493    12.000000000000
         H           -0.281185899137     0.298849588381    -0.969475236493     1.007825032230
         H            0.372175100863    -2.029315411619    -0.571269236493     1.007825032230
         H            1.159026100863     0.997925588381     1.612918763507     1.007825032230
         H            2.062840100863    -0.788611411619    -1.871993236493     1.007825032230
         H            1.918893100863     1.636335588381    -1.272820236493     1.007825032230
         H            3.297761100863    -0.094483411619     0.828408763507     1.007825032230
         H            0.523681100863    -1.887983411619     1.712272763507     1.007825032230
         H            0.667446100863     3.109359588381     0.683946763507     1.007825032230
         H            2.975449100863    -2.547325411619     0.095416763507     1.007825032230
         H            3.723335100863     2.549234588381    -0.058106236493     1.007825032230
         H            4.641633100863    -0.423785411619    -1.096324236493     1.007825032230
         H           -3.806488899137    -1.522289411619     1.735490763507     1.007825032230
         H           -3.928639899137     1.445589588381     0.250148763507     1.007825032230
         H           -2.227855899137     1.892928588381    -0.058333236493     1.007825032230
         H           -3.798614899137     3.130930588381    -1.601908236493     1.007825032230
         H           -2.715289899137     2.053371588381    -2.504112236493     1.007825032230
         H           -4.399037899137     1.574371588381    -2.211961236493     1.007825032230

  Basis Set: AUG-CC-PVTZ
    Blend: AUG-CC-PVTZ
  Basis Set: (AUG-CC-PVTZ AUX)
    Blend: AUG-CC-PVTZ-JKFIT
	 Reference Energy          =   -1327.8597969053134875 [Eh]
	 Singles Energy            =      -0.0000000000000000 [Eh]
	 Same-Spin Energy          =      -1.0148623560203431 [Eh]
	 Opposite-Spin Energy      =      -3.0765609075752645 [Eh]
	 Correlation Energy        =      -4.0914232635956074 [Eh]
	 Total Energy              =   -1331.9512201689090034 [Eh]

	 ================> DF-SCS-MP2 Energies <==================
	-----------------------------------------------------------
	 SCS Same-Spin Scale       =       0.3333333333333333 [-]
	 SCS Opposite-Spin Scale   =       1.2000000000000000 [-]
	 SCS Same-Spin Energy      =      -0.3382874520067810 [Eh]
	 SCS Opposite-Spin Energy  =      -3.6918730890903171 [Eh]
	 SCS Correlation Energy    =      -4.0301605410970982 [Eh]
	 SCS Total Energy          =   -1331.8899574464105626 [Eh]
	-----------------------------------------------------------

  Dipole Moment: [D]
     X:    -1.1193      Y:     1.8972      Z:     0.7496     Total:     2.3268

*** Psi4 exiting successfully. Buy a developer a beer!
