                               Psi4 1.3.2 release

  ==> Input File <==

--------------------------------------------------------------------------
#psi4
#
memory 32 gb

molecule  {
0 1
  P       -2.2900960    -0.9400430     0.3446780
  O       -0.9821530    -0.2015620     0.9382890
  O        1.3422500    -1.6754830     1.2308510
  O        0.0787050     2.3596040     0.4621680
  O        3.0685150    -2.1870720    -0.8085900
  O        2.8473350     2.5031130     0.3715350
  O        4.2118790     0.3892359    -0.9637665
  O       -2.8268630     0.0333510    -0.8075310
  O       -3.2591210    -0.7232820     1.6216710
  O       -2.1189930    -2.3436440    -0.0996680
  C        0.1181620     0.0300090     0.0163190
  C        0.9532920    -1.2442050    -0.0757250
  C        0.8985890     1.2026440     0.5648510
  C        2.2596600    -1.0143070    -0.8180370
  C        2.1413850     1.3715034    -0.1984142
  C        3.0258420     0.1487050    -0.2103220
  C       -3.1242130     1.4315980    -0.4888860
  C       -3.5363170     2.0851650    -1.7841190
  H       -0.2830920     0.2988010    -0.9702380
  H        0.3702690    -2.0293640    -0.5720320
  H        1.1571200     0.9978770     1.6121560
  H        2.0609340    -0.7886600    -1.8727560
  H        1.9169870     1.6362870    -1.2735830
  H        3.2958550    -0.0945320     0.8276460
  H        0.5217750    -1.8880320     1.7115100
  H        0.6655400     3.1093110     0.6831840
  H        2.9735430    -2.5473740     0.0946540
  H        3.7214290     2.5491860    -0.0588690
  H        4.6397270    -0.4238340    -1.0970870
  H       -3.8083950    -1.5223380     1.7347280
  H       -3.9305460     1.4455410     0.2493860
  H       -2.2297620     1.8928800    -0.0590960
  H       -3.8005210     3.1308820    -1.6026710
  H       -2.7171960     2.0533230    -2.5048750
  H       -4.4009440     1.5743230    -2.2127240
units angstrom
no_reorient  #important for SAPT in psi4, default
symmetry c1  #important for SAPT in psi4, default
}

set PROPERTIES_ORIGIN ["COM"]
properties('MP2/aug-cc-pvtz', properties = ['dipole'])
--------------------------------------------------------------------------

    Molecular point group: c1
  Charge       = 0
  Multiplicity = 1
  Basis Set: AUG-CC-PVTZ
    Blend: AUG-CC-PVTZ
  Basis Set: (AUG-CC-PVTZ AUX)
    Blend: AUG-CC-PVTZ-JKFIT

    Orbital Energies [Eh]
    ---------------------

    Doubly Occupied:

       1A    -80.117580     2A    -20.615261     3A    -20.608001
       4A    -20.599526     5A    -20.583574     6A    -20.575641
       7A    -20.574276     8A    -20.573666     9A    -20.569488
      10A    -20.523963    11A    -11.322470    12A    -11.303989
      13A    -11.300552    14A    -11.299941    15A    -11.299252
      16A    -11.299018    17A    -11.293800    18A    -11.230261
      19A     -7.633029    20A     -5.531535    21A     -5.531164
      22A     -5.529958    23A     -1.461039    24A     -1.411698
      25A     -1.396358    26A     -1.392124    27A     -1.387579
      28A     -1.376250    29A     -1.362090    30A     -1.353176
      31A     -1.304364    32A     -1.125793    33A     -1.040984
      34A     -1.014918    35A     -1.009512    36A     -0.884852
      37A     -0.866435    38A     -0.858941    39A     -0.823255
      40A     -0.810739    41A     -0.752035    42A     -0.746830
      43A     -0.733897    44A     -0.729069    45A     -0.708090
      46A     -0.688330    47A     -0.680204    48A     -0.675743
      49A     -0.666072    50A     -0.661743    51A     -0.642629
      52A     -0.639832    53A     -0.627236    54A     -0.614938
      55A     -0.603279    56A     -0.598466    57A     -0.581692
      58A     -0.576038    59A     -0.571637    60A     -0.558811
      61A     -0.553498    62A     -0.549770    63A     -0.541464
      64A     -0.534236    65A     -0.530820    66A     -0.524289
      67A     -0.512350    68A     -0.504266    69A     -0.498836
      70A     -0.486383    71A     -0.480520    72A     -0.477119
      73A     -0.467789    74A     -0.455856    75A     -0.449987
      76A     -0.435845

  @DF-RHF Final Energy: -1327.85814318249231

   => Energetics <=

    Nuclear Repulsion Energy =           1773.2718424606812277
    One-Electron Energy =               -5358.5486772568592642
    Two-Electron Energy =                2257.4186916136859509
    Total Energy =                      -1327.8581431824923129
  Basis Set: (AUG-CC-PVTZ AUX)
    Blend: AUG-CC-PVTZ-RI
    Molecular point group: c1

    Geometry (in Angstrom), charge = 0, multiplicity = 1:

       Center              X                  Y                   Z               Mass
    ------------   -----------------  -----------------  -----------------  -----------------
         P           -2.289508222465    -0.936439696965     0.342938097998    30.973761998420
         O           -0.981565222465    -0.197958696965     0.936549097998    15.994914619570
         O            1.342837777535    -1.671879696965     1.229111097998    15.994914619570
         O            0.079292777535     2.363207303035     0.460428097998    15.994914619570
         O            3.069102777535    -2.183468696965    -0.810329902002    15.994914619570
         O            2.847922777535     2.506716303035     0.369795097998    15.994914619570
         O            4.212466777535     0.392839203035    -0.965506402002    15.994914619570
         O           -2.826275222465     0.036954303035    -0.809270902002    15.994914619570
         O           -3.258533222465    -0.719678696965     1.619931097998    15.994914619570
         O           -2.118405222465    -2.340040696965    -0.101407902002    15.994914619570
         C            0.118749777535     0.033612303035     0.014579097998    12.000000000000
         C            0.953879777535    -1.240601696965    -0.077464902002    12.000000000000
         C            0.899176777535     1.206247303035     0.563111097998    12.000000000000
         C            2.260247777535    -1.010703696965    -0.819776902002    12.000000000000
         C            2.141972777535     1.375106703035    -0.200154102002    12.000000000000
         C            3.026429777535     0.152308303035    -0.212061902002    12.000000000000
         C           -3.123625222465     1.435201303035    -0.490625902002    12.000000000000
         C           -3.535729222465     2.088768303035    -1.785858902002    12.000000000000
         H           -0.282504222465     0.302404303035    -0.971977902002     1.007825032230
         H            0.370856777535    -2.025760696965    -0.573771902002     1.007825032230
         H            1.157707777535     1.001480303035     1.610416097998     1.007825032230
         H            2.061521777535    -0.785056696965    -1.874495902002     1.007825032230
         H            1.917574777535     1.639890303035    -1.275322902002     1.007825032230
         H            3.296442777535    -0.090928696965     0.825906097998     1.007825032230
         H            0.522362777535    -1.884428696965     1.709770097998     1.007825032230
         H            0.666127777535     3.112914303035     0.681444097998     1.007825032230
         H            2.974130777535    -2.543770696965     0.092914097998     1.007825032230
         H            3.722016777535     2.552789303035    -0.060608902002     1.007825032230
         H            4.640314777535    -0.420230696965    -1.098826902002     1.007825032230
         H           -3.807807222465    -1.518734696965     1.732988097998     1.007825032230
         H           -3.929958222465     1.449144303035     0.247646097998     1.007825032230
         H           -2.229174222465     1.896483303035    -0.060835902002     1.007825032230
         H           -3.799933222465     3.134485303035    -1.604410902002     1.007825032230
         H           -2.716608222465     2.056926303035    -2.506614902002     1.007825032230
         H           -4.400356222465     1.577926303035    -2.214463902002     1.007825032230

  Basis Set: AUG-CC-PVTZ
    Blend: AUG-CC-PVTZ
  Basis Set: (AUG-CC-PVTZ AUX)
    Blend: AUG-CC-PVTZ-JKFIT
	 Reference Energy          =   -1327.8581431824923129 [Eh]
	 Singles Energy            =      -0.0000000000000000 [Eh]
	 Same-Spin Energy          =      -1.0142633150909506 [Eh]
	 Opposite-Spin Energy      =      -3.0750164547511609 [Eh]
	 Correlation Energy        =      -4.0892797698421113 [Eh]
	 Total Energy              =   -1331.9474229523343638 [Eh]

	 ================> DF-SCS-MP2 Energies <==================
	-----------------------------------------------------------
	 SCS Same-Spin Scale       =       0.3333333333333333 [-]
	 SCS Opposite-Spin Scale   =       1.2000000000000000 [-]
	 SCS Same-Spin Energy      =      -0.3380877716969835 [Eh]
	 SCS Opposite-Spin Energy  =      -3.6900197457013930 [Eh]
	 SCS Correlation Energy    =      -4.0281075173983769 [Eh]
	 SCS Total Energy          =   -1331.8862506998907520 [Eh]
	-----------------------------------------------------------

  Dipole Moment: [D]
     X:    -1.2455      Y:     1.8564      Z:     0.7280     Total:     2.3511

*** Psi4 exiting successfully. Buy a developer a beer!
