                               Psi4 1.3.2 release

  ==> Input File <==

--------------------------------------------------------------------------
#psi4
#
memory 32 gb

molecule  {
0 1
  P       -2.2879783    -0.9815244     0.3072925
  O       -0.9821530    -0.2015620     0.9382890
  O        1.3422500    -1.6754830     1.2308510
  O        0.0787050     2.3596040     0.4621680
  O        3.0685150    -2.1870720    -0.8085900
  O        2.8473350     2.5031130     0.3715350
  O        4.1956880     0.4353970    -0.9728740
  O       -2.8268630     0.0333510    -0.8075310
  O       -3.2591210    -0.7232820     1.6216710
  O       -2.1189930    -2.3436440    -0.0996680
  C        0.1181620     0.0300090     0.0163190
  C        0.9532920    -1.2442050    -0.0757250
  C        0.8985890     1.2026440     0.5648510
  C        2.2596600    -1.0143070    -0.8180370
  C        2.1770750     1.3964720    -0.2280410
  C        3.0258420     0.1487050    -0.2103220
  C       -3.1378516     1.4388680    -0.5376153
  C       -3.5363170     2.0851650    -1.7841190
  H       -0.2830920     0.2988010    -0.9702380
  H        0.3702690    -2.0293640    -0.5720320
  H        1.1571200     0.9978770     1.6121560
  H        2.0609340    -0.7886600    -1.8727560
  H        1.9169870     1.6362870    -1.2735830
  H        3.2958550    -0.0945320     0.8276460
  H        0.5217750    -1.8880320     1.7115100
  H        0.6655400     3.1093110     0.6831840
  H        2.9735430    -2.5473740     0.0946540
  H        3.7214290     2.5491860    -0.0588690
  H        4.6397270    -0.4238340    -1.0970870
  H       -3.8083950    -1.5223380     1.7347280
  H       -3.9305460     1.4455410     0.2493860
  H       -2.2297620     1.8928800    -0.0590960
  H       -3.8005210     3.1308820    -1.6026710
  H       -2.7171960     2.0533230    -2.5048750
  H       -4.4009440     1.5743230    -2.2127240
units angstrom
no_reorient  #important for SAPT in psi4, default
symmetry c1  #important for SAPT in psi4, default
}

set PROPERTIES_ORIGIN ["COM"]
properties('MP2/aug-cc-pvtz', properties = ['dipole'])
--------------------------------------------------------------------------

    Molecular point group: c1
  Charge       = 0
  Multiplicity = 1
  Basis Set: AUG-CC-PVTZ
    Blend: AUG-CC-PVTZ
  Basis Set: (AUG-CC-PVTZ AUX)
    Blend: AUG-CC-PVTZ-JKFIT

    Orbital Energies [Eh]
    ---------------------

    Doubly Occupied:

       1A    -80.115818     2A    -20.607132     3A    -20.601621
       4A    -20.596847     5A    -20.582719     6A    -20.575661
       7A    -20.574357     8A    -20.573565     9A    -20.571363
      10A    -20.534788    11A    -11.316934    12A    -11.303271
      13A    -11.301242    14A    -11.298921    15A    -11.296522
      16A    -11.295301    17A    -11.290752    18A    -11.228310
      19A     -7.632273    20A     -5.530512    21A     -5.530178
      22A     -5.529643    23A     -1.452259    24A     -1.408598
      25A     -1.392695    26A     -1.388270    27A     -1.378217
      28A     -1.368260    29A     -1.362945    30A     -1.352604
      31A     -1.334315    32A     -1.116918    33A     -1.051506
      34A     -1.008744    35A     -1.002382    36A     -0.876837
      37A     -0.861666    38A     -0.857440    39A     -0.814249
      40A     -0.808399    41A     -0.749792    42A     -0.741700
      43A     -0.727024    44A     -0.723886    45A     -0.702409
      46A     -0.685092    47A     -0.677451    48A     -0.671300
      49A     -0.661007    50A     -0.657062    51A     -0.639803
      52A     -0.632930    53A     -0.626935    54A     -0.615576
      55A     -0.600006    56A     -0.598119    57A     -0.588403
      58A     -0.577175    59A     -0.569274    60A     -0.562775
      61A     -0.556713    62A     -0.547857    63A     -0.539726
      64A     -0.536740    65A     -0.526307    66A     -0.523206
      67A     -0.513821    68A     -0.503833    69A     -0.502326
      70A     -0.497801    71A     -0.484253    72A     -0.470599
      73A     -0.462627    74A     -0.454803    75A     -0.449223
      76A     -0.436505

  @DF-RHF Final Energy: -1327.85265279453210

   => Energetics <=

    Nuclear Repulsion Energy =           1771.5319916993616971
    One-Electron Energy =               -5355.2930979506782023
    Two-Electron Energy =                2255.9084534567841729
    Total Energy =                      -1327.8526527945323323
  Basis Set: (AUG-CC-PVTZ AUX)
    Blend: AUG-CC-PVTZ-RI
    Molecular point group: c1

    Geometry (in Angstrom), charge = 0, multiplicity = 1:

       Center              X                  Y                   Z               Mass
    ------------   -----------------  -----------------  -----------------  -----------------
         P           -2.287637818241    -0.977366947159     0.313342324185    30.973761998420
         O           -0.981812518241    -0.197404547159     0.944338824185    15.994914619570
         O            1.342590481759    -1.671325547159     1.236900824185    15.994914619570
         O            0.079045481759     2.363761452841     0.468217824185    15.994914619570
         O            3.068855481759    -2.182914547159    -0.802540175815    15.994914619570
         O            2.847675481759     2.507270452841     0.377584824185    15.994914619570
         O            4.196028481759     0.439554452841    -0.966824175815    15.994914619570
         O           -2.826522518241     0.037508452841    -0.801481175815    15.994914619570
         O           -3.258780518241    -0.719124547159     1.627720824185    15.994914619570
         O           -2.118652518241    -2.339486547159    -0.093618175815    15.994914619570
         C            0.118502481759     0.034166452841     0.022368824185    12.000000000000
         C            0.953632481759    -1.240047547159    -0.069675175815    12.000000000000
         C            0.898929481759     1.206801452841     0.570900824185    12.000000000000
         C            2.260000481759    -1.010149547159    -0.811987175815    12.000000000000
         C            2.177415481759     1.400629452841    -0.221991175815    12.000000000000
         C            3.026182481759     0.152862452841    -0.204272175815    12.000000000000
         C           -3.137511118241     1.443025452841    -0.531565475815    12.000000000000
         C           -3.535976518241     2.089322452841    -1.778069175815    12.000000000000
         H           -0.282751518241     0.302958452841    -0.964188175815     1.007825032230
         H            0.370609481759    -2.025206547159    -0.565982175815     1.007825032230
         H            1.157460481759     1.002034452841     1.618205824185     1.007825032230
         H            2.061274481759    -0.784502547159    -1.866706175815     1.007825032230
         H            1.917327481759     1.640444452841    -1.267533175815     1.007825032230
         H            3.296195481759    -0.090374547159     0.833695824185     1.007825032230
         H            0.522115481759    -1.883874547159     1.717559824185     1.007825032230
         H            0.665880481759     3.113468452841     0.689233824185     1.007825032230
         H            2.973883481759    -2.543216547159     0.100703824185     1.007825032230
         H            3.721769481759     2.553343452841    -0.052819175815     1.007825032230
         H            4.640067481759    -0.419676547159    -1.091037175815     1.007825032230
         H           -3.808054518241    -1.518180547159     1.740777824185     1.007825032230
         H           -3.930205518241     1.449698452841     0.255435824185     1.007825032230
         H           -2.229421518241     1.897037452841    -0.053046175815     1.007825032230
         H           -3.800180518241     3.135039452841    -1.596621175815     1.007825032230
         H           -2.716855518241     2.057480452841    -2.498825175815     1.007825032230
         H           -4.400603518241     1.578480452841    -2.206674175815     1.007825032230

  Basis Set: AUG-CC-PVTZ
    Blend: AUG-CC-PVTZ
  Basis Set: (AUG-CC-PVTZ AUX)
    Blend: AUG-CC-PVTZ-JKFIT
	 Reference Energy          =   -1327.8526527945321050 [Eh]
	 Singles Energy            =      -0.0000000000000000 [Eh]
	 Same-Spin Energy          =      -1.0147368055657777 [Eh]
	 Opposite-Spin Energy      =      -3.0763603882339203 [Eh]
	 Correlation Energy        =      -4.0910971937996976 [Eh]
	 Total Energy              =   -1331.9437499883317741 [Eh]

	 ================> DF-SCS-MP2 Energies <==================
	-----------------------------------------------------------
	 SCS Same-Spin Scale       =       0.3333333333333333 [-]
	 SCS Opposite-Spin Scale   =       1.2000000000000000 [-]
	 SCS Same-Spin Energy      =      -0.3382456018552592 [Eh]
	 SCS Opposite-Spin Energy  =      -3.6916324658807040 [Eh]
	 SCS Correlation Energy    =      -4.0298780677359636 [Eh]
	 SCS Total Energy          =   -1331.8825308622681405 [Eh]
	-----------------------------------------------------------

  Dipole Moment: [D]
     X:    -1.1916      Y:     1.5358      Z:     0.3445     Total:     1.9741

*** Psi4 exiting successfully. Buy a developer a beer!
