                               Psi4 1.4a3.dev225

  ==> Input File <==

--------------------------------------------------------------------------
#psi4
#
memory 32 gb

molecule  {
0 1
  P       -2.3219140    -1.0563120    -0.0968450
  O       -1.0285840    -0.5623410     0.7549430
  O        1.3695440    -1.8069540     1.2202350
  O       -0.1592450     2.1412630     0.5207450
  O        3.3269040    -2.0858120    -0.6453880
  O        2.5724350     2.5270130     0.6374560
  O        4.2203020     0.6406430    -0.6358120
  O       -2.8737010     0.2643620    -0.8096810
  O       -3.3065970    -1.3497020     1.1531960
  O       -2.1044560    -2.1814480    -1.0350500
  C        0.1200290    -0.1583450    -0.0432010
  C        1.0698050    -1.3527180    -0.1046720
  C        0.7441670     1.0454510     0.6308160
  C        2.4193320    -0.9866070    -0.7068450
  C        2.0603010     1.3853380    -0.0470020
  C        2.9984252     0.1786281    -0.0177299
  C       -3.2473180     1.4231610     0.0025120
  C       -3.2076300     2.6262440    -0.9075720
  H       -0.2047330     0.1313700    -1.0514980
  H        0.5965010    -2.1549610    -0.6866410
  H        0.9371260     0.8063110     1.6860210
  H        2.3054700    -0.7437210    -1.7704410
  H        1.8633300     1.6367370    -1.1028410
  H        3.2142070    -0.0417910     1.0561650
  H        0.5126160    -2.0057500     1.6426110
  H        0.3598300     2.9232990     0.7925780
  H        3.1793900    -2.4823080     0.2360710
  H        3.4672560     2.6739710     0.2770410
  H        4.7639490    -0.1654590    -0.7244900
  H       -3.7873380    -2.1826420     0.9908450
  H       -4.2474700     1.2335250     0.4005830
  H       -2.5352900     1.5309660     0.8217280
  H       -3.5402110     3.5125760    -0.3587690
  H       -2.1856630     2.7912820    -1.2511950
  H       -3.8637180     2.4807570    -1.7684970
units angstrom
no_reorient  #important for SAPT in psi4, default
symmetry c1  #important for SAPT in psi4, default
}

set PROPERTIES_ORIGIN ["COM"]
properties('MP2/aug-cc-pvtz', properties = ['dipole'])
--------------------------------------------------------------------------

    Molecular point group: c1
  Charge       = 0
  Multiplicity = 1
  Basis Set: AUG-CC-PVTZ
    Blend: AUG-CC-PVTZ
  Basis Set: (AUG-CC-PVTZ AUX)
    Blend: AUG-CC-PVTZ-JKFIT

    Orbital Energies [Eh]
    ---------------------

    Doubly Occupied:

       1A    -80.117086     2A    -20.615217     3A    -20.608458
       4A    -20.596197     5A    -20.584715     6A    -20.579995
       7A    -20.575569     8A    -20.574305     9A    -20.574179
      10A    -20.522831    11A    -11.321868    12A    -11.306609
      13A    -11.300299    14A    -11.299669    15A    -11.299553
      16A    -11.296237    17A    -11.294007    18A    -11.222946
      19A     -7.632349    20A     -5.530884    21A     -5.530382
      22A     -5.529321    23A     -1.458773    24A     -1.411252
      25A     -1.394488    26A     -1.393054    27A     -1.385290
      28A     -1.371178    29A     -1.364578    30A     -1.352344
      31A     -1.303011    32A     -1.121936    33A     -1.035635
      34A     -1.015208    35A     -1.004491    36A     -0.879267
      37A     -0.863041    38A     -0.859274    39A     -0.822451
      40A     -0.810236    41A     -0.754776    42A     -0.745238
      43A     -0.729158    44A     -0.726184    45A     -0.706111
      46A     -0.687527    47A     -0.678867    48A     -0.675367
      49A     -0.660091    50A     -0.659836    51A     -0.642004
      52A     -0.636081    53A     -0.624318    54A     -0.613621
      55A     -0.604339    56A     -0.596326    57A     -0.580646
      58A     -0.578222    59A     -0.570419    60A     -0.560119
      61A     -0.555369    62A     -0.548251    63A     -0.539461
      64A     -0.537566    65A     -0.529587    66A     -0.518078
      67A     -0.508417    68A     -0.502487    69A     -0.494443
      70A     -0.487050    71A     -0.478956    72A     -0.475737
      73A     -0.462916    74A     -0.453032    75A     -0.452552
      76A     -0.444304

  @DF-RHF Final Energy: -1327.85726976903106

   => Energetics <=

    Nuclear Repulsion Energy =           1775.0760707018609992
    One-Electron Energy =               -5362.3154043109580016
    Two-Electron Energy =                2259.3820638400661664
    Total Energy =                      -1327.8572697690310633
  Basis Set: (AUG-CC-PVTZ AUX)
    Blend: AUG-CC-PVTZ-RI
    Molecular point group: c1

    Geometry (in Angstrom), charge = 0, multiplicity = 1:

       Center              X                  Y                   Z               Mass
    ------------   -----------------  -----------------  -----------------  -----------------
         P           -2.310333423977    -1.016884586219    -0.098314646687    30.973761998420
         O           -1.017003423977    -0.522913586219     0.753473353313    15.994914619570
         O            1.381124576023    -1.767526586219     1.218765353313    15.994914619570
         O           -0.147664423977     2.180690413781     0.519275353313    15.994914619570
         O            3.338484576023    -2.046384586219    -0.646857646687    15.994914619570
         O            2.584015576023     2.566440413781     0.635986353313    15.994914619570
         O            4.231882576023     0.680070413781    -0.637281646687    15.994914619570
         O           -2.862120423977     0.303789413781    -0.811150646687    15.994914619570
         O           -3.295016423977    -1.310274586219     1.151726353313    15.994914619570
         O           -2.092875423977    -2.142020586219    -1.036519646687    15.994914619570
         C            0.131609576023    -0.118917586219    -0.044670646687    12.000000000000
         C            1.081385576023    -1.313290586219    -0.106141646687    12.000000000000
         C            0.755747576023     1.084878413781     0.629346353313    12.000000000000
         C            2.430912576023    -0.947179586219    -0.708314646687    12.000000000000
         C            2.071881576023     1.424765413781    -0.048471646687    12.000000000000
         C            3.010005776023     0.218055513781    -0.019199546687    12.000000000000
         C           -3.235737423977     1.462588413781     0.001042353313    12.000000000000
         C           -3.196049423977     2.665671413781    -0.909041646687    12.000000000000
         H           -0.193152423977     0.170797413781    -1.052967646687     1.007825032230
         H            0.608081576023    -2.115533586219    -0.688110646687     1.007825032230
         H            0.948706576023     0.845738413781     1.684551353313     1.007825032230
         H            2.317050576023    -0.704293586219    -1.771910646687     1.007825032230
         H            1.874910576023     1.676164413781    -1.104310646687     1.007825032230
         H            3.225787576023    -0.002363586219     1.054695353313     1.007825032230
         H            0.524196576023    -1.966322586219     1.641141353313     1.007825032230
         H            0.371410576023     2.962726413781     0.791108353313     1.007825032230
         H            3.190970576023    -2.442880586219     0.234601353313     1.007825032230
         H            3.478836576023     2.713398413781     0.275571353313     1.007825032230
         H            4.775529576023    -0.126031586219    -0.725959646687     1.007825032230
         H           -3.775757423977    -2.143214586219     0.989375353313     1.007825032230
         H           -4.235889423977     1.272952413781     0.399113353313     1.007825032230
         H           -2.523709423977     1.570393413781     0.820258353313     1.007825032230
         H           -3.528630423977     3.552003413781    -0.360238646687     1.007825032230
         H           -2.174082423977     2.830709413781    -1.252664646687     1.007825032230
         H           -3.852137423977     2.520184413781    -1.769966646687     1.007825032230

  Basis Set: AUG-CC-PVTZ
    Blend: AUG-CC-PVTZ
  Basis Set: (AUG-CC-PVTZ AUX)
    Blend: AUG-CC-PVTZ-JKFIT
	 Reference Energy          =   -1327.8572697690310633 [Eh]
	 Singles Energy            =      -0.0000000000000000 [Eh]
	 Same-Spin Energy          =      -1.0151748226059538 [Eh]
	 Opposite-Spin Energy      =      -3.0774510218052247 [Eh]
	 Correlation Energy        =      -4.0926258444111783 [Eh]
	 Total Energy              =   -1331.9498956134423224 [Eh]

	 ================> DF-SCS-MP2 Energies <==================
	-----------------------------------------------------------
	 SCS Same-Spin Scale       =       0.3333333333333333 [-]
	 SCS Opposite-Spin Scale   =       1.2000000000000000 [-]
	 SCS Same-Spin Energy      =      -0.3383916075353179 [Eh]
	 SCS Opposite-Spin Energy  =      -3.6929412261662695 [Eh]
	 SCS Correlation Energy    =      -4.0313328337015877 [Eh]
	 SCS Total Energy          =   -1331.8886026027325897 [Eh]
	-----------------------------------------------------------

  Dipole Moment: [D]
     X:    -0.9192      Y:     1.4019      Z:     1.8775     Total:     2.5170

*** Psi4 exiting successfully. Buy a developer a beer!
