                               Psi4 1.3.2 release

  ==> Input File <==

--------------------------------------------------------------------------
#psi4
#
memory 32 gb

molecule  {
0 1
  P       -2.2900960    -0.9400430     0.3446780
  O       -1.0051805    -0.1301181     0.9256088
  O        1.3422500    -1.6754830     1.2308510
  O        0.0787050     2.3596040     0.4621680
  O        3.0685150    -2.1870720    -0.8085900
  O        2.8473350     2.5031130     0.3715350
  O        4.1956880     0.4353970    -0.9728740
  O       -2.8268630     0.0333510    -0.8075310
  O       -3.2591210    -0.7232820     1.6216710
  O       -2.1189930    -2.3436440    -0.0996680
  C        0.1181620     0.0300090     0.0163190
  C        1.0012044    -1.2065630    -0.1274220
  C        0.8985890     1.2026440     0.5648510
  C        2.2596600    -1.0143070    -0.8180370
  C        2.1770750     1.3964720    -0.2280410
  C        3.0258420     0.1487050    -0.2103220
  C       -3.1242130     1.4315980    -0.4888860
  C       -3.5363170     2.0851650    -1.7841190
  H       -0.2830920     0.2988010    -0.9702380
  H        0.3702690    -2.0293640    -0.5720320
  H        1.1571200     0.9978770     1.6121560
  H        2.0609340    -0.7886600    -1.8727560
  H        1.9169870     1.6362870    -1.2735830
  H        3.2958550    -0.0945320     0.8276460
  H        0.5217750    -1.8880320     1.7115100
  H        0.6655400     3.1093110     0.6831840
  H        2.9735430    -2.5473740     0.0946540
  H        3.7214290     2.5491860    -0.0588690
  H        4.6397270    -0.4238340    -1.0970870
  H       -3.8083950    -1.5223380     1.7347280
  H       -3.9305460     1.4455410     0.2493860
  H       -2.2297620     1.8928800    -0.0590960
  H       -3.8005210     3.1308820    -1.6026710
  H       -2.7171960     2.0533230    -2.5048750
  H       -4.4009440     1.5743230    -2.2127240
units angstrom
no_reorient  #important for SAPT in psi4, default
symmetry c1  #important for SAPT in psi4, default
}

set PROPERTIES_ORIGIN ["COM"]
properties('MP2/aug-cc-pvtz', properties = ['dipole'])
--------------------------------------------------------------------------

    Molecular point group: c1
  Charge       = 0
  Multiplicity = 1
  Basis Set: AUG-CC-PVTZ
    Blend: AUG-CC-PVTZ
  Basis Set: (AUG-CC-PVTZ AUX)
    Blend: AUG-CC-PVTZ-JKFIT

    Orbital Energies [Eh]
    ---------------------

    Doubly Occupied:

       1A    -80.118926     2A    -20.615750     3A    -20.609422
       4A    -20.596726     5A    -20.577447     6A    -20.577409
       7A    -20.576874     8A    -20.574941     9A    -20.571965
      10A    -20.528454    11A    -11.322321    12A    -11.308183
      13A    -11.299830    14A    -11.297819    15A    -11.297393
      16A    -11.296592    17A    -11.292773    18A    -11.228872
      19A     -7.634230    20A     -5.532750    21A     -5.532353
      22A     -5.531148    23A     -1.459601    24A     -1.408417
      25A     -1.394722    26A     -1.390489    27A     -1.385687
      28A     -1.369496    29A     -1.359257    30A     -1.351566
      31A     -1.307677    32A     -1.126746    33A     -1.039386
      34A     -1.014662    35A     -1.011094    36A     -0.881516
      37A     -0.864664    38A     -0.858717    39A     -0.822850
      40A     -0.810496    41A     -0.751468    42A     -0.744578
      43A     -0.730761    44A     -0.725144    45A     -0.708734
      46A     -0.686469    47A     -0.676743    48A     -0.673269
      49A     -0.663361    50A     -0.661215    51A     -0.641611
      52A     -0.634199    53A     -0.628415    54A     -0.613403
      55A     -0.601863    56A     -0.598454    57A     -0.582829
      58A     -0.576336    59A     -0.569496    60A     -0.559608
      61A     -0.555018    62A     -0.544712    63A     -0.539232
      64A     -0.536318    65A     -0.526062    66A     -0.521925
      67A     -0.514462    68A     -0.508110    69A     -0.496510
      70A     -0.487652    71A     -0.481440    72A     -0.477761
      73A     -0.465434    74A     -0.456211    75A     -0.451147
      76A     -0.435922

  @DF-RHF Final Energy: -1327.84989791880139

   => Energetics <=

    Nuclear Repulsion Energy =           1772.4529088423009853
    One-Electron Energy =               -5356.9954341315624333
    Two-Electron Energy =                2256.6926273704602863
    Total Energy =                      -1327.8498979188011617
  Basis Set: (AUG-CC-PVTZ AUX)
    Blend: AUG-CC-PVTZ-RI
    Molecular point group: c1

    Geometry (in Angstrom), charge = 0, multiplicity = 1:

       Center              X                  Y                   Z               Mass
    ------------   -----------------  -----------------  -----------------  -----------------
         P           -2.290813266244    -0.945578070292     0.347535658631    30.973761998420
         O           -1.005897766244    -0.135653170292     0.928466458631    15.994914619570
         O            1.341532733756    -1.681018070292     1.233708658631    15.994914619570
         O            0.077987733756     2.354068929708     0.465025658631    15.994914619570
         O            3.067797733756    -2.192607070292    -0.805732341369    15.994914619570
         O            2.846617733756     2.497577929708     0.374392658631    15.994914619570
         O            4.194970733756     0.429861929708    -0.970016341369    15.994914619570
         O           -2.827580266244     0.027815929708    -0.804673341369    15.994914619570
         O           -3.259838266244    -0.728817070292     1.624528658631    15.994914619570
         O           -2.119710266244    -2.349179070292    -0.096810341369    15.994914619570
         C            0.117444733756     0.024473929708     0.019176658631    12.000000000000
         C            1.000487133756    -1.212098070292    -0.124564341369    12.000000000000
         C            0.897871733756     1.197108929708     0.567708658631    12.000000000000
         C            2.258942733756    -1.019842070292    -0.815179341369    12.000000000000
         C            2.176357733756     1.390936929708    -0.225183341369    12.000000000000
         C            3.025124733756     0.143169929708    -0.207464341369    12.000000000000
         C           -3.124930266244     1.426062929708    -0.486028341369    12.000000000000
         C           -3.537034266244     2.079629929708    -1.781261341369    12.000000000000
         H           -0.283809266244     0.293265929708    -0.967380341369     1.007825032230
         H            0.369551733756    -2.034899070292    -0.569174341369     1.007825032230
         H            1.156402733756     0.992341929708     1.615013658631     1.007825032230
         H            2.060216733756    -0.794195070292    -1.869898341369     1.007825032230
         H            1.916269733756     1.630751929708    -1.270725341369     1.007825032230
         H            3.295137733756    -0.100067070292     0.830503658631     1.007825032230
         H            0.521057733756    -1.893567070292     1.714367658631     1.007825032230
         H            0.664822733756     3.103775929708     0.686041658631     1.007825032230
         H            2.972825733756    -2.552909070292     0.097511658631     1.007825032230
         H            3.720711733756     2.543650929708    -0.056011341369     1.007825032230
         H            4.639009733756    -0.429369070292    -1.094229341369     1.007825032230
         H           -3.809112266244    -1.527873070292     1.737585658631     1.007825032230
         H           -3.931263266244     1.440005929708     0.252243658631     1.007825032230
         H           -2.230479266244     1.887344929708    -0.056238341369     1.007825032230
         H           -3.801238266244     3.125346929708    -1.599813341369     1.007825032230
         H           -2.717913266244     2.047787929708    -2.502017341369     1.007825032230
         H           -4.401661266244     1.568787929708    -2.209866341369     1.007825032230

  Basis Set: AUG-CC-PVTZ
    Blend: AUG-CC-PVTZ
  Basis Set: (AUG-CC-PVTZ AUX)
    Blend: AUG-CC-PVTZ-JKFIT
	 Reference Energy          =   -1327.8498979188013891 [Eh]
	 Singles Energy            =      -0.0000000000000000 [Eh]
	 Same-Spin Energy          =      -1.0157097376924213 [Eh]
	 Opposite-Spin Energy      =      -3.0783666164979397 [Eh]
	 Correlation Energy        =      -4.0940763541903609 [Eh]
	 Total Energy              =   -1331.9439742729916816 [Eh]

	 ================> DF-SCS-MP2 Energies <==================
	-----------------------------------------------------------
	 SCS Same-Spin Scale       =       0.3333333333333333 [-]
	 SCS Opposite-Spin Scale   =       1.2000000000000000 [-]
	 SCS Same-Spin Energy      =      -0.3385699125641404 [Eh]
	 SCS Opposite-Spin Energy  =      -3.6940399397975274 [Eh]
	 SCS Correlation Energy    =      -4.0326098523616682 [Eh]
	 SCS Total Energy          =   -1331.8825077711630911 [Eh]
	-----------------------------------------------------------

  Dipole Moment: [D]
     X:    -1.0929      Y:     1.7330      Z:     0.6252     Total:     2.1421

*** Psi4 exiting successfully. Buy a developer a beer!
