                               Psi4 1.3.2 release

  ==> Input File <==

--------------------------------------------------------------------------
#psi4
#
memory 32 gb

molecule  {
0 1
  P       -2.2900960    -0.9400430     0.3446780
  O       -0.9821530    -0.2015620     0.9382890
  O        1.3422500    -1.6754830     1.2308510
  O        0.0787050     2.3596040     0.4621680
  O        3.0685150    -2.1870720    -0.8085900
  O        2.8473350     2.5031130     0.3715350
  O        4.1956880     0.4353970    -0.9728740
  O       -2.8087737     0.0411444    -0.8238234
  O       -3.2591210    -0.7232820     1.6216710
  O       -2.1189930    -2.3436440    -0.0996680
  C        0.1181620     0.0300090     0.0163190
  C        0.9532920    -1.2442050    -0.0757250
  C        0.8985890     1.2026440     0.5648510
  C        2.2596600    -1.0143070    -0.8180370
  C        2.1770750     1.3964720    -0.2280410
  C        3.0258420     0.1487050    -0.2103220
  C       -3.1242130     1.4315980    -0.4888860
  C       -3.5363170     2.0851650    -1.7841190
  H       -0.2830920     0.2988010    -0.9702380
  H        0.3702690    -2.0293640    -0.5720320
  H        1.1571200     0.9978770     1.6121560
  H        2.0609340    -0.7886600    -1.8727560
  H        1.9169870     1.6362870    -1.2735830
  H        3.2958550    -0.0945320     0.8276460
  H        0.5217750    -1.8880320     1.7115100
  H        0.6655400     3.1093110     0.6831840
  H        2.9735430    -2.5473740     0.0946540
  H        3.7214290     2.5491860    -0.0588690
  H        4.6397270    -0.4238340    -1.0970870
  H       -3.8083950    -1.5223380     1.7347280
  H       -3.9299273     1.4646131     0.2494550
  H       -2.2297620     1.8928800    -0.0590960
  H       -3.8005210     3.1308820    -1.6026710
  H       -2.7171960     2.0533230    -2.5048750
  H       -4.4009440     1.5743230    -2.2127240
units angstrom
no_reorient  #important for SAPT in psi4, default
symmetry c1  #important for SAPT in psi4, default
}

set PROPERTIES_ORIGIN ["COM"]
properties('MP2/aug-cc-pvtz', properties = ['dipole'])
--------------------------------------------------------------------------

    Molecular point group: c1
  Charge       = 0
  Multiplicity = 1
  Basis Set: AUG-CC-PVTZ
    Blend: AUG-CC-PVTZ
  Basis Set: (AUG-CC-PVTZ AUX)
    Blend: AUG-CC-PVTZ-JKFIT

    Orbital Energies [Eh]
    ---------------------

    Doubly Occupied:

       1A    -80.118426     2A    -20.616738     3A    -20.607039
       4A    -20.599626     5A    -20.583097     6A    -20.576670
       7A    -20.574552     8A    -20.574012     9A    -20.573221
      10A    -20.524240    11A    -11.320441    12A    -11.303459
      13A    -11.299270    14A    -11.298577    15A    -11.298435
      16A    -11.296544    17A    -11.291344    18A    -11.228996
      19A     -7.633690    20A     -5.532199    21A     -5.531786
      22A     -5.530625    23A     -1.459838    24A     -1.410727
      25A     -1.394841    26A     -1.393054    27A     -1.386220
      28A     -1.372512    29A     -1.363838    30A     -1.353740
      31A     -1.304534    32A     -1.118934    33A     -1.039358
      34A     -1.011924    35A     -1.003330    36A     -0.879958
      37A     -0.863583    38A     -0.858970    39A     -0.822926
      40A     -0.810555    41A     -0.751618    42A     -0.745260
      43A     -0.731558    44A     -0.728195    45A     -0.708150
      46A     -0.687005    47A     -0.678109    48A     -0.673423
      49A     -0.662500    50A     -0.660773    51A     -0.643229
      52A     -0.634712    53A     -0.627094    54A     -0.615024
      55A     -0.603646    56A     -0.598359    57A     -0.581883
      58A     -0.575823    59A     -0.570496    60A     -0.559394
      61A     -0.556567    62A     -0.547686    63A     -0.541004
      64A     -0.536520    65A     -0.530148    66A     -0.521219
      67A     -0.512946    68A     -0.504282    69A     -0.497372
      70A     -0.484523    71A     -0.478925    72A     -0.477384
      73A     -0.462382    74A     -0.455749    75A     -0.450044
      76A     -0.436249

  @DF-RHF Final Energy: -1327.86021616823768

   => Energetics <=

    Nuclear Repulsion Energy =           1772.2682139511712194
    One-Electron Energy =               -5356.6747018227961235
    Two-Electron Energy =                2256.5462717033874469
    Total Energy =                      -1327.8602161682374572
  Basis Set: (AUG-CC-PVTZ AUX)
    Blend: AUG-CC-PVTZ-RI
    Molecular point group: c1

    Geometry (in Angstrom), charge = 0, multiplicity = 1:

       Center              X                  Y                   Z               Mass
    ------------   -----------------  -----------------  -----------------  -----------------
         P           -2.291102560669    -0.940542446321     0.345582403341    30.973761998420
         O           -0.983159560669    -0.202061446321     0.939193403341    15.994914619570
         O            1.341243439331    -1.675982446321     1.231755403341    15.994914619570
         O            0.077698439331     2.359104553679     0.463072403341    15.994914619570
         O            3.067508439331    -2.187571446321    -0.807685596659    15.994914619570
         O            2.846328439331     2.502613553679     0.372439403341    15.994914619570
         O            4.194681439331     0.434897553679    -0.971969596659    15.994914619570
         O           -2.809780260669     0.040644953679    -0.822918996659    15.994914619570
         O           -3.260127560669    -0.723781446321     1.622575403341    15.994914619570
         O           -2.119999560669    -2.344143446321    -0.098763596659    15.994914619570
         C            0.117155439331     0.029509553679     0.017223403341    12.000000000000
         C            0.952285439331    -1.244704446321    -0.074820596659    12.000000000000
         C            0.897582439331     1.202144553679     0.565755403341    12.000000000000
         C            2.258653439331    -1.014806446321    -0.817132596659    12.000000000000
         C            2.176068439331     1.395972553679    -0.227136596659    12.000000000000
         C            3.024835439331     0.148205553679    -0.209417596659    12.000000000000
         C           -3.125219560669     1.431098553679    -0.487981596659    12.000000000000
         C           -3.537323560669     2.084665553679    -1.783214596659    12.000000000000
         H           -0.284098560669     0.298301553679    -0.969333596659     1.007825032230
         H            0.369262439331    -2.029863446321    -0.571127596659     1.007825032230
         H            1.156113439331     0.997377553679     1.613060403341     1.007825032230
         H            2.059927439331    -0.789159446321    -1.871851596659     1.007825032230
         H            1.915980439331     1.635787553679    -1.272678596659     1.007825032230
         H            3.294848439331    -0.095031446321     0.828550403341     1.007825032230
         H            0.520768439331    -1.888531446321     1.712414403341     1.007825032230
         H            0.664533439331     3.108811553679     0.684088403341     1.007825032230
         H            2.972536439331    -2.547873446321     0.095558403341     1.007825032230
         H            3.720422439331     2.548686553679    -0.057964596659     1.007825032230
         H            4.638720439331    -0.424333446321    -1.096182596659     1.007825032230
         H           -3.809401560669    -1.522837446321     1.735632403341     1.007825032230
         H           -3.930933860669     1.464113653679     0.250359403341     1.007825032230
         H           -2.230768560669     1.892380553679    -0.058191596659     1.007825032230
         H           -3.801527560669     3.130382553679    -1.601766596659     1.007825032230
         H           -2.718202560669     2.052823553679    -2.503970596659     1.007825032230
         H           -4.401950560669     1.573823553679    -2.211819596659     1.007825032230

  Basis Set: AUG-CC-PVTZ
    Blend: AUG-CC-PVTZ
  Basis Set: (AUG-CC-PVTZ AUX)
    Blend: AUG-CC-PVTZ-JKFIT
	 Reference Energy          =   -1327.8602161682376845 [Eh]
	 Singles Energy            =      -0.0000000000000000 [Eh]
	 Same-Spin Energy          =      -1.0147966895461011 [Eh]
	 Opposite-Spin Energy      =      -3.0765880582570850 [Eh]
	 Correlation Energy        =      -4.0913847478031862 [Eh]
	 Total Energy              =   -1331.9516009160408885 [Eh]

	 ================> DF-SCS-MP2 Energies <==================
	-----------------------------------------------------------
	 SCS Same-Spin Scale       =       0.3333333333333333 [-]
	 SCS Opposite-Spin Scale   =       1.2000000000000000 [-]
	 SCS Same-Spin Energy      =      -0.3382655631820337 [Eh]
	 SCS Opposite-Spin Energy  =      -3.6919056699085018 [Eh]
	 SCS Correlation Energy    =      -4.0301712330905355 [Eh]
	 SCS Total Energy          =   -1331.8903874013283257 [Eh]
	-----------------------------------------------------------

  Dipole Moment: [D]
     X:    -1.1448      Y:     1.8103      Z:     0.7815     Total:     2.2800

*** Psi4 exiting successfully. Buy a developer a beer!
