                               Psi4 1.3.2 release

  ==> Input File <==

--------------------------------------------------------------------------
#psi4
#
memory 32 gb

molecule  {
0 1
  P       -2.2900960    -0.9400430     0.3446780
  O       -0.9821530    -0.2015620     0.9382890
  O        1.3422500    -1.6754830     1.2308510
  O        0.0787050     2.3596040     0.4621680
  O        3.0685150    -2.1870720    -0.8085900
  O        2.8473350     2.5031130     0.3715350
  O        4.1956880     0.4353970    -0.9728740
  O       -2.8268630     0.0333510    -0.8075310
  O       -3.2591210    -0.7232820     1.6216710
  O       -2.1189930    -2.3436440    -0.0996680
  C        0.1181620     0.0300090     0.0163190
  C        0.9532920    -1.2442050    -0.0757250
  C        0.8985890     1.2026440     0.5648510
  C        2.2585909    -1.0075816    -0.8294151
  C        2.1770750     1.3964720    -0.2280410
  C        3.0258420     0.1487050    -0.2103220
  C       -3.1242130     1.4315980    -0.4888860
  C       -3.5363170     2.0851650    -1.7841190
  H       -0.2830920     0.2988010    -0.9702380
  H        0.3702690    -2.0293640    -0.5720320
  H        1.1571200     0.9978770     1.6121560
  H        2.0609340    -0.7886600    -1.8727560
  H        1.9169870     1.6362870    -1.2735830
  H        3.3001454    -0.0859887     0.8284876
  H        0.5217750    -1.8880320     1.7115100
  H        0.6655400     3.1093110     0.6831840
  H        2.9735430    -2.5473740     0.0946540
  H        3.7214290     2.5491860    -0.0588690
  H        4.6397270    -0.4238340    -1.0970870
  H       -3.8083950    -1.5223380     1.7347280
  H       -3.9305460     1.4455410     0.2493860
  H       -2.2297620     1.8928800    -0.0590960
  H       -3.8005210     3.1308820    -1.6026710
  H       -2.7171960     2.0533230    -2.5048750
  H       -4.4009440     1.5743230    -2.2127240
units angstrom
no_reorient  #important for SAPT in psi4, default
symmetry c1  #important for SAPT in psi4, default
}

set PROPERTIES_ORIGIN ["COM"]
properties('MP2/aug-cc-pvtz', properties = ['dipole'])
--------------------------------------------------------------------------

    Molecular point group: c1
  Charge       = 0
  Multiplicity = 1
  Basis Set: AUG-CC-PVTZ
    Blend: AUG-CC-PVTZ
  Basis Set: (AUG-CC-PVTZ AUX)
    Blend: AUG-CC-PVTZ-JKFIT

    Orbital Energies [Eh]
    ---------------------

    Doubly Occupied:

       1A    -80.116895     2A    -20.614697     3A    -20.606890
       4A    -20.598926     5A    -20.583227     6A    -20.576899
       7A    -20.573853     8A    -20.573578     9A    -20.573528
      10A    -20.523390    11A    -11.320616    12A    -11.303830
      13A    -11.299390    14A    -11.299353    15A    -11.298673
      16A    -11.296690    17A    -11.291672    18A    -11.229887
      19A     -7.632345    20A     -5.530851    21A     -5.530478
      22A     -5.529276    23A     -1.460223    24A     -1.410286
      25A     -1.394683    26A     -1.392193    27A     -1.386801
      28A     -1.372688    29A     -1.363096    30A     -1.353082
      31A     -1.303787    32A     -1.119071    33A     -1.040474
      34A     -1.012169    35A     -1.003216    36A     -0.880018
      37A     -0.864825    38A     -0.859667    39A     -0.822471
      40A     -0.811060    41A     -0.751215    42A     -0.744947
      43A     -0.731353    44A     -0.728528    45A     -0.707890
      46A     -0.687083    47A     -0.677721    48A     -0.673572
      49A     -0.662507    50A     -0.660906    51A     -0.643070
      52A     -0.635118    53A     -0.626887    54A     -0.615210
      55A     -0.603725    56A     -0.598522    57A     -0.581841
      58A     -0.575668    59A     -0.570898    60A     -0.559424
      61A     -0.557038    62A     -0.548489    63A     -0.541219
      64A     -0.536341    65A     -0.530319    66A     -0.521844
      67A     -0.513069    68A     -0.504178    69A     -0.497059
      70A     -0.484586    71A     -0.479797    72A     -0.476583
      73A     -0.462256    74A     -0.455641    75A     -0.449982
      76A     -0.436788

  @DF-RHF Final Energy: -1327.86135681045698

   => Energetics <=

    Nuclear Repulsion Energy =           1772.3052041159157852
    One-Electron Energy =               -5356.7610576387041874
    Two-Electron Energy =                2256.5944967123314200
    Total Energy =                      -1327.8613568104569822
  Basis Set: (AUG-CC-PVTZ AUX)
    Blend: AUG-CC-PVTZ-RI
    Molecular point group: c1

    Geometry (in Angstrom), charge = 0, multiplicity = 1:

       Center              X                  Y                   Z               Mass
    ------------   -----------------  -----------------  -----------------  -----------------
         P           -2.290066441382    -0.940353037993     0.345149033380    30.973761998420
         O           -0.982123441382    -0.201872037993     0.938760033380    15.994914619570
         O            1.342279558618    -1.675793037993     1.231322033380    15.994914619570
         O            0.078734558618     2.359293962007     0.462639033380    15.994914619570
         O            3.068544558618    -2.187382037993    -0.808118966620    15.994914619570
         O            2.847364558618     2.502802962007     0.372006033380    15.994914619570
         O            4.195717558618     0.435086962007    -0.972402966620    15.994914619570
         O           -2.826833441382     0.033040962007    -0.807059966620    15.994914619570
         O           -3.259091441382    -0.723592037993     1.622142033380    15.994914619570
         O           -2.118963441382    -2.343954037993    -0.099196966620    15.994914619570
         C            0.118191558618     0.029698962007     0.016790033380    12.000000000000
         C            0.953321558618    -1.244515037993    -0.075253966620    12.000000000000
         C            0.898618558618     1.202333962007     0.565322033380    12.000000000000
         C            2.258620458618    -1.007891637993    -0.828944066620    12.000000000000
         C            2.177104558618     1.396161962007    -0.227569966620    12.000000000000
         C            3.025871558618     0.148394962007    -0.209850966620    12.000000000000
         C           -3.124183441382     1.431287962007    -0.488414966620    12.000000000000
         C           -3.536287441382     2.084854962007    -1.783647966620    12.000000000000
         H           -0.283062441382     0.298490962007    -0.969766966620     1.007825032230
         H            0.370298558618    -2.029674037993    -0.571560966620     1.007825032230
         H            1.157149558618     0.997566962007     1.612627033380     1.007825032230
         H            2.060963558618    -0.788970037993    -1.872284966620     1.007825032230
         H            1.917016558618     1.635976962007    -1.273111966620     1.007825032230
         H            3.300174958618    -0.086298737993     0.828958633380     1.007825032230
         H            0.521804558618    -1.888342037993     1.711981033380     1.007825032230
         H            0.665569558618     3.109000962007     0.683655033380     1.007825032230
         H            2.973572558618    -2.547684037993     0.095125033380     1.007825032230
         H            3.721458558618     2.548875962007    -0.058397966620     1.007825032230
         H            4.639756558618    -0.424144037993    -1.096615966620     1.007825032230
         H           -3.808365441382    -1.522648037993     1.735199033380     1.007825032230
         H           -3.930516441382     1.445230962007     0.249857033380     1.007825032230
         H           -2.229732441382     1.892569962007    -0.058624966620     1.007825032230
         H           -3.800491441382     3.130571962007    -1.602199966620     1.007825032230
         H           -2.717166441382     2.053012962007    -2.504403966620     1.007825032230
         H           -4.400914441382     1.574012962007    -2.212252966620     1.007825032230

  Basis Set: AUG-CC-PVTZ
    Blend: AUG-CC-PVTZ
  Basis Set: (AUG-CC-PVTZ AUX)
    Blend: AUG-CC-PVTZ-JKFIT
	 Reference Energy          =   -1327.8613568104569822 [Eh]
	 Singles Energy            =      -0.0000000000000000 [Eh]
	 Same-Spin Energy          =      -1.0145247448169463 [Eh]
	 Opposite-Spin Energy      =      -3.0760556978163280 [Eh]
	 Correlation Energy        =      -4.0905804426332741 [Eh]
	 Total Energy              =   -1331.9519372530903638 [Eh]

	 ================> DF-SCS-MP2 Energies <==================
	-----------------------------------------------------------
	 SCS Same-Spin Scale       =       0.3333333333333333 [-]
	 SCS Opposite-Spin Scale   =       1.2000000000000000 [-]
	 SCS Same-Spin Energy      =      -0.3381749149389821 [Eh]
	 SCS Opposite-Spin Energy  =      -3.6912668373795934 [Eh]
	 SCS Correlation Energy    =      -4.0294417523185757 [Eh]
	 SCS Total Energy          =   -1331.8907985627756716 [Eh]
	-----------------------------------------------------------

  Dipole Moment: [D]
     X:    -1.1180      Y:     1.8844      Z:     0.7115     Total:     2.3037

*** Psi4 exiting successfully. Buy a developer a beer!
