                               Psi4 1.4a3.dev225

  ==> Input File <==

--------------------------------------------------------------------------
#psi4
#
memory 32 gb

molecule  {
0 1
  P       -2.3219140    -1.0563120    -0.0968450
  O       -1.0285840    -0.5623410     0.7549430
  O        1.3695440    -1.8069540     1.2202350
  O       -0.1592450     2.1412630     0.5207450
  O        3.3269040    -2.0858120    -0.6453880
  O        2.5724350     2.5270130     0.6374560
  O        4.2203020     0.6406430    -0.6358120
  O       -2.8737010     0.2643620    -0.8096810
  O       -3.3065970    -1.3497020     1.1531960
  O       -2.1044560    -2.1814480    -1.0350500
  C        0.1200290    -0.1583450    -0.0432010
  C        1.0698050    -1.3527180    -0.1046720
  C        0.7441670     1.0454510     0.6308160
  C        2.4193320    -0.9866070    -0.7068450
  C        2.0603010     1.3853380    -0.0470020
  C        3.0102241     0.2023694    -0.0036893
  C       -3.2473180     1.4231610     0.0025120
  C       -3.2076300     2.6262440    -0.9075720
  H       -0.2047330     0.1313700    -1.0514980
  H        0.5965010    -2.1549610    -0.6866410
  H        0.9371260     0.8063110     1.6860210
  H        2.3054700    -0.7437210    -1.7704410
  H        1.8633300     1.6367370    -1.1028410
  H        3.2142070    -0.0417910     1.0561650
  H        0.5126160    -2.0057500     1.6426110
  H        0.3598300     2.9232990     0.7925780
  H        3.1793900    -2.4823080     0.2360710
  H        3.4672560     2.6739710     0.2770410
  H        4.7639490    -0.1654590    -0.7244900
  H       -3.7873380    -2.1826420     0.9908450
  H       -4.2474700     1.2335250     0.4005830
  H       -2.5352900     1.5309660     0.8217280
  H       -3.5402110     3.5125760    -0.3587690
  H       -2.1856630     2.7912820    -1.2511950
  H       -3.8637180     2.4807570    -1.7684970
units angstrom
no_reorient  #important for SAPT in psi4, default
symmetry c1  #important for SAPT in psi4, default
}

set PROPERTIES_ORIGIN ["COM"]
properties('MP2/aug-cc-pvtz', properties = ['dipole'])
--------------------------------------------------------------------------

    Molecular point group: c1
  Charge       = 0
  Multiplicity = 1
  Basis Set: AUG-CC-PVTZ
    Blend: AUG-CC-PVTZ
  Basis Set: (AUG-CC-PVTZ AUX)
    Blend: AUG-CC-PVTZ-JKFIT

    Orbital Energies [Eh]
    ---------------------

    Doubly Occupied:

       1A    -80.116943     2A    -20.615100     3A    -20.608250
       4A    -20.596105     5A    -20.584356     6A    -20.579111
       7A    -20.575345     8A    -20.574939     9A    -20.574468
      10A    -20.522668    11A    -11.321609    12A    -11.305799
      13A    -11.300455    14A    -11.300132    15A    -11.298867
      16A    -11.296196    17A    -11.293378    18A    -11.222927
      19A     -7.632206    20A     -5.530741    21A     -5.530238
      22A     -5.529177    23A     -1.458621    24A     -1.411035
      25A     -1.395008    26A     -1.392873    27A     -1.385235
      28A     -1.372093    29A     -1.364403    30A     -1.353615
      31A     -1.302850    32A     -1.119989    33A     -1.035568
      34A     -1.012507    35A     -1.004312    36A     -0.878252
      37A     -0.862574    38A     -0.859683    39A     -0.822697
      40A     -0.810177    41A     -0.754619    42A     -0.745643
      43A     -0.729131    44A     -0.726181    45A     -0.705848
      46A     -0.687104    47A     -0.679082    48A     -0.674714
      49A     -0.661430    50A     -0.659625    51A     -0.642072
      52A     -0.637093    53A     -0.623971    54A     -0.613300
      55A     -0.604270    56A     -0.596754    57A     -0.580795
      58A     -0.577933    59A     -0.570349    60A     -0.560004
      61A     -0.555338    62A     -0.548190    63A     -0.539001
      64A     -0.537730    65A     -0.529938    66A     -0.517862
      67A     -0.508530    68A     -0.503141    69A     -0.494611
      70A     -0.487367    71A     -0.478809    72A     -0.475602
      73A     -0.462764    74A     -0.455615    75A     -0.451478
      76A     -0.440208

  @DF-RHF Final Energy: -1327.86013799209604

   => Energetics <=

    Nuclear Repulsion Energy =           1774.7997600639262146
    One-Electron Energy =               -5361.7865850059633885
    Two-Electron Energy =                2259.1266869499409040
    Total Energy =                      -1327.8601379920960426
  Basis Set: (AUG-CC-PVTZ AUX)
    Blend: AUG-CC-PVTZ-RI
    Molecular point group: c1

    Geometry (in Angstrom), charge = 0, multiplicity = 1:

       Center              X                  Y                   Z               Mass
    ------------   -----------------  -----------------  -----------------  -----------------
         P           -2.310824940671    -1.017873597509    -0.098899547763    30.973761998420
         O           -1.017494940671    -0.523902597509     0.752888452237    15.994914619570
         O            1.380633059329    -1.768515597509     1.218180452237    15.994914619570
         O           -0.148155940671     2.179701402491     0.518690452237    15.994914619570
         O            3.337993059329    -2.047373597509    -0.647442547763    15.994914619570
         O            2.583524059329     2.565451402491     0.635401452237    15.994914619570
         O            4.231391059329     0.679081402491    -0.637866547763    15.994914619570
         O           -2.862611940671     0.302800402491    -0.811735547763    15.994914619570
         O           -3.295507940671    -1.311263597509     1.151141452237    15.994914619570
         O           -2.093366940671    -2.143009597509    -1.037104547763    15.994914619570
         C            0.131118059329    -0.119906597509    -0.045255547763    12.000000000000
         C            1.080894059329    -1.314279597509    -0.106726547763    12.000000000000
         C            0.755256059329     1.083889402491     0.628761452237    12.000000000000
         C            2.430421059329    -0.948168597509    -0.708899547763    12.000000000000
         C            2.071390059329     1.423776402491    -0.049056547763    12.000000000000
         C            3.021313159329     0.240807802491    -0.005743847763    12.000000000000
         C           -3.236228940671     1.461599402491     0.000457452237    12.000000000000
         C           -3.196540940671     2.664682402491    -0.909626547763    12.000000000000
         H           -0.193643940671     0.169808402491    -1.053552547763     1.007825032230
         H            0.607590059329    -2.116522597509    -0.688695547763     1.007825032230
         H            0.948215059329     0.844749402491     1.683966452237     1.007825032230
         H            2.316559059329    -0.705282597509    -1.772495547763     1.007825032230
         H            1.874419059329     1.675175402491    -1.104895547763     1.007825032230
         H            3.225296059329    -0.003352597509     1.054110452237     1.007825032230
         H            0.523705059329    -1.967311597509     1.640556452237     1.007825032230
         H            0.370919059329     2.961737402491     0.790523452237     1.007825032230
         H            3.190479059329    -2.443869597509     0.234016452237     1.007825032230
         H            3.478345059329     2.712409402491     0.274986452237     1.007825032230
         H            4.775038059329    -0.127020597509    -0.726544547763     1.007825032230
         H           -3.776248940671    -2.144203597509     0.988790452237     1.007825032230
         H           -4.236380940671     1.271963402491     0.398528452237     1.007825032230
         H           -2.524200940671     1.569404402491     0.819673452237     1.007825032230
         H           -3.529121940671     3.551014402491    -0.360823547763     1.007825032230
         H           -2.174573940671     2.829720402491    -1.253249547763     1.007825032230
         H           -3.852628940671     2.519195402491    -1.770551547763     1.007825032230

  Basis Set: AUG-CC-PVTZ
    Blend: AUG-CC-PVTZ
  Basis Set: (AUG-CC-PVTZ AUX)
    Blend: AUG-CC-PVTZ-JKFIT
	 Reference Energy          =   -1327.8601379920960426 [Eh]
	 Singles Energy            =      -0.0000000000000000 [Eh]
	 Same-Spin Energy          =      -1.0148632020750554 [Eh]
	 Opposite-Spin Energy      =      -3.0768689858591709 [Eh]
	 Correlation Energy        =      -4.0917321879342268 [Eh]
	 Total Energy              =   -1331.9518701800302551 [Eh]

	 ================> DF-SCS-MP2 Energies <==================
	-----------------------------------------------------------
	 SCS Same-Spin Scale       =       0.3333333333333333 [-]
	 SCS Opposite-Spin Scale   =       1.2000000000000000 [-]
	 SCS Same-Spin Energy      =      -0.3382877340250184 [Eh]
	 SCS Opposite-Spin Energy  =      -3.6922427830310047 [Eh]
	 SCS Correlation Energy    =      -4.0305305170560235 [Eh]
	 SCS Total Energy          =   -1331.8906685091519648 [Eh]
	-----------------------------------------------------------

  Dipole Moment: [D]
     X:    -0.8851      Y:     1.4121      Z:     1.8773     Total:     2.5103

*** Psi4 exiting successfully. Buy a developer a beer!
