                               Psi4 1.3.2 release

  ==> Input File <==

--------------------------------------------------------------------------
#psi4
#
memory 32 gb

molecule  {
0 1
  P       -2.2900960    -0.9400430     0.3446780
  O       -0.9821530    -0.2015620     0.9382890
  O        1.3422500    -1.6754830     1.2308510
  O        0.0787050     2.3596040     0.4621680
  O        3.0685150    -2.1870720    -0.8085900
  O        2.8473350     2.5031130     0.3715350
  O        4.1956880     0.4353970    -0.9728740
  O       -2.8268630     0.0333510    -0.8075310
  O       -3.2591210    -0.7232820     1.6216710
  O       -2.1189930    -2.3436440    -0.0996680
  C        0.1181620     0.0300090     0.0163190
  C        0.9532920    -1.2442050    -0.0757250
  C        0.8985890     1.2026440     0.5648510
  C        2.2596600    -1.0143070    -0.8180370
  C        2.1762865     1.3956798    -0.2411636
  C        3.0258420     0.1487050    -0.2103220
  C       -3.1242130     1.4315980    -0.4888860
  C       -3.5363170     2.0851650    -1.7841190
  H       -0.2830920     0.2988010    -0.9702380
  H        0.3702690    -2.0293640    -0.5720320
  H        1.1571200     0.9978770     1.6121560
  H        2.0609340    -0.7886600    -1.8727560
  H        1.9169870     1.6362870    -1.2735830
  H        3.3007373    -0.1021874     0.8245376
  H        0.5217750    -1.8880320     1.7115100
  H        0.6655400     3.1093110     0.6831840
  H        2.9735430    -2.5473740     0.0946540
  H        3.7214290     2.5491860    -0.0588690
  H        4.6397270    -0.4238340    -1.0970870
  H       -3.8083950    -1.5223380     1.7347280
  H       -3.9305460     1.4455410     0.2493860
  H       -2.2297620     1.8928800    -0.0590960
  H       -3.8005210     3.1308820    -1.6026710
  H       -2.7171960     2.0533230    -2.5048750
  H       -4.4009440     1.5743230    -2.2127240
units angstrom
no_reorient  #important for SAPT in psi4, default
symmetry c1  #important for SAPT in psi4, default
}

set PROPERTIES_ORIGIN ["COM"]
properties('MP2/aug-cc-pvtz', properties = ['dipole'])
--------------------------------------------------------------------------

    Molecular point group: c1
  Charge       = 0
  Multiplicity = 1
  Basis Set: AUG-CC-PVTZ
    Blend: AUG-CC-PVTZ
  Basis Set: (AUG-CC-PVTZ AUX)
    Blend: AUG-CC-PVTZ-JKFIT

    Orbital Energies [Eh]
    ---------------------

    Doubly Occupied:

       1A    -80.116926     2A    -20.614723     3A    -20.606968
       4A    -20.598951     5A    -20.583178     6A    -20.576227
       7A    -20.574654     8A    -20.573834     9A    -20.573378
      10A    -20.523436    11A    -11.320604    12A    -11.303566
      13A    -11.299405    14A    -11.299275    15A    -11.298880
      16A    -11.296410    17A    -11.291531    18A    -11.229906
      19A     -7.632377    20A     -5.530884    21A     -5.530510
      22A     -5.529309    23A     -1.460266    24A     -1.410623
      25A     -1.394133    26A     -1.392480    27A     -1.386862
      28A     -1.372633    29A     -1.363441    30A     -1.353128
      31A     -1.303832    32A     -1.118888    33A     -1.040492
      34A     -1.012157    35A     -1.002946    36A     -0.880018
      37A     -0.864875    38A     -0.859173    39A     -0.822314
      40A     -0.811301    41A     -0.751693    42A     -0.745192
      43A     -0.731666    44A     -0.728598    45A     -0.707235
      46A     -0.687384    47A     -0.678194    48A     -0.673716
      49A     -0.661642    50A     -0.660375    51A     -0.642551
      52A     -0.634752    53A     -0.627427    54A     -0.615482
      55A     -0.603307    56A     -0.598702    57A     -0.581776
      58A     -0.575550    59A     -0.571080    60A     -0.559325
      61A     -0.556527    62A     -0.548436    63A     -0.541232
      64A     -0.536618    65A     -0.529973    66A     -0.521291
      67A     -0.513230    68A     -0.504241    69A     -0.496889
      70A     -0.484617    71A     -0.479830    72A     -0.476608
      73A     -0.462844    74A     -0.457119    75A     -0.450461
      76A     -0.435856

  @DF-RHF Final Energy: -1327.86112722153302

   => Energetics <=

    Nuclear Repulsion Energy =           1772.3344182153693964
    One-Electron Energy =               -5356.8192680858328458
    Two-Electron Energy =                2256.6237226489301975
    Total Energy =                      -1327.8611272215330246
  Basis Set: (AUG-CC-PVTZ AUX)
    Blend: AUG-CC-PVTZ-RI
    Molecular point group: c1

    Geometry (in Angstrom), charge = 0, multiplicity = 1:

       Center              X                  Y                   Z               Mass
    ------------   -----------------  -----------------  -----------------  -----------------
         P           -2.290080201423    -0.939983197410     0.345235525155    30.973761998420
         O           -0.982137201423    -0.201502197410     0.938846525155    15.994914619570
         O            1.342265798577    -1.675423197410     1.231408525155    15.994914619570
         O            0.078720798577     2.359663802590     0.462725525155    15.994914619570
         O            3.068530798577    -2.187012197410    -0.808032474845    15.994914619570
         O            2.847350798577     2.503172802590     0.372092525155    15.994914619570
         O            4.195703798577     0.435456802590    -0.972316474845    15.994914619570
         O           -2.826847201423     0.033410802590    -0.806973474845    15.994914619570
         O           -3.259105201423    -0.723222197410     1.622228525155    15.994914619570
         O           -2.118977201423    -2.343584197410    -0.099110474845    15.994914619570
         C            0.118177798577     0.030068802590     0.016876525155    12.000000000000
         C            0.953307798577    -1.244145197410    -0.075167474845    12.000000000000
         C            0.898604798577     1.202703802590     0.565408525155    12.000000000000
         C            2.259675798577    -1.014247197410    -0.817479474845    12.000000000000
         C            2.176302298577     1.395739602590    -0.240606074845    12.000000000000
         C            3.025857798577     0.148764802590    -0.209764474845    12.000000000000
         C           -3.124197201423     1.431657802590    -0.488328474845    12.000000000000
         C           -3.536301201423     2.085224802590    -1.783561474845    12.000000000000
         H           -0.283076201423     0.298860802590    -0.969680474845     1.007825032230
         H            0.370284798577    -2.029304197410    -0.571474474845     1.007825032230
         H            1.157135798577     0.997936802590     1.612713525155     1.007825032230
         H            2.060949798577    -0.788600197410    -1.872198474845     1.007825032230
         H            1.917002798577     1.636346802590    -1.273025474845     1.007825032230
         H            3.300753098577    -0.102127597410     0.825095125155     1.007825032230
         H            0.521790798577    -1.887972197410     1.712067525155     1.007825032230
         H            0.665555798577     3.109370802590     0.683741525155     1.007825032230
         H            2.973558798577    -2.547314197410     0.095211525155     1.007825032230
         H            3.721444798577     2.549245802590    -0.058311474845     1.007825032230
         H            4.639742798577    -0.423774197410    -1.096529474845     1.007825032230
         H           -3.808379201423    -1.522278197410     1.735285525155     1.007825032230
         H           -3.930530201423     1.445600802590     0.249943525155     1.007825032230
         H           -2.229746201423     1.892939802590    -0.058538474845     1.007825032230
         H           -3.800505201423     3.130941802590    -1.602113474845     1.007825032230
         H           -2.717180201423     2.053382802590    -2.504317474845     1.007825032230
         H           -4.400928201423     1.574382802590    -2.212166474845     1.007825032230

  Basis Set: AUG-CC-PVTZ
    Blend: AUG-CC-PVTZ
  Basis Set: (AUG-CC-PVTZ AUX)
    Blend: AUG-CC-PVTZ-JKFIT
	 Reference Energy          =   -1327.8611272215330246 [Eh]
	 Singles Energy            =      -0.0000000000000000 [Eh]
	 Same-Spin Energy          =      -1.0145876914895577 [Eh]
	 Opposite-Spin Energy      =      -3.0761993002675068 [Eh]
	 Correlation Energy        =      -4.0907869917570645 [Eh]
	 Total Energy              =   -1331.9519142132901379 [Eh]

	 ================> DF-SCS-MP2 Energies <==================
	-----------------------------------------------------------
	 SCS Same-Spin Scale       =       0.3333333333333333 [-]
	 SCS Opposite-Spin Scale   =       1.2000000000000000 [-]
	 SCS Same-Spin Energy      =      -0.3381958971631859 [Eh]
	 SCS Opposite-Spin Energy  =      -3.6914391603210079 [Eh]
	 SCS Correlation Energy    =      -4.0296350574841941 [Eh]
	 SCS Total Energy          =   -1331.8907622790172809 [Eh]
	-----------------------------------------------------------

  Dipole Moment: [D]
     X:    -1.1228      Y:     1.8533      Z:     0.7045     Total:     2.2785

*** Psi4 exiting successfully. Buy a developer a beer!
