                               Psi4 1.3.2 release

  ==> Input File <==

--------------------------------------------------------------------------
#psi4
#
memory 32 gb

molecule  {
0 1
  P       -2.2900960    -0.9400430     0.3446780
  O       -0.9821530    -0.2015620     0.9382890
  O        1.3422500    -1.6754830     1.2308510
  O        0.0787050     2.3596040     0.4621680
  O        3.0685150    -2.1870720    -0.8085900
  O        2.8473350     2.5031130     0.3715350
  O        4.1956880     0.4353970    -0.9728740
  O       -2.8268630     0.0333510    -0.8075310
  O       -3.2591210    -0.7232820     1.6216710
  O       -2.1189930    -2.3436440    -0.0996680
  C        0.1181620     0.0300090     0.0163190
  C        0.9321327    -1.2570870    -0.0855196
  C        0.8770982     1.2177616     0.5624748
  C        2.2596600    -1.0143070    -0.8180370
  C        2.1770750     1.3964720    -0.2280410
  C        3.0258420     0.1487050    -0.2103220
  C       -3.1242130     1.4315980    -0.4888860
  C       -3.5363170     2.0851650    -1.7841190
  H       -0.2830920     0.2988010    -0.9702380
  H        0.3702690    -2.0293640    -0.5720320
  H        1.1571200     0.9978770     1.6121560
  H        2.0609340    -0.7886600    -1.8727560
  H        1.9169870     1.6362870    -1.2735830
  H        3.2958550    -0.0945320     0.8276460
  H        0.5217750    -1.8880320     1.7115100
  H        0.6655400     3.1093110     0.6831840
  H        2.9735430    -2.5473740     0.0946540
  H        3.7214290     2.5491860    -0.0588690
  H        4.6397270    -0.4238340    -1.0970870
  H       -3.8083950    -1.5223380     1.7347280
  H       -3.9305460     1.4455410     0.2493860
  H       -2.2297620     1.8928800    -0.0590960
  H       -3.8005210     3.1308820    -1.6026710
  H       -2.7171960     2.0533230    -2.5048750
  H       -4.4009440     1.5743230    -2.2127240
units angstrom
no_reorient  #important for SAPT in psi4, default
symmetry c1  #important for SAPT in psi4, default
}

set PROPERTIES_ORIGIN ["COM"]
properties('MP2/aug-cc-pvtz', properties = ['dipole'])
--------------------------------------------------------------------------

    Molecular point group: c1
  Charge       = 0
  Multiplicity = 1
  Basis Set: AUG-CC-PVTZ
    Blend: AUG-CC-PVTZ
  Basis Set: (AUG-CC-PVTZ AUX)
    Blend: AUG-CC-PVTZ-JKFIT

    Orbital Energies [Eh]
    ---------------------

    Doubly Occupied:

       1A    -80.116802     2A    -20.614658     3A    -20.606144
       4A    -20.599025     5A    -20.582169     6A    -20.576313
       7A    -20.576298     8A    -20.573936     9A    -20.573928
      10A    -20.523574    11A    -11.320322    12A    -11.303211
      13A    -11.299776    14A    -11.299511    15A    -11.299480
      16A    -11.296173    17A    -11.291223    18A    -11.230158
      19A     -7.632267    20A     -5.530774    21A     -5.530395
      22A     -5.529201    23A     -1.460195    24A     -1.410711
      25A     -1.395265    26A     -1.394059    27A     -1.386986
      28A     -1.374270    29A     -1.364944    30A     -1.353842
      31A     -1.304000    32A     -1.115567    33A     -1.040741
      34A     -1.011726    35A     -1.000735    36A     -0.880069
      37A     -0.865115    38A     -0.860045    39A     -0.822074
      40A     -0.808358    41A     -0.752632    42A     -0.744779
      43A     -0.733125    44A     -0.728561    45A     -0.707401
      46A     -0.689410    47A     -0.676305    48A     -0.673475
      49A     -0.662415    50A     -0.660432    51A     -0.644531
      52A     -0.635681    53A     -0.626881    54A     -0.615467
      55A     -0.604442    56A     -0.599148    57A     -0.583263
      58A     -0.575624    59A     -0.570883    60A     -0.560240
      61A     -0.557356    62A     -0.548881    63A     -0.541490
      64A     -0.537195    65A     -0.529327    66A     -0.520113
      67A     -0.512705    68A     -0.502940    69A     -0.497079
      70A     -0.482355    71A     -0.480161    72A     -0.476570
      73A     -0.460138    74A     -0.455448    75A     -0.449040
      76A     -0.437699

  @DF-RHF Final Energy: -1327.86026313999332

   => Energetics <=

    Nuclear Repulsion Energy =           1772.1507126135611543
    One-Electron Energy =               -5356.4474889704397356
    Two-Electron Energy =                2256.4365132168850323
    Total Energy =                      -1327.8602631399935490
  Basis Set: (AUG-CC-PVTZ AUX)
    Blend: AUG-CC-PVTZ-RI
    Molecular point group: c1

    Geometry (in Angstrom), charge = 0, multiplicity = 1:

       Center              X                  Y                   Z               Mass
    ------------   -----------------  -----------------  -----------------  -----------------
         P           -2.288319256101    -0.940136112594     0.345185000015    30.973761998420
         O           -0.980376256101    -0.201655112594     0.938796000015    15.994914619570
         O            1.344026743899    -1.675576112594     1.231358000015    15.994914619570
         O            0.080481743899     2.359510887406     0.462675000015    15.994914619570
         O            3.070291743899    -2.187165112594    -0.808082999985    15.994914619570
         O            2.849111743899     2.503019887406     0.372042000015    15.994914619570
         O            4.197464743899     0.435303887406    -0.972366999985    15.994914619570
         O           -2.825086256101     0.033257887406    -0.807023999985    15.994914619570
         O           -3.257344256101    -0.723375112594     1.622178000015    15.994914619570
         O           -2.117216256101    -2.343737112594    -0.099160999985    15.994914619570
         C            0.119938743899     0.029915887406     0.016826000015    12.000000000000
         C            0.933909443899    -1.257180112594    -0.085012599985    12.000000000000
         C            0.878874943899     1.217668487406     0.562981800015    12.000000000000
         C            2.261436743899    -1.014400112594    -0.817529999985    12.000000000000
         C            2.178851743899     1.396378887406    -0.227533999985    12.000000000000
         C            3.027618743899     0.148611887406    -0.209814999985    12.000000000000
         C           -3.122436256101     1.431504887406    -0.488378999985    12.000000000000
         C           -3.534540256101     2.085071887406    -1.783611999985    12.000000000000
         H           -0.281315256101     0.298707887406    -0.969730999985     1.007825032230
         H            0.372045743899    -2.029457112594    -0.571524999985     1.007825032230
         H            1.158896743899     0.997783887406     1.612663000015     1.007825032230
         H            2.062710743899    -0.788753112594    -1.872248999985     1.007825032230
         H            1.918763743899     1.636193887406    -1.273075999985     1.007825032230
         H            3.297631743899    -0.094625112594     0.828153000015     1.007825032230
         H            0.523551743899    -1.888125112594     1.712017000015     1.007825032230
         H            0.667316743899     3.109217887406     0.683691000015     1.007825032230
         H            2.975319743899    -2.547467112594     0.095161000015     1.007825032230
         H            3.723205743899     2.549092887406    -0.058361999985     1.007825032230
         H            4.641503743899    -0.423927112594    -1.096579999985     1.007825032230
         H           -3.806618256101    -1.522431112594     1.735235000015     1.007825032230
         H           -3.928769256101     1.445447887406     0.249893000015     1.007825032230
         H           -2.227985256101     1.892786887406    -0.058588999985     1.007825032230
         H           -3.798744256101     3.130788887406    -1.602163999985     1.007825032230
         H           -2.715419256101     2.053229887406    -2.504367999985     1.007825032230
         H           -4.399167256101     1.574229887406    -2.212216999985     1.007825032230

  Basis Set: AUG-CC-PVTZ
    Blend: AUG-CC-PVTZ
  Basis Set: (AUG-CC-PVTZ AUX)
    Blend: AUG-CC-PVTZ-JKFIT
	 Reference Energy          =   -1327.8602631399933216 [Eh]
	 Singles Energy            =      -0.0000000000000000 [Eh]
	 Same-Spin Energy          =      -1.0144275763253106 [Eh]
	 Opposite-Spin Energy      =      -3.0758207276420966 [Eh]
	 Correlation Energy        =      -4.0902483039674067 [Eh]
	 Total Energy              =   -1331.9505114439607496 [Eh]

	 ================> DF-SCS-MP2 Energies <==================
	-----------------------------------------------------------
	 SCS Same-Spin Scale       =       0.3333333333333333 [-]
	 SCS Opposite-Spin Scale   =       1.2000000000000000 [-]
	 SCS Same-Spin Energy      =      -0.3381425254417701 [Eh]
	 SCS Opposite-Spin Energy  =      -3.6909848731705157 [Eh]
	 SCS Correlation Energy    =      -4.0291273986122862 [Eh]
	 SCS Total Energy          =   -1331.8893905386055394 [Eh]
	-----------------------------------------------------------

  Dipole Moment: [D]
     X:    -1.1768      Y:     1.9292      Z:     0.6981     Total:     2.3652

*** Psi4 exiting successfully. Buy a developer a beer!
