                               Psi4 1.3.2 release

  ==> Input File <==

--------------------------------------------------------------------------
#psi4
#
memory 32 gb

molecule  {
0 1
  P       -2.2900960    -0.9400430     0.3446780
  O       -0.9309037    -0.2167209     0.9925015
  O        1.3422500    -1.6754830     1.2308510
  O        0.0787050     2.3596040     0.4621680
  O        3.0685150    -2.1870720    -0.8085900
  O        2.8473350     2.5031130     0.3715350
  O        4.1956880     0.4353970    -0.9728740
  O       -2.8268630     0.0333510    -0.8075310
  O       -3.2591210    -0.7232820     1.6216710
  O       -2.1189930    -2.3436440    -0.0996680
  C        0.1181620     0.0300090     0.0163190
  C        0.9532920    -1.2442050    -0.0757250
  C        0.8985890     1.2026440     0.5648510
  C        2.2596600    -1.0143070    -0.8180370
  C        2.1770750     1.3964720    -0.2280410
  C        3.0258420     0.1487050    -0.2103220
  C       -3.1242130     1.4315980    -0.4888860
  C       -3.5363170     2.0851650    -1.7841190
  H       -0.2290327     0.3031868    -0.9893541
  H        0.3702690    -2.0293640    -0.5720320
  H        1.1571200     0.9978770     1.6121560
  H        2.0609340    -0.7886600    -1.8727560
  H        1.9169870     1.6362870    -1.2735830
  H        3.2958550    -0.0945320     0.8276460
  H        0.5217750    -1.8880320     1.7115100
  H        0.6655400     3.1093110     0.6831840
  H        2.9735430    -2.5473740     0.0946540
  H        3.7214290     2.5491860    -0.0588690
  H        4.6397270    -0.4238340    -1.0970870
  H       -3.8083950    -1.5223380     1.7347280
  H       -3.9305460     1.4455410     0.2493860
  H       -2.2297620     1.8928800    -0.0590960
  H       -3.8005210     3.1308820    -1.6026710
  H       -2.7171960     2.0533230    -2.5048750
  H       -4.4009440     1.5743230    -2.2127240
units angstrom
no_reorient  #important for SAPT in psi4, default
symmetry c1  #important for SAPT in psi4, default
}

set PROPERTIES_ORIGIN ["COM"]
properties('MP2/aug-cc-pvtz', properties = ['dipole'])
--------------------------------------------------------------------------

    Molecular point group: c1
  Charge       = 0
  Multiplicity = 1
  Basis Set: AUG-CC-PVTZ
    Blend: AUG-CC-PVTZ
  Basis Set: (AUG-CC-PVTZ AUX)
    Blend: AUG-CC-PVTZ-JKFIT

    Orbital Energies [Eh]
    ---------------------

    Doubly Occupied:

       1A    -80.123555     2A    -20.617490     3A    -20.609081
       4A    -20.605694     5A    -20.579666     6A    -20.575210
       7A    -20.572771     8A    -20.572687     9A    -20.572156
      10A    -20.526925    11A    -11.316966    12A    -11.302289
      13A    -11.300353    14A    -11.297257    15A    -11.295555
      16A    -11.294502    17A    -11.289712    18A    -11.231891
      19A     -7.638186    20A     -5.536716    21A     -5.536127
      22A     -5.535121    23A     -1.455850    24A     -1.409537
      25A     -1.392534    26A     -1.391384    27A     -1.389884
      28A     -1.368786    29A     -1.362074    30A     -1.351776
      31A     -1.306726    32A     -1.116159    33A     -1.043024
      34A     -1.007739    35A     -1.001177    36A     -0.877351
      37A     -0.865325    38A     -0.856836    39A     -0.824925
      40A     -0.809073    41A     -0.749792    42A     -0.742677
      43A     -0.731551    44A     -0.727183    45A     -0.704242
      46A     -0.686005    47A     -0.677124    48A     -0.674500
      49A     -0.661499    50A     -0.660148    51A     -0.640404
      52A     -0.633158    53A     -0.626377    54A     -0.615709
      55A     -0.602110    56A     -0.596848    57A     -0.582126
      58A     -0.576936    59A     -0.568803    60A     -0.558811
      61A     -0.555243    62A     -0.548933    63A     -0.543035
      64A     -0.535454    65A     -0.530864    66A     -0.519823
      67A     -0.513942    68A     -0.503293    69A     -0.497915
      70A     -0.483290    71A     -0.481770    72A     -0.478490
      73A     -0.460075    74A     -0.454299    75A     -0.448150
      76A     -0.434482

  @DF-RHF Final Energy: -1327.85349003027682

   => Energetics <=

    Nuclear Repulsion Energy =           1770.7333339701617660
    One-Electron Energy =               -5353.6433746148004502
    Two-Electron Energy =                2255.0565506143620951
    Total Energy =                      -1327.8534900302765891
  Basis Set: (AUG-CC-PVTZ AUX)
    Blend: AUG-CC-PVTZ-RI
    Molecular point group: c1

    Geometry (in Angstrom), charge = 0, multiplicity = 1:

       Center              X                  Y                   Z               Mass
    ------------   -----------------  -----------------  -----------------  -----------------
         P           -2.293130777277    -0.939216611604     0.341734660821    30.973761998420
         O           -0.933938477277    -0.215894511604     0.989558160821    15.994914619570
         O            1.339215222723    -1.674656611604     1.227907660821    15.994914619570
         O            0.075670222723     2.360430388396     0.459224660821    15.994914619570
         O            3.065480222723    -2.186245611604    -0.811533339179    15.994914619570
         O            2.844300222723     2.503939388396     0.368591660821    15.994914619570
         O            4.192653222723     0.436223388396    -0.975817339179    15.994914619570
         O           -2.829897777277     0.034177388396    -0.810474339179    15.994914619570
         O           -3.262155777277    -0.722455611604     1.618727660821    15.994914619570
         O           -2.122027777277    -2.342817611604    -0.102611339179    15.994914619570
         C            0.115127222723     0.030835388396     0.013375660821    12.000000000000
         C            0.950257222723    -1.243378611604    -0.078668339179    12.000000000000
         C            0.895554222723     1.203470388396     0.561907660821    12.000000000000
         C            2.256625222723    -1.013480611604    -0.820980339179    12.000000000000
         C            2.174040222723     1.397298388396    -0.230984339179    12.000000000000
         C            3.022807222723     0.149531388396    -0.213265339179    12.000000000000
         C           -3.127247777277     1.432424388396    -0.491829339179    12.000000000000
         C           -3.539351777277     2.085991388396    -1.787062339179    12.000000000000
         H           -0.232067477277     0.304013188396    -0.992297439179     1.007825032230
         H            0.367234222723    -2.028537611604    -0.574975339179     1.007825032230
         H            1.154085222723     0.998703388396     1.609212660821     1.007825032230
         H            2.057899222723    -0.787833611604    -1.875699339179     1.007825032230
         H            1.913952222723     1.637113388396    -1.276526339179     1.007825032230
         H            3.292820222723    -0.093705611604     0.824702660821     1.007825032230
         H            0.518740222723    -1.887205611604     1.708566660821     1.007825032230
         H            0.662505222723     3.110137388396     0.680240660821     1.007825032230
         H            2.970508222723    -2.546547611604     0.091710660821     1.007825032230
         H            3.718394222723     2.550012388396    -0.061812339179     1.007825032230
         H            4.636692222723    -0.423007611604    -1.100030339179     1.007825032230
         H           -3.811429777277    -1.521511611604     1.731784660821     1.007825032230
         H           -3.933580777277     1.446367388396     0.246442660821     1.007825032230
         H           -2.232796777277     1.893706388396    -0.062039339179     1.007825032230
         H           -3.803555777277     3.131708388396    -1.605614339179     1.007825032230
         H           -2.720230777277     2.054149388396    -2.507818339179     1.007825032230
         H           -4.403978777277     1.575149388396    -2.215667339179     1.007825032230

  Basis Set: AUG-CC-PVTZ
    Blend: AUG-CC-PVTZ
  Basis Set: (AUG-CC-PVTZ AUX)
    Blend: AUG-CC-PVTZ-JKFIT
	 Reference Energy          =   -1327.8534900302768165 [Eh]
	 Singles Energy            =      -0.0000000000000000 [Eh]
	 Same-Spin Energy          =      -1.0157014321891444 [Eh]
	 Opposite-Spin Energy      =      -3.0787566642791759 [Eh]
	 Correlation Energy        =      -4.0944580964683208 [Eh]
	 Total Energy              =   -1331.9479481267451320 [Eh]

	 ================> DF-SCS-MP2 Energies <==================
	-----------------------------------------------------------
	 SCS Same-Spin Scale       =       0.3333333333333333 [-]
	 SCS Opposite-Spin Scale   =       1.2000000000000000 [-]
	 SCS Same-Spin Energy      =      -0.3385671440630481 [Eh]
	 SCS Opposite-Spin Energy  =      -3.6945079971350108 [Eh]
	 SCS Correlation Energy    =      -4.0330751411980588 [Eh]
	 SCS Total Energy          =   -1331.8865651714747855 [Eh]
	-----------------------------------------------------------

  Dipole Moment: [D]
     X:    -1.5016      Y:     1.8631      Z:     0.5970     Total:     2.4662

*** Psi4 exiting successfully. Buy a developer a beer!
