                               Psi4 1.3.2 release

  ==> Input File <==

--------------------------------------------------------------------------
#psi4
#
memory 32 gb

molecule  {
0 1
  P       -2.2900960    -0.9400430     0.3446780
  O       -0.9821530    -0.2015620     0.9382890
  O        1.3422500    -1.6754830     1.2308510
  O        0.0787050     2.3596040     0.4621680
  O        3.0685150    -2.1870720    -0.8085900
  O        2.8473350     2.5031130     0.3715350
  O        4.1956880     0.4353970    -0.9728740
  O       -2.8268630     0.0333510    -0.8075310
  O       -3.2591210    -0.7232820     1.6216710
  O       -2.1189930    -2.3436440    -0.0996680
  C        0.1181620     0.0300090     0.0163190
  C        0.9654400    -1.2036903    -0.0436947
  C        0.8985890     1.2026440     0.5648510
  C        2.2596600    -1.0143070    -0.8180370
  C        2.1770750     1.3964720    -0.2280410
  C        2.9867617     0.1547744    -0.1749810
  C       -3.1242130     1.4315980    -0.4888860
  C       -3.5363170     2.0851650    -1.7841190
  H       -0.2830920     0.2988010    -0.9702380
  H        0.3702690    -2.0293640    -0.5720320
  H        1.1571200     0.9978770     1.6121560
  H        2.0609340    -0.7886600    -1.8727560
  H        1.9169870     1.6362870    -1.2735830
  H        3.2958550    -0.0945320     0.8276460
  H        0.5217750    -1.8880320     1.7115100
  H        0.6655400     3.1093110     0.6831840
  H        2.9735430    -2.5473740     0.0946540
  H        3.7214290     2.5491860    -0.0588690
  H        4.6397270    -0.4238340    -1.0970870
  H       -3.8083950    -1.5223380     1.7347280
  H       -3.9305460     1.4455410     0.2493860
  H       -2.2297620     1.8928800    -0.0590960
  H       -3.8005210     3.1308820    -1.6026710
  H       -2.7171960     2.0533230    -2.5048750
  H       -4.4009440     1.5743230    -2.2127240
units angstrom
no_reorient  #important for SAPT in psi4, default
symmetry c1  #important for SAPT in psi4, default
}

set PROPERTIES_ORIGIN ["COM"]
properties('MP2/aug-cc-pvtz', properties = ['dipole'])
--------------------------------------------------------------------------

    Molecular point group: c1
  Charge       = 0
  Multiplicity = 1
  Basis Set: AUG-CC-PVTZ
    Blend: AUG-CC-PVTZ
  Basis Set: (AUG-CC-PVTZ AUX)
    Blend: AUG-CC-PVTZ-JKFIT

    Orbital Energies [Eh]
    ---------------------

    Doubly Occupied:

       1A    -80.117288     2A    -20.615088     3A    -20.608242
       4A    -20.599412     5A    -20.586037     6A    -20.577845
       7A    -20.576866     8A    -20.573866     9A    -20.567100
      10A    -20.523161    11A    -11.320981    12A    -11.304379
      13A    -11.301312    14A    -11.299832    15A    -11.299129
      16A    -11.297614    17A    -11.290776    18A    -11.230223
      19A     -7.632735    20A     -5.531241    21A     -5.530873
      22A     -5.529656    23A     -1.461241    24A     -1.413945
      25A     -1.395783    26A     -1.392075    27A     -1.387053
      28A     -1.371011    29A     -1.365040    30A     -1.344211
      31A     -1.303608    32A     -1.126895    33A     -1.040968
      34A     -1.017938    35A     -1.004354    36A     -0.879255
      37A     -0.864869    38A     -0.859660    39A     -0.823541
      40A     -0.815132    41A     -0.755781    42A     -0.744422
      43A     -0.730176    44A     -0.727723    45A     -0.709868
      46A     -0.686534    47A     -0.681488    48A     -0.672044
      49A     -0.662240    50A     -0.657952    51A     -0.643236
      52A     -0.633235    53A     -0.627810    54A     -0.616936
      55A     -0.603811    56A     -0.599265    57A     -0.580278
      58A     -0.576142    59A     -0.571629    60A     -0.560138
      61A     -0.554456    62A     -0.548682    63A     -0.541588
      64A     -0.535136    65A     -0.530065    66A     -0.522322
      67A     -0.513378    68A     -0.503279    69A     -0.495826
      70A     -0.488661    71A     -0.479883    72A     -0.476856
      73A     -0.464566    74A     -0.461714    75A     -0.450452
      76A     -0.431177

  @DF-RHF Final Energy: -1327.85365511404802

   => Energetics <=

    Nuclear Repulsion Energy =           1773.7903812582740102
    One-Electron Energy =               -5359.6501047966648912
    Two-Electron Energy =                2258.0060684243430842
    Total Energy =                      -1327.8536551140477968
  Basis Set: (AUG-CC-PVTZ AUX)
    Blend: AUG-CC-PVTZ-RI
    Molecular point group: c1

    Geometry (in Angstrom), charge = 0, multiplicity = 1:

       Center              X                  Y                   Z               Mass
    ------------   -----------------  -----------------  -----------------  -----------------
         P           -2.288974025707    -0.941983575335     0.341871447898    30.973761998420
         O           -0.981031025707    -0.203502575335     0.935482447898    15.994914619570
         O            1.343371974293    -1.677423575335     1.228044447898    15.994914619570
         O            0.079826974293     2.357663424665     0.459361447898    15.994914619570
         O            3.069636974293    -2.189012575335    -0.811396552102    15.994914619570
         O            2.848456974293     2.501172424665     0.368728447898    15.994914619570
         O            4.196809974293     0.433456424665    -0.975680552102    15.994914619570
         O           -2.825741025707     0.031410424665    -0.810337552102    15.994914619570
         O           -3.257999025707    -0.725222575335     1.618864447898    15.994914619570
         O           -2.117871025707    -2.345584575335    -0.102474552102    15.994914619570
         C            0.119283974293     0.028068424665     0.013512447898    12.000000000000
         C            0.966561974293    -1.205630875335    -0.046501252102    12.000000000000
         C            0.899710974293     1.200703424665     0.562044447898    12.000000000000
         C            2.260781974293    -1.016247575335    -0.820843552102    12.000000000000
         C            2.178196974293     1.394531424665    -0.230847552102    12.000000000000
         C            2.987883674293     0.152833824665    -0.177787552102    12.000000000000
         C           -3.123091025707     1.429657424665    -0.491692552102    12.000000000000
         C           -3.535195025707     2.083224424665    -1.786925552102    12.000000000000
         H           -0.281970025707     0.296860424665    -0.973044552102     1.007825032230
         H            0.371390974293    -2.031304575335    -0.574838552102     1.007825032230
         H            1.158241974293     0.995936424665     1.609349447898     1.007825032230
         H            2.062055974293    -0.790600575335    -1.875562552102     1.007825032230
         H            1.918108974293     1.634346424665    -1.276389552102     1.007825032230
         H            3.296976974293    -0.096472575335     0.824839447898     1.007825032230
         H            0.522896974293    -1.889972575335     1.708703447898     1.007825032230
         H            0.666661974293     3.107370424665     0.680377447898     1.007825032230
         H            2.974664974293    -2.549314575335     0.091847447898     1.007825032230
         H            3.722550974293     2.547245424665    -0.061675552102     1.007825032230
         H            4.640848974293    -0.425774575335    -1.099893552102     1.007825032230
         H           -3.807273025707    -1.524278575335     1.731921447898     1.007825032230
         H           -3.929424025707     1.443600424665     0.246579447898     1.007825032230
         H           -2.228640025707     1.890939424665    -0.061902552102     1.007825032230
         H           -3.799399025707     3.128941424665    -1.605477552102     1.007825032230
         H           -2.716074025707     2.051382424665    -2.507681552102     1.007825032230
         H           -4.399822025707     1.572382424665    -2.215530552102     1.007825032230

  Basis Set: AUG-CC-PVTZ
    Blend: AUG-CC-PVTZ
  Basis Set: (AUG-CC-PVTZ AUX)
    Blend: AUG-CC-PVTZ-JKFIT
	 Reference Energy          =   -1327.8536551140480242 [Eh]
	 Singles Energy            =      -0.0000000000000000 [Eh]
	 Same-Spin Energy          =      -1.0154380298815389 [Eh]
	 Opposite-Spin Energy      =      -3.0774695559368368 [Eh]
	 Correlation Energy        =      -4.0929075858183754 [Eh]
	 Total Energy              =   -1331.9465626998664902 [Eh]

	 ================> DF-SCS-MP2 Energies <==================
	-----------------------------------------------------------
	 SCS Same-Spin Scale       =       0.3333333333333333 [-]
	 SCS Opposite-Spin Scale   =       1.2000000000000000 [-]
	 SCS Same-Spin Energy      =      -0.3384793432938463 [Eh]
	 SCS Opposite-Spin Energy  =      -3.6929634671242040 [Eh]
	 SCS Correlation Energy    =      -4.0314428104180502 [Eh]
	 SCS Total Energy          =   -1331.8850979244659811 [Eh]
	-----------------------------------------------------------

  Dipole Moment: [D]
     X:    -1.2484      Y:     1.8603      Z:     0.8679     Total:     2.4026

*** Psi4 exiting successfully. Buy a developer a beer!
