                               Psi4 1.3.2 release

  ==> Input File <==

--------------------------------------------------------------------------
#psi4
#
memory 32 gb

molecule  {
0 1
  P       -2.2900960    -0.9400430     0.3446780
  O       -1.0108622    -0.1909133     0.9856216
  O        1.3422500    -1.6754830     1.2308510
  O        0.0787050     2.3596040     0.4621680
  O        3.0685150    -2.1870720    -0.8085900
  O        2.8473350     2.5031130     0.3715350
  O        4.1956880     0.4353970    -0.9728740
  O       -2.8268630     0.0333510    -0.8075310
  O       -3.2169604    -0.6963461     1.6478434
  O       -2.1189930    -2.3436440    -0.0996680
  C        0.1181620     0.0300090     0.0163190
  C        0.9532920    -1.2442050    -0.0757250
  C        0.8985890     1.2026440     0.5648510
  C        2.2596600    -1.0143070    -0.8180370
  C        2.1770750     1.3964720    -0.2280410
  C        3.0258420     0.1487050    -0.2103220
  C       -3.1242130     1.4315980    -0.4888860
  C       -3.5363170     2.0851650    -1.7841190
  H       -0.2830920     0.2988010    -0.9702380
  H        0.3702690    -2.0293640    -0.5720320
  H        1.1571200     0.9978770     1.6121560
  H        2.0609340    -0.7886600    -1.8727560
  H        1.9169870     1.6362870    -1.2735830
  H        3.2958550    -0.0945320     0.8276460
  H        0.5217750    -1.8880320     1.7115100
  H        0.6655400     3.1093110     0.6831840
  H        2.9735430    -2.5473740     0.0946540
  H        3.7214290     2.5491860    -0.0588690
  H        4.6397270    -0.4238340    -1.0970870
  H       -3.8083950    -1.5223380     1.7347280
  H       -3.9305460     1.4455410     0.2493860
  H       -2.2297620     1.8928800    -0.0590960
  H       -3.8005210     3.1308820    -1.6026710
  H       -2.7171960     2.0533230    -2.5048750
  H       -4.4009440     1.5743230    -2.2127240
units angstrom
no_reorient  #important for SAPT in psi4, default
symmetry c1  #important for SAPT in psi4, default
}

set PROPERTIES_ORIGIN ["COM"]
properties('MP2/aug-cc-pvtz', properties = ['dipole'])
--------------------------------------------------------------------------

    Molecular point group: c1
  Charge       = 0
  Multiplicity = 1
  Basis Set: AUG-CC-PVTZ
    Blend: AUG-CC-PVTZ
  Basis Set: (AUG-CC-PVTZ AUX)
    Blend: AUG-CC-PVTZ-JKFIT

    Orbital Energies [Eh]
    ---------------------

    Doubly Occupied:

       1A    -80.113387     2A    -20.614359     3A    -20.604898
       4A    -20.599178     5A    -20.583564     6A    -20.577448
       7A    -20.575853     8A    -20.574873     9A    -20.573577
      10A    -20.525324    11A    -11.324256    12A    -11.305930
      13A    -11.300973    14A    -11.299773    15A    -11.298838
      16A    -11.297599    17A    -11.292345    18A    -11.229665
      19A     -7.629174    20A     -5.527843    21A     -5.527159
      22A     -5.526042    23A     -1.453753    24A     -1.409280
      25A     -1.394235    26A     -1.387744    27A     -1.381525
      28A     -1.367700    29A     -1.364575    30A     -1.353988
      31A     -1.304325    32A     -1.120503    33A     -1.039961
      34A     -1.012190    35A     -1.004364    36A     -0.875859
      37A     -0.864464    38A     -0.858770    39A     -0.815620
      40A     -0.810822    41A     -0.750882    42A     -0.742313
      43A     -0.729177    44A     -0.722521    45A     -0.700782
      46A     -0.686626    47A     -0.678800    48A     -0.673204
      49A     -0.662443    50A     -0.659163    51A     -0.640823
      52A     -0.633167    53A     -0.624794    54A     -0.615589
      55A     -0.600066    56A     -0.598669    57A     -0.582345
      58A     -0.572131    59A     -0.569111    60A     -0.559704
      61A     -0.557804    62A     -0.548191    63A     -0.540572
      64A     -0.537585    65A     -0.528618    66A     -0.521868
      67A     -0.512926    68A     -0.505052    69A     -0.496858
      70A     -0.487093    71A     -0.480281    72A     -0.477243
      73A     -0.464245    74A     -0.456591    75A     -0.451747
      76A     -0.437328

  @DF-RHF Final Energy: -1327.85142251911157

   => Energetics <=

    Nuclear Repulsion Energy =           1771.3587572024123347
    One-Electron Energy =               -5354.9642653499931839
    Two-Electron Energy =                2255.7540856284690562
    Total Energy =                      -1327.8514225191115656
  Basis Set: (AUG-CC-PVTZ AUX)
    Blend: AUG-CC-PVTZ-RI
    Molecular point group: c1

    Geometry (in Angstrom), charge = 0, multiplicity = 1:

       Center              X                  Y                   Z               Mass
    ------------   -----------------  -----------------  -----------------  -----------------
         P           -2.290842871399    -0.942129909845     0.340596542323    30.973761998420
         O           -1.011609071399    -0.193000209845     0.981540142323    15.994914619570
         O            1.341503128601    -1.677569909845     1.226769542323    15.994914619570
         O            0.077958128601     2.357517090155     0.458086542323    15.994914619570
         O            3.067768128601    -2.189158909845    -0.812671457677    15.994914619570
         O            2.846588128601     2.501026090155     0.367453542323    15.994914619570
         O            4.194941128601     0.433310090155    -0.976955457677    15.994914619570
         O           -2.827609871399     0.031264090155    -0.811612457677    15.994914619570
         O           -3.217707271399    -0.698433009845     1.643761942323    15.994914619570
         O           -2.119739871399    -2.345730909845    -0.103749457677    15.994914619570
         C            0.117415128601     0.027922090155     0.012237542323    12.000000000000
         C            0.952545128601    -1.246291909845    -0.079806457677    12.000000000000
         C            0.897842128601     1.200557090155     0.560769542323    12.000000000000
         C            2.258913128601    -1.016393909845    -0.822118457677    12.000000000000
         C            2.176328128601     1.394385090155    -0.232122457677    12.000000000000
         C            3.025095128601     0.146618090155    -0.214403457677    12.000000000000
         C           -3.124959871399     1.429511090155    -0.492967457677    12.000000000000
         C           -3.537063871399     2.083078090155    -1.788200457677    12.000000000000
         H           -0.283838871399     0.296714090155    -0.974319457677     1.007825032230
         H            0.369522128601    -2.031450909845    -0.576113457677     1.007825032230
         H            1.156373128601     0.995790090155     1.608074542323     1.007825032230
         H            2.060187128601    -0.790746909845    -1.876837457677     1.007825032230
         H            1.916240128601     1.634200090155    -1.277664457677     1.007825032230
         H            3.295108128601    -0.096618909845     0.823564542323     1.007825032230
         H            0.521028128601    -1.890118909845     1.707428542323     1.007825032230
         H            0.664793128601     3.107224090155     0.679102542323     1.007825032230
         H            2.972796128601    -2.549460909845     0.090572542323     1.007825032230
         H            3.720682128601     2.547099090155    -0.062950457677     1.007825032230
         H            4.638980128601    -0.425920909845    -1.101168457677     1.007825032230
         H           -3.809141871399    -1.524424909845     1.730646542323     1.007825032230
         H           -3.931292871399     1.443454090155     0.245304542323     1.007825032230
         H           -2.230508871399     1.890793090155    -0.063177457677     1.007825032230
         H           -3.801267871399     3.128795090155    -1.606752457677     1.007825032230
         H           -2.717942871399     2.051236090155    -2.508956457677     1.007825032230
         H           -4.401690871399     1.572236090155    -2.216805457677     1.007825032230

  Basis Set: AUG-CC-PVTZ
    Blend: AUG-CC-PVTZ
  Basis Set: (AUG-CC-PVTZ AUX)
    Blend: AUG-CC-PVTZ-JKFIT
	 Reference Energy          =   -1327.8514225191115656 [Eh]
	 Singles Energy            =      -0.0000000000000000 [Eh]
	 Same-Spin Energy          =      -1.0158481552722707 [Eh]
	 Opposite-Spin Energy      =      -3.0795219063103891 [Eh]
	 Correlation Energy        =      -4.0953700615826598 [Eh]
	 Total Energy              =   -1331.9467925806941366 [Eh]

	 ================> DF-SCS-MP2 Energies <==================
	-----------------------------------------------------------
	 SCS Same-Spin Scale       =       0.3333333333333333 [-]
	 SCS Opposite-Spin Scale   =       1.2000000000000000 [-]
	 SCS Same-Spin Energy      =      -0.3386160517574235 [Eh]
	 SCS Opposite-Spin Energy  =      -3.6954262875724666 [Eh]
	 SCS Correlation Energy    =      -4.0340423393298899 [Eh]
	 SCS Total Energy          =   -1331.8854648584415372 [Eh]
	-----------------------------------------------------------

  Dipole Moment: [D]
     X:    -1.0253      Y:     1.8106      Z:     0.5631     Total:     2.1556

*** Psi4 exiting successfully. Buy a developer a beer!
