                               Psi4 1.3.2 release

  ==> Input File <==

--------------------------------------------------------------------------
#psi4
#
memory 32 gb

molecule  {
0 1
  P       -2.2900960    -0.9400430     0.3446780
  O       -1.0132175    -0.1552269     0.9464156
  O        1.3422500    -1.6754830     1.2308510
  O        0.0787050     2.3596040     0.4621680
  O        3.0685150    -2.1870720    -0.8085900
  O        2.8473350     2.5031130     0.3715350
  O        4.1956880     0.4353970    -0.9728740
  O       -2.8268630     0.0333510    -0.8075310
  O       -3.2591210    -0.7232820     1.6216710
  O       -2.1690042    -2.3446060    -0.1128752
  C        0.1181620     0.0300090     0.0163190
  C        0.9532920    -1.2442050    -0.0757250
  C        0.8985890     1.2026440     0.5648510
  C        2.2596600    -1.0143070    -0.8180370
  C        2.1770750     1.3964720    -0.2280410
  C        3.0258420     0.1487050    -0.2103220
  C       -3.1242130     1.4315980    -0.4888860
  C       -3.5363170     2.0851650    -1.7841190
  H       -0.2830920     0.2988010    -0.9702380
  H        0.3702690    -2.0293640    -0.5720320
  H        1.1571200     0.9978770     1.6121560
  H        2.0609340    -0.7886600    -1.8727560
  H        1.9169870     1.6362870    -1.2735830
  H        3.2958550    -0.0945320     0.8276460
  H        0.5217750    -1.8880320     1.7115100
  H        0.6655400     3.1093110     0.6831840
  H        2.9735430    -2.5473740     0.0946540
  H        3.7214290     2.5491860    -0.0588690
  H        4.6397270    -0.4238340    -1.0970870
  H       -3.8083950    -1.5223380     1.7347280
  H       -3.9305460     1.4455410     0.2493860
  H       -2.2297620     1.8928800    -0.0590960
  H       -3.8005210     3.1308820    -1.6026710
  H       -2.7171960     2.0533230    -2.5048750
  H       -4.4009440     1.5743230    -2.2127240
units angstrom
no_reorient  #important for SAPT in psi4, default
symmetry c1  #important for SAPT in psi4, default
}

set PROPERTIES_ORIGIN ["COM"]
properties('MP2/aug-cc-pvtz', properties = ['dipole'])
--------------------------------------------------------------------------

    Molecular point group: c1
  Charge       = 0
  Multiplicity = 1
  Basis Set: AUG-CC-PVTZ
    Blend: AUG-CC-PVTZ
  Basis Set: (AUG-CC-PVTZ AUX)
    Blend: AUG-CC-PVTZ-JKFIT

    Orbital Energies [Eh]
    ---------------------

    Doubly Occupied:

       1A    -80.115185     2A    -20.610767     3A    -20.609711
       4A    -20.594839     5A    -20.586340     6A    -20.577810
       7A    -20.577060     8A    -20.575593     9A    -20.573913
      10A    -20.525233    11A    -11.324225    12A    -11.307906
      13A    -11.302289    14A    -11.300128    15A    -11.297967
      16A    -11.296757    17A    -11.293203    18A    -11.228159
      19A     -7.630759    20A     -5.529321    21A     -5.528847
      22A     -5.527677    23A     -1.457838    24A     -1.411412
      25A     -1.395276    26A     -1.392234    27A     -1.383631
      28A     -1.372810    29A     -1.365592    30A     -1.355216
      31A     -1.304532    32A     -1.121436    33A     -1.038281
      34A     -1.013708    35A     -1.005648    36A     -0.880037
      37A     -0.863401    38A     -0.860322    39A     -0.820817
      40A     -0.812298    41A     -0.752945    42A     -0.745609
      43A     -0.731479    44A     -0.724826    45A     -0.707377
      46A     -0.687478    47A     -0.680209    48A     -0.672919
      49A     -0.663191    50A     -0.660233    51A     -0.643536
      52A     -0.634801    53A     -0.627274    54A     -0.615477
      55A     -0.602428    56A     -0.600243    57A     -0.582293
      58A     -0.573820    59A     -0.571107    60A     -0.559818
      61A     -0.558515    62A     -0.547673    63A     -0.540181
      64A     -0.538249    65A     -0.528757    66A     -0.523292
      67A     -0.512592    68A     -0.505570    69A     -0.496859
      70A     -0.486851    71A     -0.478838    72A     -0.476156
      73A     -0.465238    74A     -0.457147    75A     -0.452670
      76A     -0.438628

  @DF-RHF Final Energy: -1327.85884380243851

   => Energetics <=

    Nuclear Repulsion Energy =           1771.2592343094934222
    One-Electron Energy =               -5354.6112338999864733
    Two-Electron Energy =                2255.4931557880545370
    Total Energy =                      -1327.8588438024385141
  Basis Set: (AUG-CC-PVTZ AUX)
    Blend: AUG-CC-PVTZ-RI
    Molecular point group: c1

    Geometry (in Angstrom), charge = 0, multiplicity = 1:

       Center              X                  Y                   Z               Mass
    ------------   -----------------  -----------------  -----------------  -----------------
         P           -2.285594147020    -0.942562375136     0.344960096844    30.973761998420
         O           -1.008715647020    -0.157746275136     0.946697696844    15.994914619570
         O            1.346751852980    -1.678002375136     1.231133096844    15.994914619570
         O            0.083206852980     2.357084624864     0.462450096844    15.994914619570
         O            3.073016852980    -2.189591375136    -0.808307903156    15.994914619570
         O            2.851836852980     2.500593624864     0.371817096844    15.994914619570
         O            4.200189852980     0.432877624864    -0.972591903156    15.994914619570
         O           -2.822361147020     0.030831624864    -0.807248903156    15.994914619570
         O           -3.254619147020    -0.725801375136     1.621953096844    15.994914619570
         O           -2.164502347020    -2.347125375136    -0.112593103156    15.994914619570
         C            0.122663852980     0.027489624864     0.016601096844    12.000000000000
         C            0.957793852980    -1.246724375136    -0.075442903156    12.000000000000
         C            0.903090852980     1.200124624864     0.565133096844    12.000000000000
         C            2.264161852980    -1.016826375136    -0.817754903156    12.000000000000
         C            2.181576852980     1.393952624864    -0.227758903156    12.000000000000
         C            3.030343852980     0.146185624864    -0.210039903156    12.000000000000
         C           -3.119711147020     1.429078624864    -0.488603903156    12.000000000000
         C           -3.531815147020     2.082645624864    -1.783836903156    12.000000000000
         H           -0.278590147020     0.296281624864    -0.969955903156     1.007825032230
         H            0.374770852980    -2.031883375136    -0.571749903156     1.007825032230
         H            1.161621852980     0.995357624864     1.612438096844     1.007825032230
         H            2.065435852980    -0.791179375136    -1.872473903156     1.007825032230
         H            1.921488852980     1.633767624864    -1.273300903156     1.007825032230
         H            3.300356852980    -0.097051375136     0.827928096844     1.007825032230
         H            0.526276852980    -1.890551375136     1.711792096844     1.007825032230
         H            0.670041852980     3.106791624864     0.683466096844     1.007825032230
         H            2.978044852980    -2.549893375136     0.094936096844     1.007825032230
         H            3.725930852980     2.546666624864    -0.058586903156     1.007825032230
         H            4.644228852980    -0.426353375136    -1.096804903156     1.007825032230
         H           -3.803893147020    -1.524857375136     1.735010096844     1.007825032230
         H           -3.926044147020     1.443021624864     0.249668096844     1.007825032230
         H           -2.225260147020     1.890360624864    -0.058813903156     1.007825032230
         H           -3.796019147020     3.128362624864    -1.602388903156     1.007825032230
         H           -2.712694147020     2.050803624864    -2.504592903156     1.007825032230
         H           -4.396442147020     1.571803624864    -2.212441903156     1.007825032230

  Basis Set: AUG-CC-PVTZ
    Blend: AUG-CC-PVTZ
  Basis Set: (AUG-CC-PVTZ AUX)
    Blend: AUG-CC-PVTZ-JKFIT
	 Reference Energy          =   -1327.8588438024385141 [Eh]
	 Singles Energy            =      -0.0000000000000000 [Eh]
	 Same-Spin Energy          =      -1.0148704386723111 [Eh]
	 Opposite-Spin Energy      =      -3.0769988806995481 [Eh]
	 Correlation Energy        =      -4.0918693193718596 [Eh]
	 Total Energy              =   -1331.9507131218103950 [Eh]

	 ================> DF-SCS-MP2 Energies <==================
	-----------------------------------------------------------
	 SCS Same-Spin Scale       =       0.3333333333333333 [-]
	 SCS Opposite-Spin Scale   =       1.2000000000000000 [-]
	 SCS Same-Spin Energy      =      -0.3382901462241037 [Eh]
	 SCS Opposite-Spin Energy  =      -3.6923986568394573 [Eh]
	 SCS Correlation Energy    =      -4.0306888030635610 [Eh]
	 SCS Total Energy          =   -1331.8895326055021542 [Eh]
	-----------------------------------------------------------

  Dipole Moment: [D]
     X:    -0.7408      Y:     1.7573      Z:     0.7262     Total:     2.0407

*** Psi4 exiting successfully. Buy a developer a beer!
