                               Psi4 1.3.2 release

  ==> Input File <==

--------------------------------------------------------------------------
#psi4
#
memory 32 gb

molecule  {
0 1
  P       -2.2900960    -0.9400430     0.3446780
  O       -0.9821530    -0.2015620     0.9382890
  O        1.3422500    -1.6754830     1.2308510
  O        0.0787050     2.3596040     0.4621680
  O        3.0685150    -2.1870720    -0.8085900
  O        2.8473350     2.5031130     0.3715350
  O        4.1956880     0.4353970    -0.9728740
  O       -2.8268630     0.0333510    -0.8075310
  O       -3.2591210    -0.7232820     1.6216710
  O       -2.1189930    -2.3436440    -0.0996680
  C        0.1369681     0.0262662    -0.0018018
  C        0.9532920    -1.2442050    -0.0757250
  C        0.8985890     1.2026440     0.5648510
  C        2.2596600    -1.0143070    -0.8180370
  C        2.1705120     1.3758087    -0.2432328
  C        3.0258420     0.1487050    -0.2103220
  C       -3.1242130     1.4315980    -0.4888860
  C       -3.5363170     2.0851650    -1.7841190
  H       -0.2830920     0.2988010    -0.9702380
  H        0.3702690    -2.0293640    -0.5720320
  H        1.1571200     0.9978770     1.6121560
  H        2.0609340    -0.7886600    -1.8727560
  H        1.9169870     1.6362870    -1.2735830
  H        3.2958550    -0.0945320     0.8276460
  H        0.5217750    -1.8880320     1.7115100
  H        0.6655400     3.1093110     0.6831840
  H        2.9735430    -2.5473740     0.0946540
  H        3.7214290     2.5491860    -0.0588690
  H        4.6397270    -0.4238340    -1.0970870
  H       -3.8083950    -1.5223380     1.7347280
  H       -3.9305460     1.4455410     0.2493860
  H       -2.2297620     1.8928800    -0.0590960
  H       -3.8005210     3.1308820    -1.6026710
  H       -2.7171960     2.0533230    -2.5048750
  H       -4.4009440     1.5743230    -2.2127240
units angstrom
no_reorient  #important for SAPT in psi4, default
symmetry c1  #important for SAPT in psi4, default
}

set PROPERTIES_ORIGIN ["COM"]
properties('MP2/aug-cc-pvtz', properties = ['dipole'])
--------------------------------------------------------------------------

    Molecular point group: c1
  Charge       = 0
  Multiplicity = 1
  Basis Set: AUG-CC-PVTZ
    Blend: AUG-CC-PVTZ
  Basis Set: (AUG-CC-PVTZ AUX)
    Blend: AUG-CC-PVTZ-JKFIT

    Orbital Energies [Eh]
    ---------------------

    Doubly Occupied:

       1A    -80.115189     2A    -20.613550     3A    -20.604109
       4A    -20.598124     5A    -20.584483     6A    -20.575310
       7A    -20.575150     8A    -20.574770     9A    -20.574411
      10A    -20.522389    11A    -11.321796    12A    -11.304760
      13A    -11.300508    14A    -11.300488    15A    -11.298971
      16A    -11.296909    17A    -11.292586    18A    -11.229700
      19A     -7.630659    20A     -5.529166    21A     -5.528779
      22A     -5.527606    23A     -1.456901    24A     -1.410211
      25A     -1.391531    26A     -1.391146    27A     -1.385960
      28A     -1.371231    29A     -1.362886    30A     -1.350833
      31A     -1.302654    32A     -1.124298    33A     -1.040128
      34A     -1.015539    35A     -1.005474    36A     -0.878437
      37A     -0.864402    38A     -0.860908    39A     -0.820973
      40A     -0.813113    41A     -0.751961    42A     -0.744741
      43A     -0.732102    44A     -0.725832    45A     -0.705848
      46A     -0.687752    47A     -0.678863    48A     -0.673647
      49A     -0.662057    50A     -0.659744    51A     -0.640898
      52A     -0.634458    53A     -0.626247    54A     -0.615669
      55A     -0.600825    56A     -0.599702    57A     -0.582226
      58A     -0.574338    59A     -0.570345    60A     -0.557943
      61A     -0.556246    62A     -0.548898    63A     -0.540826
      64A     -0.537096    65A     -0.529836    66A     -0.521057
      67A     -0.512881    68A     -0.505243    69A     -0.496641
      70A     -0.486576    71A     -0.479444    72A     -0.476074
      73A     -0.463865    74A     -0.460496    75A     -0.453197
      76A     -0.436999

  @DF-RHF Final Energy: -1327.85873818288087

   => Energetics <=

    Nuclear Repulsion Energy =           1772.4304673346434811
    One-Electron Energy =               -5357.0251790644042558
    Two-Electron Energy =                2256.7359735468803592
    Total Energy =                      -1327.8587381828806429
  Basis Set: (AUG-CC-PVTZ AUX)
    Blend: AUG-CC-PVTZ-RI
    Molecular point group: c1

    Geometry (in Angstrom), charge = 0, multiplicity = 1:

       Center              X                  Y                   Z               Mass
    ------------   -----------------  -----------------  -----------------  -----------------
         P           -2.290605988273    -0.939026276904     0.346065721749    30.973761998420
         O           -0.982662988273    -0.200545276904     0.939676721749    15.994914619570
         O            1.341740011727    -1.674466276904     1.232238721749    15.994914619570
         O            0.078195011727     2.360620723096     0.463555721749    15.994914619570
         O            3.068005011727    -2.186055276904    -0.807202278251    15.994914619570
         O            2.846825011727     2.504129723096     0.372922721749    15.994914619570
         O            4.195178011727     0.436413723096    -0.971486278251    15.994914619570
         O           -2.827372988273     0.034367723096    -0.806143278251    15.994914619570
         O           -3.259630988273    -0.722265276904     1.623058721749    15.994914619570
         O           -2.119502988273    -2.342627276904    -0.098280278251    15.994914619570
         C            0.136458111727     0.027282923096    -0.000414078251    12.000000000000
         C            0.952782011727    -1.243188276904    -0.074337278251    12.000000000000
         C            0.898079011727     1.203660723096     0.566238721749    12.000000000000
         C            2.259150011727    -1.013290276904    -0.816649278251    12.000000000000
         C            2.170002011727     1.376825423096    -0.241845078251    12.000000000000
         C            3.025332011727     0.149721723096    -0.208934278251    12.000000000000
         C           -3.124722988273     1.432614723096    -0.487498278251    12.000000000000
         C           -3.536826988273     2.086181723096    -1.782731278251    12.000000000000
         H           -0.283601988273     0.299817723096    -0.968850278251     1.007825032230
         H            0.369759011727    -2.028347276904    -0.570644278251     1.007825032230
         H            1.156610011727     0.998893723096     1.613543721749     1.007825032230
         H            2.060424011727    -0.787643276904    -1.871368278251     1.007825032230
         H            1.916477011727     1.637303723096    -1.272195278251     1.007825032230
         H            3.295345011727    -0.093515276904     0.829033721749     1.007825032230
         H            0.521265011727    -1.887015276904     1.712897721749     1.007825032230
         H            0.665030011727     3.110327723096     0.684571721749     1.007825032230
         H            2.973033011727    -2.546357276904     0.096041721749     1.007825032230
         H            3.720919011727     2.550202723096    -0.057481278251     1.007825032230
         H            4.639217011727    -0.422817276904    -1.095699278251     1.007825032230
         H           -3.808904988273    -1.521321276904     1.736115721749     1.007825032230
         H           -3.931055988273     1.446557723096     0.250773721749     1.007825032230
         H           -2.230271988273     1.893896723096    -0.057708278251     1.007825032230
         H           -3.801030988273     3.131898723096    -1.601283278251     1.007825032230
         H           -2.717705988273     2.054339723096    -2.503487278251     1.007825032230
         H           -4.401453988273     1.575339723096    -2.211336278251     1.007825032230

  Basis Set: AUG-CC-PVTZ
    Blend: AUG-CC-PVTZ
  Basis Set: (AUG-CC-PVTZ AUX)
    Blend: AUG-CC-PVTZ-JKFIT
	 Reference Energy          =   -1327.8587381828808702 [Eh]
	 Singles Energy            =      -0.0000000000000000 [Eh]
	 Same-Spin Energy          =      -1.0149576419596116 [Eh]
	 Opposite-Spin Energy      =      -3.0770238123953497 [Eh]
	 Correlation Energy        =      -4.0919814543549613 [Eh]
	 Total Energy              =   -1331.9507196372358067 [Eh]

	 ================> DF-SCS-MP2 Energies <==================
	-----------------------------------------------------------
	 SCS Same-Spin Scale       =       0.3333333333333333 [-]
	 SCS Opposite-Spin Scale   =       1.2000000000000000 [-]
	 SCS Same-Spin Energy      =      -0.3383192139865372 [Eh]
	 SCS Opposite-Spin Energy  =      -3.6924285748744197 [Eh]
	 SCS Correlation Energy    =      -4.0307477888609569 [Eh]
	 SCS Total Energy          =   -1331.8894859717418058 [Eh]
	-----------------------------------------------------------

  Dipole Moment: [D]
     X:    -1.0432      Y:     1.8143      Z:     0.6601     Total:     2.1945

*** Psi4 exiting successfully. Buy a developer a beer!
