                               Psi4 1.3.2 release

  ==> Input File <==

--------------------------------------------------------------------------
#psi4
#
memory 32 gb

molecule  {
0 1
  P       -2.2900960    -0.9400430     0.3446780
  O       -0.9821530    -0.2015620     0.9382890
  O        1.3422500    -1.6754830     1.2308510
  O        0.0787050     2.3596040     0.4621680
  O        3.0685150    -2.1870720    -0.8085900
  O        2.7871194     2.5448432     0.3571799
  O        4.1956880     0.4353970    -0.9728740
  O       -2.8268630     0.0333510    -0.8075310
  O       -3.2591210    -0.7232820     1.6216710
  O       -2.1189930    -2.3436440    -0.0996680
  C        0.1181620     0.0300090     0.0163190
  C        0.9532920    -1.2442050    -0.0757250
  C        0.8985890     1.2026440     0.5648510
  C        2.2596600    -1.0143070    -0.8180370
  C        2.1770750     1.3964720    -0.2280410
  C        2.9668551     0.1105682    -0.2465020
  C       -3.1242130     1.4315980    -0.4888860
  C       -3.5363170     2.0851650    -1.7841190
  H       -0.2830920     0.2988010    -0.9702380
  H        0.3702690    -2.0293640    -0.5720320
  H        1.1571200     0.9978770     1.6121560
  H        2.0609340    -0.7886600    -1.8727560
  H        1.9169870     1.6362870    -1.2735830
  H        3.2958550    -0.0945320     0.8276460
  H        0.5217750    -1.8880320     1.7115100
  H        0.6655400     3.1093110     0.6831840
  H        2.9735430    -2.5473740     0.0946540
  H        3.7214290     2.5491860    -0.0588690
  H        4.6397270    -0.4238340    -1.0970870
  H       -3.8083950    -1.5223380     1.7347280
  H       -3.9305460     1.4455410     0.2493860
  H       -2.2297620     1.8928800    -0.0590960
  H       -3.8005210     3.1308820    -1.6026710
  H       -2.7171960     2.0533230    -2.5048750
  H       -4.4009440     1.5743230    -2.2127240
units angstrom
no_reorient  #important for SAPT in psi4, default
symmetry c1  #important for SAPT in psi4, default
}

set PROPERTIES_ORIGIN ["COM"]
properties('MP2/aug-cc-pvtz', properties = ['dipole'])
--------------------------------------------------------------------------

    Molecular point group: c1
  Charge       = 0
  Multiplicity = 1
  Basis Set: AUG-CC-PVTZ
    Blend: AUG-CC-PVTZ
  Basis Set: (AUG-CC-PVTZ AUX)
    Blend: AUG-CC-PVTZ-JKFIT

    Orbital Energies [Eh]
    ---------------------

    Doubly Occupied:

       1A    -80.117059     2A    -20.614821     3A    -20.607165
       4A    -20.598936     5A    -20.585280     6A    -20.584167
       7A    -20.577276     8A    -20.572308     9A    -20.571589
      10A    -20.523683    11A    -11.320841    12A    -11.305629
      13A    -11.300026    14A    -11.299213    15A    -11.298237
      16A    -11.297106    17A    -11.296059    18A    -11.229700
      19A     -7.632512    20A     -5.531019    21A     -5.530643
      22A     -5.529445    23A     -1.460399    24A     -1.411308
      25A     -1.393934    26A     -1.390722    27A     -1.386748
      28A     -1.370180    29A     -1.361613    30A     -1.347784
      31A     -1.304071    32A     -1.126320    33A     -1.040477
      34A     -1.019535    35A     -1.005026    36A     -0.881592
      37A     -0.865442    38A     -0.859877    39A     -0.820653
      40A     -0.810703    41A     -0.751222    42A     -0.744420
      43A     -0.731439    44A     -0.727984    45A     -0.705091
      46A     -0.687899    47A     -0.680329    48A     -0.673221
      49A     -0.660967    50A     -0.658962    51A     -0.638523
      52A     -0.632667    53A     -0.627743    54A     -0.616956
      55A     -0.603838    56A     -0.595464    57A     -0.581209
      58A     -0.575587    59A     -0.571561    60A     -0.560443
      61A     -0.556401    62A     -0.548471    63A     -0.542073
      64A     -0.537880    65A     -0.528787    66A     -0.521072
      67A     -0.512984    68A     -0.501258    69A     -0.496714
      70A     -0.483849    71A     -0.479891    72A     -0.476913
      73A     -0.462642    74A     -0.455699    75A     -0.451043
      76A     -0.444610

  @DF-RHF Final Energy: -1327.84566012527375

   => Energetics <=

    Nuclear Repulsion Energy =           1773.4673896861972935
    One-Electron Energy =               -5359.0162836729487026
    Two-Electron Energy =                2257.7032338614776563
    Total Energy =                      -1327.8456601252737528
  Basis Set: (AUG-CC-PVTZ AUX)
    Blend: AUG-CC-PVTZ-RI
    Molecular point group: c1

    Geometry (in Angstrom), charge = 0, multiplicity = 1:

       Center              X                  Y                   Z               Mass
    ------------   -----------------  -----------------  -----------------  -----------------
         P           -2.284295160844    -0.940771402251     0.346982254640    30.973761998420
         O           -0.976352160844    -0.202290402251     0.940593254640    15.994914619570
         O            1.348050839156    -1.676211402251     1.233155254640    15.994914619570
         O            0.084505839156     2.358875597749     0.464472254640    15.994914619570
         O            3.074315839156    -2.187800402251    -0.806285745360    15.994914619570
         O            2.792920239156     2.544114797749     0.359484154640    15.994914619570
         O            4.201488839156     0.434668597749    -0.970569745360    15.994914619570
         O           -2.821062160844     0.032622597749    -0.805226745360    15.994914619570
         O           -3.253320160844    -0.724010402251     1.623975254640    15.994914619570
         O           -2.113192160844    -2.344372402251    -0.097363745360    15.994914619570
         C            0.123962839156     0.029280597749     0.018623254640    12.000000000000
         C            0.959092839156    -1.244933402251    -0.073420745360    12.000000000000
         C            0.904389839156     1.201915597749     0.567155254640    12.000000000000
         C            2.265460839156    -1.015035402251    -0.815732745360    12.000000000000
         C            2.182875839156     1.395743597749    -0.225736745360    12.000000000000
         C            2.972655939156     0.109839797749    -0.244197745360    12.000000000000
         C           -3.118412160844     1.430869597749    -0.486581745360    12.000000000000
         C           -3.530516160844     2.084436597749    -1.781814745360    12.000000000000
         H           -0.277291160844     0.298072597749    -0.967933745360     1.007825032230
         H            0.376069839156    -2.030092402251    -0.569727745360     1.007825032230
         H            1.162920839156     0.997148597749     1.614460254640     1.007825032230
         H            2.066734839156    -0.789388402251    -1.870451745360     1.007825032230
         H            1.922787839156     1.635558597749    -1.271278745360     1.007825032230
         H            3.301655839156    -0.095260402251     0.829950254640     1.007825032230
         H            0.527575839156    -1.888760402251     1.713814254640     1.007825032230
         H            0.671340839156     3.108582597749     0.685488254640     1.007825032230
         H            2.979343839156    -2.548102402251     0.096958254640     1.007825032230
         H            3.727229839156     2.548457597749    -0.056564745360     1.007825032230
         H            4.645527839156    -0.424562402251    -1.094782745360     1.007825032230
         H           -3.802594160844    -1.523066402251     1.737032254640     1.007825032230
         H           -3.924745160844     1.444812597749     0.251690254640     1.007825032230
         H           -2.223961160844     1.892151597749    -0.056791745360     1.007825032230
         H           -3.794720160844     3.130153597749    -1.600366745360     1.007825032230
         H           -2.711395160844     2.052594597749    -2.502570745360     1.007825032230
         H           -4.395143160844     1.573594597749    -2.210419745360     1.007825032230

  Basis Set: AUG-CC-PVTZ
    Blend: AUG-CC-PVTZ
  Basis Set: (AUG-CC-PVTZ AUX)
    Blend: AUG-CC-PVTZ-JKFIT
	 Reference Energy          =   -1327.8456601252737528 [Eh]
	 Singles Energy            =      -0.0000000000000000 [Eh]
	 Same-Spin Energy          =      -1.0164757443493448 [Eh]
	 Opposite-Spin Energy      =      -3.0798178734366783 [Eh]
	 Correlation Energy        =      -4.0962936177860234 [Eh]
	 Total Energy              =   -1331.9419537430596847 [Eh]

	 ================> DF-SCS-MP2 Energies <==================
	-----------------------------------------------------------
	 SCS Same-Spin Scale       =       0.3333333333333333 [-]
	 SCS Opposite-Spin Scale   =       1.2000000000000000 [-]
	 SCS Same-Spin Energy      =      -0.3388252481164483 [Eh]
	 SCS Opposite-Spin Energy  =      -3.6957814481240137 [Eh]
	 SCS Correlation Energy    =      -4.0346066962404619 [Eh]
	 SCS Total Energy          =   -1331.8802668215141694 [Eh]
	-----------------------------------------------------------

  Dipole Moment: [D]
     X:    -1.1032      Y:     1.7676      Z:     0.7797     Total:     2.2247

*** Psi4 exiting successfully. Buy a developer a beer!
