                               Psi4 1.3.2 release

  ==> Input File <==

--------------------------------------------------------------------------
#psi4
#
memory 32 gb

molecule  {
0 1
  P       -2.2900960    -0.9400430     0.3446780
  O       -0.9821530    -0.2015620     0.9382890
  O        1.3480586    -1.6645887     1.2326583
  O        0.0787050     2.3596040     0.4621680
  O        3.0685150    -2.1870720    -0.8085900
  O        2.8473350     2.5031130     0.3715350
  O        4.1956880     0.4353970    -0.9728740
  O       -2.8268630     0.0333510    -0.8075310
  O       -3.2591210    -0.7232820     1.6216710
  O       -2.1189930    -2.3436440    -0.0996680
  C        0.1181620     0.0300090     0.0163190
  C        0.9532920    -1.2442050    -0.0757250
  C        0.8985890     1.2026440     0.5648510
  C        2.2596600    -1.0143070    -0.8180370
  C        2.1770750     1.3964720    -0.2280410
  C        3.0258420     0.1487050    -0.2103220
  C       -3.1242130     1.4315980    -0.4888860
  C       -3.5363170     2.0851650    -1.7841190
  H       -0.2830920     0.2988010    -0.9702380
  H        0.3693735    -2.0237666    -0.5797429
  H        1.1571200     0.9978770     1.6121560
  H        2.0609340    -0.7886600    -1.8727560
  H        1.9169870     1.6362870    -1.2735830
  H        3.2958550    -0.0945320     0.8276460
  H        0.5217750    -1.8880320     1.7115100
  H        0.6655400     3.1093110     0.6831840
  H        2.9735430    -2.5473740     0.0946540
  H        3.7214290     2.5491860    -0.0588690
  H        4.6397270    -0.4238340    -1.0970870
  H       -3.8083950    -1.5223380     1.7347280
  H       -3.9305460     1.4455410     0.2493860
  H       -2.2297620     1.8928800    -0.0590960
  H       -3.8005210     3.1308820    -1.6026710
  H       -2.7171960     2.0533230    -2.5048750
  H       -4.4009440     1.5743230    -2.2127240
units angstrom
no_reorient  #important for SAPT in psi4, default
symmetry c1  #important for SAPT in psi4, default
}

set PROPERTIES_ORIGIN ["COM"]
properties('MP2/aug-cc-pvtz', properties = ['dipole'])
--------------------------------------------------------------------------

    Molecular point group: c1
  Charge       = 0
  Multiplicity = 1
  Basis Set: AUG-CC-PVTZ
    Blend: AUG-CC-PVTZ
  Basis Set: (AUG-CC-PVTZ AUX)
    Blend: AUG-CC-PVTZ-JKFIT

    Orbital Energies [Eh]
    ---------------------

    Doubly Occupied:

       1A    -80.116981     2A    -20.614767     3A    -20.607005
       4A    -20.598945     5A    -20.584305     6A    -20.576658
       7A    -20.574612     8A    -20.573941     9A    -20.573302
      10A    -20.523536    11A    -11.320515    12A    -11.303595
      13A    -11.299370    14A    -11.299146    15A    -11.298388
      16A    -11.296520    17A    -11.291225    18A    -11.229851
      19A     -7.632432    20A     -5.530938    21A     -5.530565
      22A     -5.529364    23A     -1.460289    24A     -1.410684
      25A     -1.394561    26A     -1.392842    27A     -1.386866
      28A     -1.372472    29A     -1.363708    30A     -1.353679
      31A     -1.303926    32A     -1.118770    33A     -1.040448
      34A     -1.011919    35A     -1.003275    36A     -0.880135
      37A     -0.864852    38A     -0.858957    39A     -0.822282
      40A     -0.810114    41A     -0.751359    42A     -0.745272
      43A     -0.731517    44A     -0.728511    45A     -0.707778
      46A     -0.687002    47A     -0.678036    48A     -0.673647
      49A     -0.662151    50A     -0.660892    51A     -0.642896
      52A     -0.634865    53A     -0.627197    54A     -0.614850
      55A     -0.603507    56A     -0.598582    57A     -0.581630
      58A     -0.575540    59A     -0.571053    60A     -0.559370
      61A     -0.556761    62A     -0.548700    63A     -0.541251
      64A     -0.536351    65A     -0.529846    66A     -0.521646
      67A     -0.513004    68A     -0.504315    69A     -0.497223
      70A     -0.484660    71A     -0.479880    72A     -0.476670
      73A     -0.462287    74A     -0.455725    75A     -0.449948
      76A     -0.436317

  @DF-RHF Final Energy: -1327.86078813939434

   => Energetics <=

    Nuclear Repulsion Energy =           1772.5606363826314009
    One-Electron Energy =               -5357.2708974345623574
    Two-Electron Energy =                2256.8494729125368394
    Total Energy =                      -1327.8607881393941170
  Basis Set: (AUG-CC-PVTZ AUX)
    Blend: AUG-CC-PVTZ-RI
    Molecular point group: c1

    Geometry (in Angstrom), charge = 0, multiplicity = 1:

       Center              X                  Y                   Z               Mass
    ------------   -----------------  -----------------  -----------------  -----------------
         P           -2.290415363223    -0.940667484033     0.344604616138    30.973761998420
         O           -0.982472363223    -0.202186484033     0.938215616138    15.994914619570
         O            1.347739236777    -1.665213184033     1.232584916138    15.994914619570
         O            0.078385636777     2.358979515967     0.462094616138    15.994914619570
         O            3.068195636777    -2.187696484033    -0.808663383862    15.994914619570
         O            2.847015636777     2.502488515967     0.371461616138    15.994914619570
         O            4.195368636777     0.434772515967    -0.972947383862    15.994914619570
         O           -2.827182363223     0.032726515967    -0.807604383862    15.994914619570
         O           -3.259440363223    -0.723906484033     1.621597616138    15.994914619570
         O           -2.119312363223    -2.344268484033    -0.099741383862    15.994914619570
         C            0.117842636777     0.029384515967     0.016245616138    12.000000000000
         C            0.952972636777    -1.244829484033    -0.075798383862    12.000000000000
         C            0.898269636777     1.202019515967     0.564777616138    12.000000000000
         C            2.259340636777    -1.014931484033    -0.818110383862    12.000000000000
         C            2.176755636777     1.395847515967    -0.228114383862    12.000000000000
         C            3.025522636777     0.148080515967    -0.210395383862    12.000000000000
         C           -3.124532363223     1.430973515967    -0.488959383862    12.000000000000
         C           -3.536636363223     2.084540515967    -1.784192383862    12.000000000000
         H           -0.283411363223     0.298176515967    -0.970311383862     1.007825032230
         H            0.369054136777    -2.024391084033    -0.579816283862     1.007825032230
         H            1.156800636777     0.997252515967     1.612082616138     1.007825032230
         H            2.060614636777    -0.789284484033    -1.872829383862     1.007825032230
         H            1.916667636777     1.635662515967    -1.273656383862     1.007825032230
         H            3.295535636777    -0.095156484033     0.827572616138     1.007825032230
         H            0.521455636777    -1.888656484033     1.711436616138     1.007825032230
         H            0.665220636777     3.108686515967     0.683110616138     1.007825032230
         H            2.973223636777    -2.547998484033     0.094580616138     1.007825032230
         H            3.721109636777     2.548561515967    -0.058942383862     1.007825032230
         H            4.639407636777    -0.424458484033    -1.097160383862     1.007825032230
         H           -3.808714363223    -1.522962484033     1.734654616138     1.007825032230
         H           -3.930865363223     1.444916515967     0.249312616138     1.007825032230
         H           -2.230081363223     1.892255515967    -0.059169383862     1.007825032230
         H           -3.800840363223     3.130257515967    -1.602744383862     1.007825032230
         H           -2.717515363223     2.052698515967    -2.504948383862     1.007825032230
         H           -4.401263363223     1.573698515967    -2.212797383862     1.007825032230

  Basis Set: AUG-CC-PVTZ
    Blend: AUG-CC-PVTZ
  Basis Set: (AUG-CC-PVTZ AUX)
    Blend: AUG-CC-PVTZ-JKFIT
	 Reference Energy          =   -1327.8607881393943444 [Eh]
	 Singles Energy            =      -0.0000000000000000 [Eh]
	 Same-Spin Energy          =      -1.0147494909339687 [Eh]
	 Opposite-Spin Energy      =      -3.0764043198684776 [Eh]
	 Correlation Energy        =      -4.0911538108024459 [Eh]
	 Total Energy              =   -1331.9519419501968969 [Eh]

	 ================> DF-SCS-MP2 Energies <==================
	-----------------------------------------------------------
	 SCS Same-Spin Scale       =       0.3333333333333333 [-]
	 SCS Opposite-Spin Scale   =       1.2000000000000000 [-]
	 SCS Same-Spin Energy      =      -0.3382498303113229 [Eh]
	 SCS Opposite-Spin Energy  =      -3.6916851838421731 [Eh]
	 SCS Correlation Energy    =      -4.0299350141534962 [Eh]
	 SCS Total Energy          =   -1331.8907231535479241 [Eh]
	-----------------------------------------------------------

  Dipole Moment: [D]
     X:    -1.1222      Y:     1.8355      Z:     0.7242     Total:     2.2701

*** Psi4 exiting successfully. Buy a developer a beer!
