                               Psi4 1.3.2 release

  ==> Input File <==

--------------------------------------------------------------------------
#psi4
#
memory 32 gb

molecule  {
0 1
  P       -2.2900960    -0.9400430     0.3446780
  O       -0.9821530    -0.2015620     0.9382890
  O        1.3661107    -1.7140719     1.2100571
  O        0.0787050     2.3596040     0.4621680
  O        3.0685150    -2.1870720    -0.8085900
  O        2.8473350     2.5031130     0.3715350
  O        4.1956880     0.4353970    -0.9728740
  O       -2.8268630     0.0333510    -0.8075310
  O       -3.2591210    -0.7232820     1.6216710
  O       -2.1189930    -2.3436440    -0.0996680
  C        0.1139619     0.0299789    -0.0367897
  C        0.9532920    -1.2442050    -0.0757250
  C        0.8985890     1.2026440     0.5648510
  C        2.2596600    -1.0143070    -0.8180370
  C        2.1770750     1.3964720    -0.2280410
  C        3.0258420     0.1487050    -0.2103220
  C       -3.1242130     1.4315980    -0.4888860
  C       -3.5363170     2.0851650    -1.7841190
  H       -0.2830920     0.2988010    -0.9702380
  H        0.3702690    -2.0293640    -0.5720320
  H        1.1571200     0.9978770     1.6121560
  H        2.0609340    -0.7886600    -1.8727560
  H        1.9169870     1.6362870    -1.2735830
  H        3.2958550    -0.0945320     0.8276460
  H        0.5217750    -1.8880320     1.7115100
  H        0.6655400     3.1093110     0.6831840
  H        2.9735430    -2.5473740     0.0946540
  H        3.7214290     2.5491860    -0.0588690
  H        4.6397270    -0.4238340    -1.0970870
  H       -3.8083950    -1.5223380     1.7347280
  H       -3.9305460     1.4455410     0.2493860
  H       -2.2297620     1.8928800    -0.0590960
  H       -3.8005210     3.1308820    -1.6026710
  H       -2.7171960     2.0533230    -2.5048750
  H       -4.4009440     1.5743230    -2.2127240
units angstrom
no_reorient  #important for SAPT in psi4, default
symmetry c1  #important for SAPT in psi4, default
}

set PROPERTIES_ORIGIN ["COM"]
properties('MP2/aug-cc-pvtz', properties = ['dipole'])
--------------------------------------------------------------------------

    Molecular point group: c1
  Charge       = 0
  Multiplicity = 1
  Basis Set: AUG-CC-PVTZ
    Blend: AUG-CC-PVTZ
  Basis Set: (AUG-CC-PVTZ AUX)
    Blend: AUG-CC-PVTZ-JKFIT

    Orbital Energies [Eh]
    ---------------------

    Doubly Occupied:

       1A    -80.115110     2A    -20.613644     3A    -20.605753
       4A    -20.598739     5A    -20.587652     6A    -20.577083
       7A    -20.574205     8A    -20.574133     9A    -20.573175
      10A    -20.522516    11A    -11.322006    12A    -11.304063
      13A    -11.301346    14A    -11.299550    15A    -11.298583
      16A    -11.296755    17A    -11.291547    18A    -11.230171
      19A     -7.630682    20A     -5.529205    21A     -5.528781
      22A     -5.527607    23A     -1.457183    24A     -1.409104
      25A     -1.393468    26A     -1.390915    27A     -1.386271
      28A     -1.370823    29A     -1.362885    30A     -1.352977
      31A     -1.302744    32A     -1.119415    33A     -1.040600
      34A     -1.012957    35A     -1.002146    36A     -0.878062
      37A     -0.865321    38A     -0.857952    39A     -0.822572
      40A     -0.812987    41A     -0.751514    42A     -0.746611
      43A     -0.731070    44A     -0.725773    45A     -0.707514
      46A     -0.687591    47A     -0.674976    48A     -0.673715
      49A     -0.661760    50A     -0.660167    51A     -0.641961
      52A     -0.633856    53A     -0.625941    54A     -0.615882
      55A     -0.602618    56A     -0.597321    57A     -0.582041
      58A     -0.574486    59A     -0.572107    60A     -0.560215
      61A     -0.556877    62A     -0.550352    63A     -0.541167
      64A     -0.536803    65A     -0.532695    66A     -0.520482
      67A     -0.513181    68A     -0.505444    69A     -0.495588
      70A     -0.487816    71A     -0.479530    72A     -0.476218
      73A     -0.461694    74A     -0.456269    75A     -0.450836
      76A     -0.435226

  @DF-RHF Final Energy: -1327.85484101282464

   => Energetics <=

    Nuclear Repulsion Energy =           1771.3045471854645712
    One-Electron Energy =               -5354.7828149265260436
    Two-Electron Energy =                2255.6234267282366091
    Total Energy =                      -1327.8548410128246360
  Basis Set: (AUG-CC-PVTZ AUX)
    Blend: AUG-CC-PVTZ-RI
    Molecular point group: c1

    Geometry (in Angstrom), charge = 0, multiplicity = 1:

       Center              X                  Y                   Z               Mass
    ------------   -----------------  -----------------  -----------------  -----------------
         P           -2.291245892485    -0.937899036010     0.348044989394    30.973761998420
         O           -0.983302892485    -0.199418036010     0.941655989394    15.994914619570
         O            1.364960807515    -1.711927936010     1.213424089394    15.994914619570
         O            0.077555107515     2.361747963990     0.465534989394    15.994914619570
         O            3.067365107515    -2.184928036010    -0.805223010606    15.994914619570
         O            2.846185107515     2.505256963990     0.374901989394    15.994914619570
         O            4.194538107515     0.437540963990    -0.969507010606    15.994914619570
         O           -2.828012892485     0.035494963990    -0.804164010606    15.994914619570
         O           -3.260270892485    -0.721138036010     1.625037989394    15.994914619570
         O           -2.120142892485    -2.341500036010    -0.096301010606    15.994914619570
         C            0.112812007515     0.032122863990    -0.033422710606    12.000000000000
         C            0.952142107515    -1.242061036010    -0.072358010606    12.000000000000
         C            0.897439107515     1.204787963990     0.568217989394    12.000000000000
         C            2.258510107515    -1.012163036010    -0.814670010606    12.000000000000
         C            2.175925107515     1.398615963990    -0.224674010606    12.000000000000
         C            3.024692107515     0.150848963990    -0.206955010606    12.000000000000
         C           -3.125362892485     1.433741963990    -0.485519010606    12.000000000000
         C           -3.537466892485     2.087308963990    -1.780752010606    12.000000000000
         H           -0.284241892485     0.300944963990    -0.966871010606     1.007825032230
         H            0.369119107515    -2.027220036010    -0.568665010606     1.007825032230
         H            1.155970107515     1.000020963990     1.615522989394     1.007825032230
         H            2.059784107515    -0.786516036010    -1.869389010606     1.007825032230
         H            1.915837107515     1.638430963990    -1.270216010606     1.007825032230
         H            3.294705107515    -0.092388036010     0.831012989394     1.007825032230
         H            0.520625107515    -1.885888036010     1.714876989394     1.007825032230
         H            0.664390107515     3.111454963990     0.686550989394     1.007825032230
         H            2.972393107515    -2.545230036010     0.098020989394     1.007825032230
         H            3.720279107515     2.551329963990    -0.055502010606     1.007825032230
         H            4.638577107515    -0.421690036010    -1.093720010606     1.007825032230
         H           -3.809544892485    -1.520194036010     1.738094989394     1.007825032230
         H           -3.931695892485     1.447684963990     0.252752989394     1.007825032230
         H           -2.230911892485     1.895023963990    -0.055729010606     1.007825032230
         H           -3.801670892485     3.133025963990    -1.599304010606     1.007825032230
         H           -2.718345892485     2.055466963990    -2.501508010606     1.007825032230
         H           -4.402093892485     1.576466963990    -2.209357010606     1.007825032230

  Basis Set: AUG-CC-PVTZ
    Blend: AUG-CC-PVTZ
  Basis Set: (AUG-CC-PVTZ AUX)
    Blend: AUG-CC-PVTZ-JKFIT
	 Reference Energy          =   -1327.8548410128246360 [Eh]
	 Singles Energy            =      -0.0000000000000000 [Eh]
	 Same-Spin Energy          =      -1.0150468901008673 [Eh]
	 Opposite-Spin Energy      =      -3.0775205603626405 [Eh]
	 Correlation Energy        =      -4.0925674504635081 [Eh]
	 Total Energy              =   -1331.9474084632881841 [Eh]

	 ================> DF-SCS-MP2 Energies <==================
	-----------------------------------------------------------
	 SCS Same-Spin Scale       =       0.3333333333333333 [-]
	 SCS Opposite-Spin Scale   =       1.2000000000000000 [-]
	 SCS Same-Spin Energy      =      -0.3383489633669557 [Eh]
	 SCS Opposite-Spin Energy  =      -3.6930246724351683 [Eh]
	 SCS Correlation Energy    =      -4.0313736358021242 [Eh]
	 SCS Total Energy          =   -1331.8862146486267193 [Eh]
	-----------------------------------------------------------

  Dipole Moment: [D]
     X:    -1.1031      Y:     1.9797      Z:     0.7206     Total:     2.3781

*** Psi4 exiting successfully. Buy a developer a beer!
