                               Psi4 1.3.2 release

  ==> Input File <==

--------------------------------------------------------------------------
#psi4
#
memory 32 gb

molecule  {
0 1
  P       -2.2900960    -0.9400430     0.3446780
  O       -0.9821530    -0.2015620     0.9382890
  O        1.3422500    -1.6754830     1.2308510
  O        0.0787050     2.3596040     0.4621680
  O        3.0150593    -2.2212526    -0.7693792
  O        2.8473350     2.5031130     0.3715350
  O        4.1956880     0.4353970    -0.9728740
  O       -2.8268630     0.0333510    -0.8075310
  O       -3.2591210    -0.7232820     1.6216710
  O       -2.1189930    -2.3436440    -0.0996680
  C        0.1181620     0.0300090     0.0163190
  C        0.9770985    -1.3187331    -0.0611763
  C        0.8985890     1.2026440     0.5648510
  C        2.2596600    -1.0143070    -0.8180370
  C        2.1770750     1.3964720    -0.2280410
  C        3.0258420     0.1487050    -0.2103220
  C       -3.1242130     1.4315980    -0.4888860
  C       -3.5363170     2.0851650    -1.7841190
  H       -0.2830920     0.2988010    -0.9702380
  H        0.3702690    -2.0293640    -0.5720320
  H        1.1571200     0.9978770     1.6121560
  H        2.0609340    -0.7886600    -1.8727560
  H        1.9169870     1.6362870    -1.2735830
  H        3.2958550    -0.0945320     0.8276460
  H        0.5217750    -1.8880320     1.7115100
  H        0.6655400     3.1093110     0.6831840
  H        2.9735430    -2.5473740     0.0946540
  H        3.7214290     2.5491860    -0.0588690
  H        4.6397270    -0.4238340    -1.0970870
  H       -3.8083950    -1.5223380     1.7347280
  H       -3.9305460     1.4455410     0.2493860
  H       -2.2297620     1.8928800    -0.0590960
  H       -3.8005210     3.1308820    -1.6026710
  H       -2.7171960     2.0533230    -2.5048750
  H       -4.4009440     1.5743230    -2.2127240
units angstrom
no_reorient  #important for SAPT in psi4, default
symmetry c1  #important for SAPT in psi4, default
}

set PROPERTIES_ORIGIN ["COM"]
properties('MP2/aug-cc-pvtz', properties = ['dipole'])
--------------------------------------------------------------------------

    Molecular point group: c1
  Charge       = 0
  Multiplicity = 1
  Basis Set: AUG-CC-PVTZ
    Blend: AUG-CC-PVTZ
  Basis Set: (AUG-CC-PVTZ AUX)
    Blend: AUG-CC-PVTZ-JKFIT

    Orbital Energies [Eh]
    ---------------------

    Doubly Occupied:

       1A    -80.115510     2A    -20.613659     3A    -20.603986
       4A    -20.597598     5A    -20.586371     6A    -20.577068
       7A    -20.576716     8A    -20.572394     9A    -20.565964
      10A    -20.522635    11A    -11.317323    12A    -11.301692
      13A    -11.299402    14A    -11.298321    15A    -11.297385
      16A    -11.296698    17A    -11.293561    18A    -11.229045
      19A     -7.630952    20A     -5.529460    21A     -5.529081
      22A     -5.527896    23A     -1.458325    24A     -1.418760
      25A     -1.397680    26A     -1.394258    27A     -1.385806
      28A     -1.375999    29A     -1.369277    30A     -1.356414
      31A     -1.302956    32A     -1.112402    33A     -1.039449
      34A     -1.007643    35A     -1.001811    36A     -0.881386
      37A     -0.864727    38A     -0.859245    39A     -0.821813
      40A     -0.811850    41A     -0.751365    42A     -0.747347
      43A     -0.732616    44A     -0.727472    45A     -0.707670
      46A     -0.688826    47A     -0.685075    48A     -0.673682
      49A     -0.666906    50A     -0.661573    51A     -0.642231
      52A     -0.634853    53A     -0.628038    54A     -0.616453
      55A     -0.602587    56A     -0.599200    57A     -0.581488
      58A     -0.574373    59A     -0.571565    60A     -0.562085
      61A     -0.556457    62A     -0.549816    63A     -0.541531
      64A     -0.540645    65A     -0.530214    66A     -0.522314
      67A     -0.512427    68A     -0.502782    69A     -0.497122
      70A     -0.480650    71A     -0.477718    72A     -0.474131
      73A     -0.458975    74A     -0.456472    75A     -0.440133
      76A     -0.437048

  @DF-RHF Final Energy: -1327.85681441089514

   => Energetics <=

    Nuclear Repulsion Energy =           1772.1657848323063718
    One-Electron Energy =               -5356.4924763457265726
    Two-Electron Energy =                2256.4698771025246060
    Total Energy =                      -1327.8568144108953675
  Basis Set: (AUG-CC-PVTZ AUX)
    Blend: AUG-CC-PVTZ-RI
    Molecular point group: c1

    Geometry (in Angstrom), charge = 0, multiplicity = 1:

       Center              X                  Y                   Z               Mass
    ------------   -----------------  -----------------  -----------------  -----------------
         P           -2.288119506209    -0.935040386060     0.341894699228    30.973761998420
         O           -0.980176506209    -0.196559386060     0.935505699228    15.994914619570
         O            1.344226493791    -1.670480386060     1.228067699228    15.994914619570
         O            0.080681493791     2.364606613940     0.459384699228    15.994914619570
         O            3.017035793791    -2.216249986060    -0.772162500772    15.994914619570
         O            2.849311493791     2.508115613940     0.368751699228    15.994914619570
         O            4.197664493791     0.440399613940    -0.975657300772    15.994914619570
         O           -2.824886506209     0.038353613940    -0.810314300772    15.994914619570
         O           -3.257144506209    -0.718279386060     1.618887699228    15.994914619570
         O           -2.117016506209    -2.338641386060    -0.102451300772    15.994914619570
         C            0.120138493791     0.035011613940     0.013535699228    12.000000000000
         C            0.979074993791    -1.313730486060    -0.063959600772    12.000000000000
         C            0.900565493791     1.207646613940     0.562067699228    12.000000000000
         C            2.261636493791    -1.009304386060    -0.820820300772    12.000000000000
         C            2.179051493791     1.401474613940    -0.230824300772    12.000000000000
         C            3.027818493791     0.153707613940    -0.213105300772    12.000000000000
         C           -3.122236506209     1.436600613940    -0.491669300772    12.000000000000
         C           -3.534340506209     2.090167613940    -1.786902300772    12.000000000000
         H           -0.281115506209     0.303803613940    -0.973021300772     1.007825032230
         H            0.372245493791    -2.024361386060    -0.574815300772     1.007825032230
         H            1.159096493791     1.002879613940     1.609372699228     1.007825032230
         H            2.062910493791    -0.783657386060    -1.875539300772     1.007825032230
         H            1.918963493791     1.641289613940    -1.276366300772     1.007825032230
         H            3.297831493791    -0.089529386060     0.824862699228     1.007825032230
         H            0.523751493791    -1.883029386060     1.708726699228     1.007825032230
         H            0.667516493791     3.114313613940     0.680400699228     1.007825032230
         H            2.975519493791    -2.542371386060     0.091870699228     1.007825032230
         H            3.723405493791     2.554188613940    -0.061652300772     1.007825032230
         H            4.641703493791    -0.418831386060    -1.099870300772     1.007825032230
         H           -3.806418506209    -1.517335386060     1.731944699228     1.007825032230
         H           -3.928569506209     1.450543613940     0.246602699228     1.007825032230
         H           -2.227785506209     1.897882613940    -0.061879300772     1.007825032230
         H           -3.798544506209     3.135884613940    -1.605454300772     1.007825032230
         H           -2.715219506209     2.058325613940    -2.507658300772     1.007825032230
         H           -4.398967506209     1.579325613940    -2.215507300772     1.007825032230

  Basis Set: AUG-CC-PVTZ
    Blend: AUG-CC-PVTZ
  Basis Set: (AUG-CC-PVTZ AUX)
    Blend: AUG-CC-PVTZ-JKFIT
	 Reference Energy          =   -1327.8568144108951401 [Eh]
	 Singles Energy            =      -0.0000000000000000 [Eh]
	 Same-Spin Energy          =      -1.0134687866662389 [Eh]
	 Opposite-Spin Energy      =      -3.0735712849971928 [Eh]
	 Correlation Energy        =      -4.0870400716634316 [Eh]
	 Total Energy              =   -1331.9438544825586632 [Eh]

	 ================> DF-SCS-MP2 Energies <==================
	-----------------------------------------------------------
	 SCS Same-Spin Scale       =       0.3333333333333333 [-]
	 SCS Opposite-Spin Scale   =       1.2000000000000000 [-]
	 SCS Same-Spin Energy      =      -0.3378229288887463 [Eh]
	 SCS Opposite-Spin Energy  =      -3.6882855419966312 [Eh]
	 SCS Correlation Energy    =      -4.0261084708853776 [Eh]
	 SCS Total Energy          =   -1331.8829228817805870 [Eh]
	-----------------------------------------------------------

  Dipole Moment: [D]
     X:    -0.9057      Y:     1.8464      Z:     0.7449     Total:     2.1874

*** Psi4 exiting successfully. Buy a developer a beer!
