                               Psi4 1.3.2 release

  ==> Input File <==

--------------------------------------------------------------------------
#psi4
#
memory 32 gb

molecule  {
0 1
  P       -2.2900960    -0.9400430     0.3446780
  O       -0.9821530    -0.2015620     0.9382890
  O        1.3422500    -1.6754830     1.2308510
  O        0.0787050     2.3596040     0.4621680
  O        3.0685150    -2.1870720    -0.8085900
  O        2.8473350     2.5031130     0.3715350
  O        4.1956880     0.4353970    -0.9728740
  O       -2.8268630     0.0333510    -0.8075310
  O       -3.2591210    -0.7232820     1.6216710
  O       -2.1189930    -2.3436440    -0.0996680
  C        0.1181620     0.0300090     0.0163190
  C        0.9505032    -1.2542918    -0.0838754
  C        0.8985890     1.2026440     0.5648510
  C        2.2596600    -1.0143070    -0.8180370
  C        2.1770750     1.3964720    -0.2280410
  C        3.0354681     0.1469659    -0.2192746
  C       -3.1242130     1.4315980    -0.4888860
  C       -3.5363170     2.0851650    -1.7841190
  H       -0.2830920     0.2988010    -0.9702380
  H        0.3702690    -2.0293640    -0.5720320
  H        1.1571200     0.9978770     1.6121560
  H        2.0609340    -0.7886600    -1.8727560
  H        1.9169870     1.6362870    -1.2735830
  H        3.2958550    -0.0945320     0.8276460
  H        0.5217750    -1.8880320     1.7115100
  H        0.6655400     3.1093110     0.6831840
  H        2.9735430    -2.5473740     0.0946540
  H        3.7214290     2.5491860    -0.0588690
  H        4.6397270    -0.4238340    -1.0970870
  H       -3.8083950    -1.5223380     1.7347280
  H       -3.9305460     1.4455410     0.2493860
  H       -2.2297620     1.8928800    -0.0590960
  H       -3.8005210     3.1308820    -1.6026710
  H       -2.7171960     2.0533230    -2.5048750
  H       -4.4009440     1.5743230    -2.2127240
units angstrom
no_reorient  #important for SAPT in psi4, default
symmetry c1  #important for SAPT in psi4, default
}

set PROPERTIES_ORIGIN ["COM"]
properties('MP2/aug-cc-pvtz', properties = ['dipole'])
--------------------------------------------------------------------------

    Molecular point group: c1
  Charge       = 0
  Multiplicity = 1
  Basis Set: AUG-CC-PVTZ
    Blend: AUG-CC-PVTZ
  Basis Set: (AUG-CC-PVTZ AUX)
    Blend: AUG-CC-PVTZ-JKFIT

    Orbital Energies [Eh]
    ---------------------

    Doubly Occupied:

       1A    -80.116874     2A    -20.614658     3A    -20.606767
       4A    -20.598835     5A    -20.582461     6A    -20.576585
       7A    -20.575843     8A    -20.574091     9A    -20.573407
      10A    -20.523511    11A    -11.320794    12A    -11.303496
      13A    -11.299287    14A    -11.299009    15A    -11.298556
      16A    -11.296512    17A    -11.291828    18A    -11.229786
      19A     -7.632325    20A     -5.530831    21A     -5.530457
      22A     -5.529258    23A     -1.460078    24A     -1.410671
      25A     -1.395824    26A     -1.392508    27A     -1.386838
      28A     -1.373937    29A     -1.363410    30A     -1.355004
      31A     -1.303895    32A     -1.117260    33A     -1.040352
      34A     -1.010656    35A     -1.003350    36A     -0.880664
      37A     -0.864986    38A     -0.859016    39A     -0.822119
      40A     -0.809607    41A     -0.751080    42A     -0.745699
      43A     -0.732251    44A     -0.728326    45A     -0.707500
      46A     -0.687717    47A     -0.677601    48A     -0.673947
      49A     -0.663252    50A     -0.660795    51A     -0.643100
      52A     -0.635444    53A     -0.627176    54A     -0.615141
      55A     -0.603524    56A     -0.598535    57A     -0.582250
      58A     -0.575434    59A     -0.571004    60A     -0.559193
      61A     -0.557450    62A     -0.548426    63A     -0.541141
      64A     -0.536984    65A     -0.529825    66A     -0.521618
      67A     -0.513010    68A     -0.504249    69A     -0.497263
      70A     -0.483951    71A     -0.479792    72A     -0.476480
      73A     -0.462121    74A     -0.453908    75A     -0.449895
      76A     -0.436936

  @DF-RHF Final Energy: -1327.86137935766283

   => Energetics <=

    Nuclear Repulsion Energy =           1772.1127506885011371
    One-Electron Energy =               -5356.3735240104369950
    Two-Electron Energy =                2256.3993939642728037
    Total Energy =                      -1327.8613793576628268
  Basis Set: (AUG-CC-PVTZ AUX)
    Blend: AUG-CC-PVTZ-RI
    Molecular point group: c1

    Geometry (in Angstrom), charge = 0, multiplicity = 1:

       Center              X                  Y                   Z               Mass
    ------------   -----------------  -----------------  -----------------  -----------------
         P           -2.290380794319    -0.939550340869     0.345390464817    30.973761998420
         O           -0.982437794319    -0.201069340869     0.939001464817    15.994914619570
         O            1.341965205681    -1.674990340869     1.231563464817    15.994914619570
         O            0.078420205681     2.360096659131     0.462880464817    15.994914619570
         O            3.068230205681    -2.186579340869    -0.807877535183    15.994914619570
         O            2.847050205681     2.503605659131     0.372247464817    15.994914619570
         O            4.195403205681     0.435889659131    -0.972161535183    15.994914619570
         O           -2.827147794319     0.033843659131    -0.806818535183    15.994914619570
         O           -3.259405794319    -0.722789340869     1.622383464817    15.994914619570
         O           -2.119277794319    -2.343151340869    -0.098955535183    15.994914619570
         C            0.117877205681     0.030501659131     0.017031464817    12.000000000000
         C            0.950218405681    -1.253799140869    -0.083162935183    12.000000000000
         C            0.898304205681     1.203136659131     0.565563464817    12.000000000000
         C            2.259375205681    -1.013814340869    -0.817324535183    12.000000000000
         C            2.176790205681     1.396964659131    -0.227328535183    12.000000000000
         C            3.035183305681     0.147458559131    -0.218562135183    12.000000000000
         C           -3.124497794319     1.432090659131    -0.488173535183    12.000000000000
         C           -3.536601794319     2.085657659131    -1.783406535183    12.000000000000
         H           -0.283376794319     0.299293659131    -0.969525535183     1.007825032230
         H            0.369984205681    -2.028871340869    -0.571319535183     1.007825032230
         H            1.156835205681     0.998369659131     1.612868464817     1.007825032230
         H            2.060649205681    -0.788167340869    -1.872043535183     1.007825032230
         H            1.916702205681     1.636779659131    -1.272870535183     1.007825032230
         H            3.295570205681    -0.094039340869     0.828358464817     1.007825032230
         H            0.521490205681    -1.887539340869     1.712222464817     1.007825032230
         H            0.665255205681     3.109803659131     0.683896464817     1.007825032230
         H            2.973258205681    -2.546881340869     0.095366464817     1.007825032230
         H            3.721144205681     2.549678659131    -0.058156535183     1.007825032230
         H            4.639442205681    -0.423341340869    -1.096374535183     1.007825032230
         H           -3.808679794319    -1.521845340869     1.735440464817     1.007825032230
         H           -3.930830794319     1.446033659131     0.250098464817     1.007825032230
         H           -2.230046794319     1.893372659131    -0.058383535183     1.007825032230
         H           -3.800805794319     3.131374659131    -1.601958535183     1.007825032230
         H           -2.717480794319     2.053815659131    -2.504162535183     1.007825032230
         H           -4.401228794319     1.574815659131    -2.212011535183     1.007825032230

  Basis Set: AUG-CC-PVTZ
    Blend: AUG-CC-PVTZ
  Basis Set: (AUG-CC-PVTZ AUX)
    Blend: AUG-CC-PVTZ-JKFIT
	 Reference Energy          =   -1327.8613793576628268 [Eh]
	 Singles Energy            =      -0.0000000000000000 [Eh]
	 Same-Spin Energy          =      -1.0144717089849109 [Eh]
	 Opposite-Spin Energy      =      -3.0758995264120630 [Eh]
	 Correlation Energy        =      -4.0903712353969741 [Eh]
	 Total Energy              =   -1331.9517505930598418 [Eh]

	 ================> DF-SCS-MP2 Energies <==================
	-----------------------------------------------------------
	 SCS Same-Spin Scale       =       0.3333333333333333 [-]
	 SCS Opposite-Spin Scale   =       1.2000000000000000 [-]
	 SCS Same-Spin Energy      =      -0.3381572363283036 [Eh]
	 SCS Opposite-Spin Energy  =      -3.6910794316944755 [Eh]
	 SCS Correlation Energy    =      -4.0292366680227794 [Eh]
	 SCS Total Energy          =   -1331.8906160256856310 [Eh]
	-----------------------------------------------------------

  Dipole Moment: [D]
     X:    -1.0785      Y:     1.8647      Z:     0.6841     Total:     2.2601

*** Psi4 exiting successfully. Buy a developer a beer!
