                               Psi4 1.3.2 release

  ==> Input File <==

--------------------------------------------------------------------------
#psi4
#
memory 32 gb

molecule  {
0 1
  P       -2.2900960    -0.9400430     0.3446780
  O       -0.9985726    -0.1963659     0.9196490
  O        1.3422500    -1.6754830     1.2308510
  O        0.0787050     2.3596040     0.4621680
  O        3.0685150    -2.1870720    -0.8085900
  O        2.8473350     2.5031130     0.3715350
  O        4.1956880     0.4353970    -0.9728740
  O       -2.8268630     0.0333510    -0.8075310
  O       -3.2591210    -0.7232820     1.6216710
  O       -2.1189930    -2.3436440    -0.0996680
  C        0.1181620     0.0300090     0.0163190
  C        0.9532920    -1.2442050    -0.0757250
  C        0.8985890     1.2026440     0.5648510
  C        2.2596600    -1.0143070    -0.8180370
  C        2.1770750     1.3964720    -0.2280410
  C        3.0258420     0.1487050    -0.2103220
  C       -3.1242130     1.4315980    -0.4888860
  C       -3.5363170     2.0851650    -1.7841190
  H       -0.3008746     0.2971747    -0.9632623
  H        0.3702690    -2.0293640    -0.5720320
  H        1.1571200     0.9978770     1.6121560
  H        2.0609340    -0.7886600    -1.8727560
  H        1.9169870     1.6362870    -1.2735830
  H        3.2958550    -0.0945320     0.8276460
  H        0.5217750    -1.8880320     1.7115100
  H        0.6655400     3.1093110     0.6831840
  H        2.9735430    -2.5473740     0.0946540
  H        3.7214290     2.5491860    -0.0588690
  H        4.6397270    -0.4238340    -1.0970870
  H       -3.8083950    -1.5223380     1.7347280
  H       -3.9305460     1.4455410     0.2493860
  H       -2.2297620     1.8928800    -0.0590960
  H       -3.8005210     3.1308820    -1.6026710
  H       -2.7171960     2.0533230    -2.5048750
  H       -4.4009440     1.5743230    -2.2127240
units angstrom
no_reorient  #important for SAPT in psi4, default
symmetry c1  #important for SAPT in psi4, default
}

set PROPERTIES_ORIGIN ["COM"]
properties('MP2/aug-cc-pvtz', properties = ['dipole'])
--------------------------------------------------------------------------

    Molecular point group: c1
  Charge       = 0
  Multiplicity = 1
  Basis Set: AUG-CC-PVTZ
    Blend: AUG-CC-PVTZ
  Basis Set: (AUG-CC-PVTZ AUX)
    Blend: AUG-CC-PVTZ-JKFIT

    Orbital Energies [Eh]
    ---------------------

    Doubly Occupied:

       1A    -80.114697     2A    -20.613857     3A    -20.606269
       4A    -20.596626     5A    -20.584286     6A    -20.577353
       7A    -20.575247     8A    -20.574594     9A    -20.573944
      10A    -20.522337    11A    -11.322074    12A    -11.304630
      13A    -11.300080    14A    -11.299687    15A    -11.298412
      16A    -11.297436    17A    -11.292044    18A    -11.229182
      19A     -7.630468    20A     -5.528968    21A     -5.528659
      22A     -5.527391    23A     -1.462367    24A     -1.411223
      25A     -1.395429    26A     -1.393842    27A     -1.385516
      28A     -1.373908    29A     -1.364605    30A     -1.354514
      31A     -1.302912    32A     -1.120086    33A     -1.039627
      34A     -1.013523    35A     -1.004232    36A     -0.881771
      37A     -0.864429    38A     -0.859836    39A     -0.821708
      40A     -0.810959    41A     -0.752449    42A     -0.746210
      43A     -0.732141    44A     -0.728625    45A     -0.708991
      46A     -0.687637    47A     -0.678639    48A     -0.673481
      49A     -0.662661    50A     -0.661009    51A     -0.644112
      52A     -0.635688    53A     -0.627770    54A     -0.615224
      55A     -0.604058    56A     -0.599074    57A     -0.581732
      58A     -0.575217    59A     -0.571732    60A     -0.559545
      61A     -0.556987    62A     -0.548272    63A     -0.540615
      64A     -0.537080    65A     -0.529275    66A     -0.522397
      67A     -0.512954    68A     -0.504589    69A     -0.496790
      70A     -0.485375    71A     -0.478939    72A     -0.475852
      73A     -0.463089    74A     -0.456436    75A     -0.450761
      76A     -0.436909

  @DF-RHF Final Energy: -1327.86249824776178

   => Energetics <=

    Nuclear Repulsion Energy =           1773.0339122282432527
    One-Electron Energy =               -5358.1907299088425134
    Two-Electron Energy =                2257.2943194328377103
    Total Energy =                      -1327.8624982477617777
  Basis Set: (AUG-CC-PVTZ AUX)
    Blend: AUG-CC-PVTZ-RI
    Molecular point group: c1

    Geometry (in Angstrom), charge = 0, multiplicity = 1:

       Center              X                  Y                   Z               Mass
    ------------   -----------------  -----------------  -----------------  -----------------
         P           -2.289122035148    -0.940325811812     0.345688592358    30.973761998420
         O           -0.997598635148    -0.196648711812     0.920659592358    15.994914619570
         O            1.343223964852    -1.675765811812     1.231861592358    15.994914619570
         O            0.079678964852     2.359321188188     0.463178592358    15.994914619570
         O            3.069488964852    -2.187354811812    -0.807579407642    15.994914619570
         O            2.848308964852     2.502830188188     0.372545592358    15.994914619570
         O            4.196661964852     0.435114188188    -0.971863407642    15.994914619570
         O           -2.825889035148     0.033068188188    -0.806520407642    15.994914619570
         O           -3.258147035148    -0.723564811812     1.622681592358    15.994914619570
         O           -2.118019035148    -2.343926811812    -0.098657407642    15.994914619570
         C            0.119135964852     0.029726188188     0.017329592358    12.000000000000
         C            0.954265964852    -1.244487811812    -0.074714407642    12.000000000000
         C            0.899562964852     1.202361188188     0.565861592358    12.000000000000
         C            2.260633964852    -1.014589811812    -0.817026407642    12.000000000000
         C            2.178048964852     1.396189188188    -0.227030407642    12.000000000000
         C            3.026815964852     0.148422188188    -0.209311407642    12.000000000000
         C           -3.123239035148     1.431315188188    -0.487875407642    12.000000000000
         C           -3.535343035148     2.084882188188    -1.783108407642    12.000000000000
         H           -0.299900635148     0.296891888188    -0.962251707642     1.007825032230
         H            0.371242964852    -2.029646811812    -0.571021407642     1.007825032230
         H            1.158093964852     0.997594188188     1.613166592358     1.007825032230
         H            2.061907964852    -0.788942811812    -1.871745407642     1.007825032230
         H            1.917960964852     1.636004188188    -1.272572407642     1.007825032230
         H            3.296828964852    -0.094814811812     0.828656592358     1.007825032230
         H            0.522748964852    -1.888314811812     1.712520592358     1.007825032230
         H            0.666513964852     3.109028188188     0.684194592358     1.007825032230
         H            2.974516964852    -2.547656811812     0.095664592358     1.007825032230
         H            3.722402964852     2.548903188188    -0.057858407642     1.007825032230
         H            4.640700964852    -0.424116811812    -1.096076407642     1.007825032230
         H           -3.807421035148    -1.522620811812     1.735738592358     1.007825032230
         H           -3.929572035148     1.445258188188     0.250396592358     1.007825032230
         H           -2.228788035148     1.892597188188    -0.058085407642     1.007825032230
         H           -3.799547035148     3.130599188188    -1.601660407642     1.007825032230
         H           -2.716222035148     2.053040188188    -2.503864407642     1.007825032230
         H           -4.399970035148     1.574040188188    -2.211713407642     1.007825032230

  Basis Set: AUG-CC-PVTZ
    Blend: AUG-CC-PVTZ
  Basis Set: (AUG-CC-PVTZ AUX)
    Blend: AUG-CC-PVTZ-JKFIT
	 Reference Energy          =   -1327.8624982477617777 [Eh]
	 Singles Energy            =      -0.0000000000000000 [Eh]
	 Same-Spin Energy          =      -1.0143030285360337 [Eh]
	 Opposite-Spin Energy      =      -3.0753260986280107 [Eh]
	 Correlation Energy        =      -4.0896291271640441 [Eh]
	 Total Energy              =   -1331.9521273749257944 [Eh]

	 ================> DF-SCS-MP2 Energies <==================
	-----------------------------------------------------------
	 SCS Same-Spin Scale       =       0.3333333333333333 [-]
	 SCS Opposite-Spin Scale   =       1.2000000000000000 [-]
	 SCS Same-Spin Energy      =      -0.3381010095120112 [Eh]
	 SCS Opposite-Spin Energy  =      -3.6903913183536128 [Eh]
	 SCS Correlation Energy    =      -4.0284923278656244 [Eh]
	 SCS Total Energy          =   -1331.8909905756274838 [Eh]
	-----------------------------------------------------------

  Dipole Moment: [D]
     X:    -0.9846      Y:     1.8614      Z:     0.7656     Total:     2.2406

*** Psi4 exiting successfully. Buy a developer a beer!
