                               Psi4 1.3.2 release

  ==> Input File <==

--------------------------------------------------------------------------
#psi4
#
memory 32 gb

molecule  {
0 1
  P       -2.2900960    -0.9400430     0.3446780
  O       -0.9738036    -0.2252452     0.9419557
  O        1.3422500    -1.6754830     1.2308510
  O        0.0787050     2.3596040     0.4621680
  O        3.0685150    -2.1870720    -0.8085900
  O        2.8473350     2.5031130     0.3715350
  O        4.1956880     0.4353970    -0.9728740
  O       -2.8268630     0.0333510    -0.8075310
  O       -3.2591210    -0.7232820     1.6216710
  O       -2.1189930    -2.3436440    -0.0996680
  C        0.1181620     0.0300090     0.0163190
  C        0.9368059    -1.2559810    -0.0584296
  C        0.8985890     1.2026440     0.5648510
  C        2.2596600    -1.0143070    -0.8180370
  C        2.1770750     1.3964720    -0.2280410
  C        3.0258420     0.1487050    -0.2103220
  C       -3.1242130     1.4315980    -0.4888860
  C       -3.5363170     2.0851650    -1.7841190
  H       -0.2830920     0.2988010    -0.9702380
  H        0.3702690    -2.0293640    -0.5720320
  H        1.1571200     0.9978770     1.6121560
  H        2.0609340    -0.7886600    -1.8727560
  H        1.9169870     1.6362870    -1.2735830
  H        3.2958550    -0.0945320     0.8276460
  H        0.5217750    -1.8880320     1.7115100
  H        0.6655400     3.1093110     0.6831840
  H        2.9735430    -2.5473740     0.0946540
  H        3.7214290     2.5491860    -0.0588690
  H        4.6397270    -0.4238340    -1.0970870
  H       -3.8083950    -1.5223380     1.7347280
  H       -3.9305460     1.4455410     0.2493860
  H       -2.2297620     1.8928800    -0.0590960
  H       -3.8005210     3.1308820    -1.6026710
  H       -2.7171960     2.0533230    -2.5048750
  H       -4.4009440     1.5743230    -2.2127240
units angstrom
no_reorient  #important for SAPT in psi4, default
symmetry c1  #important for SAPT in psi4, default
}

set PROPERTIES_ORIGIN ["COM"]
properties('MP2/aug-cc-pvtz', properties = ['dipole'])
--------------------------------------------------------------------------

    Molecular point group: c1
  Charge       = 0
  Multiplicity = 1
  Basis Set: AUG-CC-PVTZ
    Blend: AUG-CC-PVTZ
  Basis Set: (AUG-CC-PVTZ AUX)
    Blend: AUG-CC-PVTZ-JKFIT

    Orbital Energies [Eh]
    ---------------------

    Doubly Occupied:

       1A    -80.116488     2A    -20.614535     3A    -20.606295
       4A    -20.599806     5A    -20.584897     6A    -20.576775
       7A    -20.573983     8A    -20.573774     9A    -20.573666
      10A    -20.521884    11A    -11.320376    12A    -11.302376
      13A    -11.299969    14A    -11.299065    15A    -11.298878
      16A    -11.296694    17A    -11.290979    18A    -11.230243
      19A     -7.631972    20A     -5.530475    21A     -5.530106
      22A     -5.528905    23A     -1.460557    24A     -1.412620
      25A     -1.395650    26A     -1.393303    27A     -1.387249
      28A     -1.374241    29A     -1.364638    30A     -1.353909
      31A     -1.302658    32A     -1.116929    33A     -1.040893
      34A     -1.011936    35A     -1.000267    36A     -0.879860
      37A     -0.865178    38A     -0.859137    39A     -0.822257
      40A     -0.810703    41A     -0.752276    42A     -0.745435
      43A     -0.732140    44A     -0.729469    45A     -0.707695
      46A     -0.687768    47A     -0.678440    48A     -0.674017
      49A     -0.661901    50A     -0.660722    51A     -0.643531
      52A     -0.635231    53A     -0.627038    54A     -0.616090
      55A     -0.604141    56A     -0.598492    57A     -0.581416
      58A     -0.575375    59A     -0.572163    60A     -0.559946
      61A     -0.556809    62A     -0.550104    63A     -0.541478
      64A     -0.536560    65A     -0.531292    66A     -0.521457
      67A     -0.512688    68A     -0.503258    69A     -0.497099
      70A     -0.483040    71A     -0.479491    72A     -0.475578
      73A     -0.461363    74A     -0.455734    75A     -0.449519
      76A     -0.435383

  @DF-RHF Final Energy: -1327.86117422774942

   => Energetics <=

    Nuclear Repulsion Energy =           1772.4482473951031807
    One-Electron Energy =               -5357.0423118942562724
    Two-Electron Energy =                2256.7328902714039032
    Total Energy =                      -1327.8611742277494159
  Basis Set: (AUG-CC-PVTZ AUX)
    Blend: AUG-CC-PVTZ-RI
    Molecular point group: c1

    Geometry (in Angstrom), charge = 0, multiplicity = 1:

       Center              X                  Y                   Z               Mass
    ------------   -----------------  -----------------  -----------------  -----------------
         P           -2.289872801740    -0.938237383069     0.343753904081    30.973761998420
         O           -0.973580401740    -0.223439583069     0.941031604081    15.994914619570
         O            1.342473198260    -1.673677383069     1.229926904081    15.994914619570
         O            0.078928198260     2.361409616931     0.461243904081    15.994914619570
         O            3.068738198260    -2.185266383069    -0.809514095919    15.994914619570
         O            2.847558198260     2.504918616931     0.370610904081    15.994914619570
         O            4.195911198260     0.437202616931    -0.973798095919    15.994914619570
         O           -2.826639801740     0.035156616931    -0.808455095919    15.994914619570
         O           -3.258897801740    -0.721476383069     1.620746904081    15.994914619570
         O           -2.118769801740    -2.341838383069    -0.100592095919    15.994914619570
         C            0.118385198260     0.031814616931     0.015394904081    12.000000000000
         C            0.937029098260    -1.254175383069    -0.059353695919    12.000000000000
         C            0.898812198260     1.204449616931     0.563926904081    12.000000000000
         C            2.259883198260    -1.012501383069    -0.818961095919    12.000000000000
         C            2.177298198260     1.398277616931    -0.228965095919    12.000000000000
         C            3.026065198260     0.150510616931    -0.211246095919    12.000000000000
         C           -3.123989801740     1.433403616931    -0.489810095919    12.000000000000
         C           -3.536093801740     2.086970616931    -1.785043095919    12.000000000000
         H           -0.282868801740     0.300606616931    -0.971162095919     1.007825032230
         H            0.370492198260    -2.027558383069    -0.572956095919     1.007825032230
         H            1.157343198260     0.999682616931     1.611231904081     1.007825032230
         H            2.061157198260    -0.786854383069    -1.873680095919     1.007825032230
         H            1.917210198260     1.638092616931    -1.274507095919     1.007825032230
         H            3.296078198260    -0.092726383069     0.826721904081     1.007825032230
         H            0.521998198260    -1.886226383069     1.710585904081     1.007825032230
         H            0.665763198260     3.111116616931     0.682259904081     1.007825032230
         H            2.973766198260    -2.545568383069     0.093729904081     1.007825032230
         H            3.721652198260     2.550991616931    -0.059793095919     1.007825032230
         H            4.639950198260    -0.422028383069    -1.098011095919     1.007825032230
         H           -3.808171801740    -1.520532383069     1.733803904081     1.007825032230
         H           -3.930322801740     1.447346616931     0.248461904081     1.007825032230
         H           -2.229538801740     1.894685616931    -0.060020095919     1.007825032230
         H           -3.800297801740     3.132687616931    -1.603595095919     1.007825032230
         H           -2.716972801740     2.055128616931    -2.505799095919     1.007825032230
         H           -4.400720801740     1.576128616931    -2.213648095919     1.007825032230

  Basis Set: AUG-CC-PVTZ
    Blend: AUG-CC-PVTZ
  Basis Set: (AUG-CC-PVTZ AUX)
    Blend: AUG-CC-PVTZ-JKFIT
	 Reference Energy          =   -1327.8611742277494159 [Eh]
	 Singles Energy            =      -0.0000000000000000 [Eh]
	 Same-Spin Energy          =      -1.0144540503513921 [Eh]
	 Opposite-Spin Energy      =      -3.0757331950810780 [Eh]
	 Correlation Energy        =      -4.0901872454324701 [Eh]
	 Total Energy              =   -1331.9513614731818052 [Eh]

	 ================> DF-SCS-MP2 Energies <==================
	-----------------------------------------------------------
	 SCS Same-Spin Scale       =       0.3333333333333333 [-]
	 SCS Opposite-Spin Scale   =       1.2000000000000000 [-]
	 SCS Same-Spin Energy      =      -0.3381513501171307 [Eh]
	 SCS Opposite-Spin Energy  =      -3.6908798340972933 [Eh]
	 SCS Correlation Energy    =      -4.0290311842144240 [Eh]
	 SCS Total Energy          =   -1331.8902054119637342 [Eh]
	-----------------------------------------------------------

  Dipole Moment: [D]
     X:    -1.1305      Y:     1.9069      Z:     0.7544     Total:     2.3417

*** Psi4 exiting successfully. Buy a developer a beer!
