                               Psi4 1.3.2 release

  ==> Input File <==

--------------------------------------------------------------------------
#psi4
#
memory 32 gb

molecule  {
0 1
  P       -2.2900960    -0.9400430     0.3446780
  O       -0.9821530    -0.2015620     0.9382890
  O        1.3422500    -1.6754830     1.2308510
  O        0.0787050     2.3596040     0.4621680
  O        3.0685150    -2.1870720    -0.8085900
  O        2.8463087     2.5094427     0.3608704
  O        4.1956880     0.4353970    -0.9728740
  O       -2.8268630     0.0333510    -0.8075310
  O       -3.2591210    -0.7232820     1.6216710
  O       -2.1189930    -2.3436440    -0.0996680
  C        0.1181620     0.0300090     0.0163190
  C        0.9532920    -1.2442050    -0.0757250
  C        0.8985890     1.2026440     0.5648510
  C        2.2596600    -1.0143070    -0.8180370
  C        2.1770750     1.3964720    -0.2280410
  C        3.0258420     0.1487050    -0.2103220
  C       -3.1242130     1.4315980    -0.4888860
  C       -3.5363170     2.0851650    -1.7841190
  H       -0.2830920     0.2988010    -0.9702380
  H        0.3702690    -2.0293640    -0.5720320
  H        1.1571200     0.9978770     1.6121560
  H        2.0609340    -0.7886600    -1.8727560
  H        1.9209902     1.6449855    -1.2725393
  H        3.2958550    -0.0945320     0.8276460
  H        0.5217750    -1.8880320     1.7115100
  H        0.6655400     3.1093110     0.6831840
  H        2.9735430    -2.5473740     0.0946540
  H        3.7214290     2.5491860    -0.0588690
  H        4.6397270    -0.4238340    -1.0970870
  H       -3.8083950    -1.5223380     1.7347280
  H       -3.9305460     1.4455410     0.2493860
  H       -2.2297620     1.8928800    -0.0590960
  H       -3.8005210     3.1308820    -1.6026710
  H       -2.7171960     2.0533230    -2.5048750
  H       -4.4009440     1.5743230    -2.2127240
units angstrom
no_reorient  #important for SAPT in psi4, default
symmetry c1  #important for SAPT in psi4, default
}

set PROPERTIES_ORIGIN ["COM"]
properties('MP2/aug-cc-pvtz', properties = ['dipole'])
--------------------------------------------------------------------------

    Molecular point group: c1
  Charge       = 0
  Multiplicity = 1
  Basis Set: AUG-CC-PVTZ
    Blend: AUG-CC-PVTZ
  Basis Set: (AUG-CC-PVTZ AUX)
    Blend: AUG-CC-PVTZ-JKFIT

    Orbital Energies [Eh]
    ---------------------

    Doubly Occupied:

       1A    -80.117002     2A    -20.614781     3A    -20.607123
       4A    -20.598972     5A    -20.583252     6A    -20.575964
       7A    -20.574741     8A    -20.574191     9A    -20.573497
      10A    -20.523489    11A    -11.320897    12A    -11.303649
      13A    -11.299519    14A    -11.299402    15A    -11.298850
      16A    -11.296671    17A    -11.291759    18A    -11.229864
      19A     -7.632452    20A     -5.530958    21A     -5.530585
      22A     -5.529383    23A     -1.460350    24A     -1.410940
      25A     -1.394869    26A     -1.393132    27A     -1.386898
      28A     -1.372831    29A     -1.364160    30A     -1.354078
      31A     -1.303885    32A     -1.119187    33A     -1.040473
      34A     -1.012167    35A     -1.003619    36A     -0.880451
      37A     -0.864996    38A     -0.859203    39A     -0.822538
      40A     -0.810750    41A     -0.751690    42A     -0.745394
      43A     -0.731515    44A     -0.728770    45A     -0.708233
      46A     -0.687221    47A     -0.678269    48A     -0.673741
      49A     -0.662319    50A     -0.661228    51A     -0.643260
      52A     -0.635045    53A     -0.627334    54A     -0.615489
      55A     -0.604020    56A     -0.598566    57A     -0.581863
      58A     -0.575603    59A     -0.571233    60A     -0.559356
      61A     -0.556639    62A     -0.548612    63A     -0.541192
      64A     -0.536538    65A     -0.529958    66A     -0.521821
      67A     -0.512911    68A     -0.504378    69A     -0.497080
      70A     -0.484922    71A     -0.479875    72A     -0.476671
      73A     -0.462233    74A     -0.456035    75A     -0.450096
      76A     -0.436522

  @DF-RHF Final Energy: -1327.86175818638912

   => Energetics <=

    Nuclear Repulsion Energy =           1772.3648832536316604
    One-Electron Energy =               -5356.8589640260652232
    Two-Electron Energy =                2256.6323225860442108
    Total Energy =                      -1327.8617581863891246
  Basis Set: (AUG-CC-PVTZ AUX)
    Blend: AUG-CC-PVTZ-RI
    Molecular point group: c1

    Geometry (in Angstrom), charge = 0, multiplicity = 1:

       Center              X                  Y                   Z               Mass
    ------------   -----------------  -----------------  -----------------  -----------------
         P           -2.290052986495    -0.940424879111     0.345266503231    30.973761998420
         O           -0.982109986495    -0.201943879111     0.938877503231    15.994914619570
         O            1.342293013505    -1.675864879111     1.231439503231    15.994914619570
         O            0.078748013505     2.359222120889     0.462756503231    15.994914619570
         O            3.068558013505    -2.187453879111    -0.808001496769    15.994914619570
         O            2.846351713505     2.509060820889     0.361458903231    15.994914619570
         O            4.195731013505     0.435015120889    -0.972285496769    15.994914619570
         O           -2.826819986495     0.032969120889    -0.806942496769    15.994914619570
         O           -3.259077986495    -0.723663879111     1.622259503231    15.994914619570
         O           -2.118949986495    -2.344025879111    -0.099079496769    15.994914619570
         C            0.118205013505     0.029627120889     0.016907503231    12.000000000000
         C            0.953335013505    -1.244586879111    -0.075136496769    12.000000000000
         C            0.898632013505     1.202262120889     0.565439503231    12.000000000000
         C            2.259703013505    -1.014688879111    -0.817448496769    12.000000000000
         C            2.177118013505     1.396090120889    -0.227452496769    12.000000000000
         C            3.025885013505     0.148323120889    -0.209733496769    12.000000000000
         C           -3.124169986495     1.431216120889    -0.488297496769    12.000000000000
         C           -3.536273986495     2.084783120889    -1.783530496769    12.000000000000
         H           -0.283048986495     0.298419120889    -0.969649496769     1.007825032230
         H            0.370312013505    -2.029745879111    -0.571443496769     1.007825032230
         H            1.157163013505     0.997495120889     1.612744503231     1.007825032230
         H            2.060977013505    -0.789041879111    -1.872167496769     1.007825032230
         H            1.921033213505     1.644603620889    -1.271950796769     1.007825032230
         H            3.295898013505    -0.094913879111     0.828234503231     1.007825032230
         H            0.521818013505    -1.888413879111     1.712098503231     1.007825032230
         H            0.665583013505     3.108929120889     0.683772503231     1.007825032230
         H            2.973586013505    -2.547755879111     0.095242503231     1.007825032230
         H            3.721472013505     2.548804120889    -0.058280496769     1.007825032230
         H            4.639770013505    -0.424215879111    -1.096498496769     1.007825032230
         H           -3.808351986495    -1.522719879111     1.735316503231     1.007825032230
         H           -3.930502986495     1.445159120889     0.249974503231     1.007825032230
         H           -2.229718986495     1.892498120889    -0.058507496769     1.007825032230
         H           -3.800477986495     3.130500120889    -1.602082496769     1.007825032230
         H           -2.717152986495     2.052941120889    -2.504286496769     1.007825032230
         H           -4.400900986495     1.573941120889    -2.212135496769     1.007825032230

  Basis Set: AUG-CC-PVTZ
    Blend: AUG-CC-PVTZ
  Basis Set: (AUG-CC-PVTZ AUX)
    Blend: AUG-CC-PVTZ-JKFIT
	 Reference Energy          =   -1327.8617581863891246 [Eh]
	 Singles Energy            =      -0.0000000000000000 [Eh]
	 Same-Spin Energy          =      -1.0145159126601471 [Eh]
	 Opposite-Spin Energy      =      -3.0759001520359091 [Eh]
	 Correlation Energy        =      -4.0904160646960559 [Eh]
	 Total Energy              =   -1331.9521742510851254 [Eh]

	 ================> DF-SCS-MP2 Energies <==================
	-----------------------------------------------------------
	 SCS Same-Spin Scale       =       0.3333333333333333 [-]
	 SCS Opposite-Spin Scale   =       1.2000000000000000 [-]
	 SCS Same-Spin Energy      =      -0.3381719708867157 [Eh]
	 SCS Opposite-Spin Energy  =      -3.6910801824430908 [Eh]
	 SCS Correlation Energy    =      -4.0292521533298062 [Eh]
	 SCS Total Energy          =   -1331.8910103397188323 [Eh]
	-----------------------------------------------------------

  Dipole Moment: [D]
     X:    -1.1136      Y:     1.8427      Z:     0.7382     Total:     2.2761

*** Psi4 exiting successfully. Buy a developer a beer!
