                               Psi4 1.4a3.dev225

  ==> Input File <==

--------------------------------------------------------------------------
#psi4
#
memory 32 gb

molecule  {
0 1
  P       -2.3219140    -1.0563120    -0.0968450
  O       -1.0285840    -0.5623410     0.7549430
  O        1.3695440    -1.8069540     1.2202350
  O       -0.1592450     2.1412630     0.5207450
  O        3.3269040    -2.0858120    -0.6453880
  O        2.5724350     2.5270130     0.6374560
  O        4.2203020     0.6406430    -0.6358120
  O       -2.8737010     0.2643620    -0.8096810
  O       -3.3065970    -1.3497020     1.1531960
  O       -2.1117974    -2.1434631    -1.0033759
  C        0.1200290    -0.1583450    -0.0432010
  C        1.0698050    -1.3527180    -0.1046720
  C        0.7441670     1.0454510     0.6308160
  C        2.4193320    -0.9866070    -0.7068450
  C        2.0603010     1.3853380    -0.0470020
  C        3.0180900     0.2181970     0.0056710
  C       -3.2473180     1.4231610     0.0025120
  C       -3.2076300     2.6262440    -0.9075720
  H       -0.2047330     0.1313700    -1.0514980
  H        0.5965010    -2.1549610    -0.6866410
  H        0.9371260     0.8063110     1.6860210
  H        2.3054700    -0.7437210    -1.7704410
  H        1.8633300     1.6367370    -1.1028410
  H        3.2142070    -0.0417910     1.0561650
  H        0.5126160    -2.0057500     1.6426110
  H        0.3598300     2.9232990     0.7925780
  H        3.1793900    -2.4823080     0.2360710
  H        3.4672560     2.6739710     0.2770410
  H        4.7639490    -0.1654590    -0.7244900
  H       -3.7873380    -2.1826420     0.9908450
  H       -4.2474700     1.2335250     0.4005830
  H       -2.5352900     1.5309660     0.8217280
  H       -3.5402110     3.5125760    -0.3587690
  H       -2.1856630     2.7912820    -1.2511950
  H       -3.8637180     2.4807570    -1.7684970
units angstrom
no_reorient  #important for SAPT in psi4, default
symmetry c1  #important for SAPT in psi4, default
}

set PROPERTIES_ORIGIN ["COM"]
properties('MP2/aug-cc-pvtz', properties = ['dipole'])
--------------------------------------------------------------------------

    Molecular point group: c1
  Charge       = 0
  Multiplicity = 1
  Basis Set: AUG-CC-PVTZ
    Blend: AUG-CC-PVTZ
  Basis Set: (AUG-CC-PVTZ AUX)
    Blend: AUG-CC-PVTZ-JKFIT

    Orbital Energies [Eh]
    ---------------------

    Doubly Occupied:

       1A    -80.106823     2A    -20.611439     3A    -20.604850
       4A    -20.592875     5A    -20.583904     6A    -20.578104
       7A    -20.575176     8A    -20.575162     9A    -20.573853
      10A    -20.520988    11A    -11.320406    12A    -11.305260
      13A    -11.300232    14A    -11.299842    15A    -11.297904
      16A    -11.294247    17A    -11.292799    18A    -11.221666
      19A     -7.624609    20A     -5.522819    21A     -5.522384
      22A     -5.522024    23A     -1.458650    24A     -1.410281
      25A     -1.394728    26A     -1.391575    27A     -1.382601
      28A     -1.371748    29A     -1.363868    30A     -1.353983
      31A     -1.323955    32A     -1.118248    33A     -1.033803
      34A     -1.010671    35A     -1.003251    36A     -0.876165
      37A     -0.860833    38A     -0.859136    39A     -0.820755
      40A     -0.809436    41A     -0.753646    42A     -0.745276
      43A     -0.728147    44A     -0.725402    45A     -0.704480
      46A     -0.685917    47A     -0.678400    48A     -0.673935
      49A     -0.662235    50A     -0.659146    51A     -0.641161
      52A     -0.637561    53A     -0.623300    54A     -0.612135
      55A     -0.603263    56A     -0.596742    57A     -0.584562
      58A     -0.577338    59A     -0.569250    60A     -0.560598
      61A     -0.557130    62A     -0.547420    63A     -0.538399
      64A     -0.537713    65A     -0.528874    66A     -0.518061
      67A     -0.507601    68A     -0.502911    69A     -0.498165
      70A     -0.488985    71A     -0.485894    72A     -0.477363
      73A     -0.463809    74A     -0.456891    75A     -0.450922
      76A     -0.436913

  @DF-RHF Final Energy: -1327.86301552799387

   => Energetics <=

    Nuclear Repulsion Energy =           1777.2255848701445302
    One-Electron Energy =               -5366.7560108678462711
    Two-Electron Energy =                2261.6674104697081020
    Total Energy =                      -1327.8630155279938663
  Basis Set: (AUG-CC-PVTZ AUX)
    Blend: AUG-CC-PVTZ-RI
    Molecular point group: c1

    Geometry (in Angstrom), charge = 0, multiplicity = 1:

       Center              X                  Y                   Z               Mass
    ------------   -----------------  -----------------  -----------------  -----------------
         P           -2.310744977522    -1.020642095776    -0.101048217955    30.973761998420
         O           -1.017414977522    -0.526671095776     0.750739782045    15.994914619570
         O            1.380713022478    -1.771284095776     1.216031782045    15.994914619570
         O           -0.148075977522     2.176932904224     0.516541782045    15.994914619570
         O            3.338073022478    -2.050142095776    -0.649591217955    15.994914619570
         O            2.583604022478     2.562682904224     0.633252782045    15.994914619570
         O            4.231471022478     0.676312904224    -0.640015217955    15.994914619570
         O           -2.862531977522     0.300031904224    -0.813884217955    15.994914619570
         O           -3.295427977522    -1.314032095776     1.148992782045    15.994914619570
         O           -2.100628377522    -2.107793195776    -1.007579117955    15.994914619570
         C            0.131198022478    -0.122675095776    -0.047404217955    12.000000000000
         C            1.080974022478    -1.317048095776    -0.108875217955    12.000000000000
         C            0.755336022478     1.081120904224     0.626612782045    12.000000000000
         C            2.430501022478    -0.950937095776    -0.711048217955    12.000000000000
         C            2.071470022478     1.421007904224    -0.051205217955    12.000000000000
         C            3.029259022478     0.253866904224     0.001467782045    12.000000000000
         C           -3.236148977522     1.458830904224    -0.001691217955    12.000000000000
         C           -3.196460977522     2.661913904224    -0.911775217955    12.000000000000
         H           -0.193563977522     0.167039904224    -1.055701217955     1.007825032230
         H            0.607670022478    -2.119291095776    -0.690844217955     1.007825032230
         H            0.948295022478     0.841980904224     1.681817782045     1.007825032230
         H            2.316639022478    -0.708051095776    -1.774644217955     1.007825032230
         H            1.874499022478     1.672406904224    -1.107044217955     1.007825032230
         H            3.225376022478    -0.006121095776     1.051961782045     1.007825032230
         H            0.523785022478    -1.970080095776     1.638407782045     1.007825032230
         H            0.370999022478     2.958968904224     0.788374782045     1.007825032230
         H            3.190559022478    -2.446638095776     0.231867782045     1.007825032230
         H            3.478425022478     2.709640904224     0.272837782045     1.007825032230
         H            4.775118022478    -0.129789095776    -0.728693217955     1.007825032230
         H           -3.776168977522    -2.146972095776     0.986641782045     1.007825032230
         H           -4.236300977522     1.269194904224     0.396379782045     1.007825032230
         H           -2.524120977522     1.566635904224     0.817524782045     1.007825032230
         H           -3.529041977522     3.548245904224    -0.362972217955     1.007825032230
         H           -2.174493977522     2.826951904224    -1.255398217955     1.007825032230
         H           -3.852548977522     2.516426904224    -1.772700217955     1.007825032230

  Basis Set: AUG-CC-PVTZ
    Blend: AUG-CC-PVTZ
  Basis Set: (AUG-CC-PVTZ AUX)
    Blend: AUG-CC-PVTZ-JKFIT
	 Reference Energy          =   -1327.8630155279938663 [Eh]
	 Singles Energy            =      -0.0000000000000000 [Eh]
	 Same-Spin Energy          =      -1.0135116988559727 [Eh]
	 Opposite-Spin Energy      =      -3.0737813166574552 [Eh]
	 Correlation Energy        =      -4.0872930155134277 [Eh]
	 Total Energy              =   -1331.9503085435073899 [Eh]

	 ================> DF-SCS-MP2 Energies <==================
	-----------------------------------------------------------
	 SCS Same-Spin Scale       =       0.3333333333333333 [-]
	 SCS Opposite-Spin Scale   =       1.2000000000000000 [-]
	 SCS Same-Spin Energy      =      -0.3378372329519909 [Eh]
	 SCS Opposite-Spin Energy  =      -3.6885375799889459 [Eh]
	 SCS Correlation Energy    =      -4.0263748129409365 [Eh]
	 SCS Total Energy          =   -1331.8893903409348241 [Eh]
	-----------------------------------------------------------

  Dipole Moment: [D]
     X:    -0.8452      Y:     1.2189      Z:     1.7376     Total:     2.2846

*** Psi4 exiting successfully. Buy a developer a beer!
