                               Psi4 1.3.2 release

  ==> Input File <==

--------------------------------------------------------------------------
#psi4
#
memory 32 gb

molecule  {
0 1
  P       -2.2907277    -0.9294853     0.3538068
  O       -0.9821530    -0.2015620     0.9382890
  O        1.3422500    -1.6754830     1.2308510
  O        0.0787050     2.3596040     0.4621680
  O        3.0685150    -2.1870720    -0.8085900
  O        2.8473350     2.5031130     0.3715350
  O        4.1956880     0.4353970    -0.9728740
  O       -2.8268630     0.0333510    -0.8075310
  O       -3.2591210    -0.7232820     1.6216710
  O       -2.1189930    -2.3436440    -0.0996680
  C        0.1181620     0.0300090     0.0163190
  C        0.9532920    -1.2442050    -0.0757250
  C        0.8985890     1.2026440     0.5648510
  C        2.2596600    -1.0143070    -0.8180370
  C        2.1770750     1.3964720    -0.2280410
  C        3.0258420     0.1487050    -0.2103220
  C       -3.1207461     1.4295139    -0.4767620
  C       -3.5363170     2.0851650    -1.7841190
  H       -0.2830920     0.2988010    -0.9702380
  H        0.3702690    -2.0293640    -0.5720320
  H        1.1571200     0.9978770     1.6121560
  H        2.0609340    -0.7886600    -1.8727560
  H        1.9169870     1.6362870    -1.2735830
  H        3.2958550    -0.0945320     0.8276460
  H        0.5217750    -1.8880320     1.7115100
  H        0.6655400     3.1093110     0.6831840
  H        2.9735430    -2.5473740     0.0946540
  H        3.7214290     2.5491860    -0.0588690
  H        4.6397270    -0.4238340    -1.0970870
  H       -3.8083950    -1.5223380     1.7347280
  H       -3.9305460     1.4455410     0.2493860
  H       -2.2297620     1.8928800    -0.0590960
  H       -3.8005210     3.1308820    -1.6026710
  H       -2.7171960     2.0533230    -2.5048750
  H       -4.4009440     1.5743230    -2.2127240
units angstrom
no_reorient  #important for SAPT in psi4, default
symmetry c1  #important for SAPT in psi4, default
}

set PROPERTIES_ORIGIN ["COM"]
properties('MP2/aug-cc-pvtz', properties = ['dipole'])
--------------------------------------------------------------------------

    Molecular point group: c1
  Charge       = 0
  Multiplicity = 1
  Basis Set: AUG-CC-PVTZ
    Blend: AUG-CC-PVTZ
  Basis Set: (AUG-CC-PVTZ AUX)
    Blend: AUG-CC-PVTZ-JKFIT

    Orbital Energies [Eh]
    ---------------------

    Doubly Occupied:

       1A    -80.117132     2A    -20.616584     3A    -20.608378
       4A    -20.599560     5A    -20.583246     6A    -20.577105
       7A    -20.574693     8A    -20.574253     9A    -20.574023
      10A    -20.520506    11A    -11.321733    12A    -11.303623
      13A    -11.299483    14A    -11.299177    15A    -11.299057
      16A    -11.297059    17A    -11.291636    18A    -11.230283
      19A     -7.632463    20A     -5.531019    21A     -5.530629
      22A     -5.529303    23A     -1.462761    24A     -1.411783
      25A     -1.396264    26A     -1.393665    27A     -1.388501
      28A     -1.373599    29A     -1.364237    30A     -1.354135
      31A     -1.295974    32A     -1.119635    33A     -1.037992
      34A     -1.012874    35A     -1.003732    36A     -0.881277
      37A     -0.865895    38A     -0.859472    39A     -0.824432
      40A     -0.811094    41A     -0.752370    42A     -0.746448
      43A     -0.732542    44A     -0.729806    45A     -0.709106
      46A     -0.687763    47A     -0.678461    48A     -0.674508
      49A     -0.663156    50A     -0.661714    51A     -0.644000
      52A     -0.635590    53A     -0.627717    54A     -0.615593
      55A     -0.604568    56A     -0.598643    57A     -0.580599
      58A     -0.576111    59A     -0.571074    60A     -0.559042
      61A     -0.556180    62A     -0.548383    63A     -0.541004
      64A     -0.536637    65A     -0.530876    66A     -0.521184
      67A     -0.512422    68A     -0.504413    69A     -0.496949
      70A     -0.485587    71A     -0.479133    72A     -0.472371
      73A     -0.461703    74A     -0.456177    75A     -0.450044
      76A     -0.436146

  @DF-RHF Final Energy: -1327.86109854050096

   => Energetics <=

    Nuclear Repulsion Energy =           1772.6894340328435646
    One-Electron Energy =               -5357.4884903987795042
    Two-Electron Energy =                2256.9379578254347507
    Total Energy =                      -1327.8610985405011888
  Basis Set: (AUG-CC-PVTZ AUX)
    Blend: AUG-CC-PVTZ-RI
    Molecular point group: c1

    Geometry (in Angstrom), charge = 0, multiplicity = 1:

       Center              X                  Y                   Z               Mass
    ------------   -----------------  -----------------  -----------------  -----------------
         P           -2.290804167189    -0.930533679946     0.352320156862    30.973761998420
         O           -0.982229467189    -0.202610379946     0.936802356862    15.994914619570
         O            1.342173532811    -1.676531379946     1.229364356862    15.994914619570
         O            0.078628532811     2.358555620054     0.460681356862    15.994914619570
         O            3.068438532811    -2.188120379946    -0.810076643138    15.994914619570
         O            2.847258532811     2.502064620054     0.370048356862    15.994914619570
         O            4.195611532811     0.434348620054    -0.974360643138    15.994914619570
         O           -2.826939467189     0.032302620054    -0.809017643138    15.994914619570
         O           -3.259197467189    -0.724330379946     1.620184356862    15.994914619570
         O           -2.119069467189    -2.344692379946    -0.101154643138    15.994914619570
         C            0.118085532811     0.028960620054     0.014832356862    12.000000000000
         C            0.953215532811    -1.245253379946    -0.077211643138    12.000000000000
         C            0.898512532811     1.201595620054     0.563364356862    12.000000000000
         C            2.259583532811    -1.015355379946    -0.819523643138    12.000000000000
         C            2.176998532811     1.395423620054    -0.229527643138    12.000000000000
         C            3.025765532811     0.147656620054    -0.211808643138    12.000000000000
         C           -3.120822567189     1.428465520054    -0.478248643138    12.000000000000
         C           -3.536393467189     2.084116620054    -1.785605643138    12.000000000000
         H           -0.283168467189     0.297752620054    -0.971724643138     1.007825032230
         H            0.370192532811    -2.030412379946    -0.573518643138     1.007825032230
         H            1.157043532811     0.996828620054     1.610669356862     1.007825032230
         H            2.060857532811    -0.789708379946    -1.874242643138     1.007825032230
         H            1.916910532811     1.635238620054    -1.275069643138     1.007825032230
         H            3.295778532811    -0.095580379946     0.826159356862     1.007825032230
         H            0.521698532811    -1.889080379946     1.710023356862     1.007825032230
         H            0.665463532811     3.108262620054     0.681697356862     1.007825032230
         H            2.973466532811    -2.548422379946     0.093167356862     1.007825032230
         H            3.721352532811     2.548137620054    -0.060355643138     1.007825032230
         H            4.639650532811    -0.424882379946    -1.098573643138     1.007825032230
         H           -3.808471467189    -1.523386379946     1.733241356862     1.007825032230
         H           -3.930622467189     1.444492620054     0.247899356862     1.007825032230
         H           -2.229838467189     1.891831620054    -0.060582643138     1.007825032230
         H           -3.800597467189     3.129833620054    -1.604157643138     1.007825032230
         H           -2.717272467189     2.052274620054    -2.506361643138     1.007825032230
         H           -4.401020467189     1.573274620054    -2.214210643138     1.007825032230

  Basis Set: AUG-CC-PVTZ
    Blend: AUG-CC-PVTZ
  Basis Set: (AUG-CC-PVTZ AUX)
    Blend: AUG-CC-PVTZ-JKFIT
	 Reference Energy          =   -1327.8610985405009615 [Eh]
	 Singles Energy            =      -0.0000000000000000 [Eh]
	 Same-Spin Energy          =      -1.0146160912456430 [Eh]
	 Opposite-Spin Energy      =      -3.0761139625243232 [Eh]
	 Correlation Energy        =      -4.0907300537699660 [Eh]
	 Total Energy              =   -1331.9518285942708644 [Eh]

	 ================> DF-SCS-MP2 Energies <==================
	-----------------------------------------------------------
	 SCS Same-Spin Scale       =       0.3333333333333333 [-]
	 SCS Opposite-Spin Scale   =       1.2000000000000000 [-]
	 SCS Same-Spin Energy      =      -0.3382053637485476 [Eh]
	 SCS Opposite-Spin Energy  =      -3.6913367550291878 [Eh]
	 SCS Correlation Energy    =      -4.0295421187777354 [Eh]
	 SCS Total Energy          =   -1331.8906406592786880 [Eh]
	-----------------------------------------------------------

  Dipole Moment: [D]
     X:    -1.0957      Y:     1.9491      Z:     0.8122     Total:     2.3789

*** Psi4 exiting successfully. Buy a developer a beer!
