                               Psi4 1.3.2 release

  ==> Input File <==

--------------------------------------------------------------------------
#psi4
#
memory 32 gb

molecule  {
0 1
  P       -2.2900960    -0.9400430     0.3446780
  O       -0.9821530    -0.2015620     0.9382890
  O        1.3422500    -1.6754830     1.2308510
  O        0.0787050     2.3596040     0.4621680
  O        3.0685150    -2.1870720    -0.8085900
  O        2.8670066     2.4885230     0.3759566
  O        4.1956880     0.4353970    -0.9728740
  O       -2.8268630     0.0333510    -0.8075310
  O       -3.2591210    -0.7232820     1.6216710
  O       -2.1189930    -2.3436440    -0.0996680
  C        0.1181620     0.0300090     0.0163190
  C        0.9532920    -1.2442050    -0.0757250
  C        0.8985890     1.2026440     0.5648510
  C        2.2596600    -1.0143070    -0.8180370
  C        2.1770750     1.3964720    -0.2280410
  C        3.0449951     0.1621827    -0.1982679
  C       -3.1242130     1.4315980    -0.4888860
  C       -3.5363170     2.0851650    -1.7841190
  H       -0.2830920     0.2988010    -0.9702380
  H        0.3702690    -2.0293640    -0.5720320
  H        1.1571200     0.9978770     1.6121560
  H        2.0609340    -0.7886600    -1.8727560
  H        1.9169870     1.6362870    -1.2735830
  H        3.2958550    -0.0945320     0.8276460
  H        0.5217750    -1.8880320     1.7115100
  H        0.6655400     3.1093110     0.6831840
  H        2.9735430    -2.5473740     0.0946540
  H        3.7214290     2.5491860    -0.0588690
  H        4.6397270    -0.4238340    -1.0970870
  H       -3.8083950    -1.5223380     1.7347280
  H       -3.9305460     1.4455410     0.2493860
  H       -2.2297620     1.8928800    -0.0590960
  H       -3.8005210     3.1308820    -1.6026710
  H       -2.7171960     2.0533230    -2.5048750
  H       -4.4009440     1.5743230    -2.2127240
units angstrom
no_reorient  #important for SAPT in psi4, default
symmetry c1  #important for SAPT in psi4, default
}

set PROPERTIES_ORIGIN ["COM"]
properties('MP2/aug-cc-pvtz', properties = ['dipole'])
--------------------------------------------------------------------------

    Molecular point group: c1
  Charge       = 0
  Multiplicity = 1
  Basis Set: AUG-CC-PVTZ
    Blend: AUG-CC-PVTZ
  Basis Set: (AUG-CC-PVTZ AUX)
    Blend: AUG-CC-PVTZ-JKFIT

    Orbital Energies [Eh]
    ---------------------

    Doubly Occupied:

       1A    -80.116918     2A    -20.614715     3A    -20.607011
       4A    -20.598952     5A    -20.582781     6A    -20.574661
       7A    -20.574145     8A    -20.574049     9A    -20.573716
      10A    -20.523359    11A    -11.320764    12A    -11.302858
      13A    -11.299457    14A    -11.299132    15A    -11.298826
      16A    -11.296538    17A    -11.290256    18A    -11.229932
      19A     -7.632367    20A     -5.530873    21A     -5.530500
      22A     -5.529297    23A     -1.460267    24A     -1.411021
      25A     -1.396352    26A     -1.392836    27A     -1.386907
      28A     -1.373927    29A     -1.364512    30A     -1.355309
      31A     -1.303758    32A     -1.117169    33A     -1.040490
      34A     -1.010731    35A     -1.002081    36A     -0.880240
      37A     -0.865058    38A     -0.858407    39A     -0.822928
      40A     -0.810630    41A     -0.752247    42A     -0.745593
      43A     -0.731559    44A     -0.728866    45A     -0.709012
      46A     -0.687277    47A     -0.677680    48A     -0.674085
      49A     -0.663270    50A     -0.660704    51A     -0.644596
      52A     -0.635815    53A     -0.627148    54A     -0.614986
      55A     -0.603517    56A     -0.599123    57A     -0.581895
      58A     -0.575563    59A     -0.570982    60A     -0.559279
      61A     -0.556603    62A     -0.548524    63A     -0.541106
      64A     -0.536010    65A     -0.530097    66A     -0.522033
      67A     -0.513172    68A     -0.505171    69A     -0.497159
      70A     -0.484959    71A     -0.479835    72A     -0.476537
      73A     -0.462927    74A     -0.456314    75A     -0.449914
      76A     -0.430743

  @DF-RHF Final Energy: -1327.86204442334019

   => Energetics <=

    Nuclear Repulsion Energy =           1772.1428407459293339
    One-Electron Energy =               -5356.4337111285612991
    Two-Electron Energy =                2256.4288259592917711
    Total Energy =                      -1327.8620444233401940
  Basis Set: (AUG-CC-PVTZ AUX)
    Blend: AUG-CC-PVTZ-RI
    Molecular point group: c1

    Geometry (in Angstrom), charge = 0, multiplicity = 1:

       Center              X                  Y                   Z               Mass
    ------------   -----------------  -----------------  -----------------  -----------------
         P           -2.291986131840    -0.939794307915     0.343930328642    30.973761998420
         O           -0.984043131840    -0.201313307915     0.937541328642    15.994914619570
         O            1.340359868160    -1.675234307915     1.230103328642    15.994914619570
         O            0.076814868160     2.359852692085     0.461420328642    15.994914619570
         O            3.066624868160    -2.186823307915    -0.809337671358    15.994914619570
         O            2.865116468160     2.488771692085     0.375208928642    15.994914619570
         O            4.193797868160     0.435645692085    -0.973621671358    15.994914619570
         O           -2.828753131840     0.033599692085    -0.808278671358    15.994914619570
         O           -3.261011131840    -0.723033307915     1.620923328642    15.994914619570
         O           -2.120883131840    -2.343395307915    -0.100415671358    15.994914619570
         C            0.116271868160     0.030257692085     0.015571328642    12.000000000000
         C            0.951401868160    -1.243956307915    -0.076472671358    12.000000000000
         C            0.896698868160     1.202892692085     0.564103328642    12.000000000000
         C            2.257769868160    -1.014058307915    -0.818784671358    12.000000000000
         C            2.175184868160     1.396720692085    -0.228788671358    12.000000000000
         C            3.043104968160     0.162431392085    -0.199015571358    12.000000000000
         C           -3.126103131840     1.431846692085    -0.489633671358    12.000000000000
         C           -3.538207131840     2.085413692085    -1.784866671358    12.000000000000
         H           -0.284982131840     0.299049692085    -0.970985671358     1.007825032230
         H            0.368378868160    -2.029115307915    -0.572779671358     1.007825032230
         H            1.155229868160     0.998125692085     1.611408328642     1.007825032230
         H            2.059043868160    -0.788411307915    -1.873503671358     1.007825032230
         H            1.915096868160     1.636535692085    -1.274330671358     1.007825032230
         H            3.293964868160    -0.094283307915     0.826898328642     1.007825032230
         H            0.519884868160    -1.887783307915     1.710762328642     1.007825032230
         H            0.663649868160     3.109559692085     0.682436328642     1.007825032230
         H            2.971652868160    -2.547125307915     0.093906328642     1.007825032230
         H            3.719538868160     2.549434692085    -0.059616671358     1.007825032230
         H            4.637836868160    -0.423585307915    -1.097834671358     1.007825032230
         H           -3.810285131840    -1.522089307915     1.733980328642     1.007825032230
         H           -3.932436131840     1.445789692085     0.248638328642     1.007825032230
         H           -2.231652131840     1.893128692085    -0.059843671358     1.007825032230
         H           -3.802411131840     3.131130692085    -1.603418671358     1.007825032230
         H           -2.719086131840     2.053571692085    -2.505622671358     1.007825032230
         H           -4.402834131840     1.574571692085    -2.213471671358     1.007825032230

  Basis Set: AUG-CC-PVTZ
    Blend: AUG-CC-PVTZ
  Basis Set: (AUG-CC-PVTZ AUX)
    Blend: AUG-CC-PVTZ-JKFIT
	 Reference Energy          =   -1327.8620444233401940 [Eh]
	 Singles Energy            =      -0.0000000000000000 [Eh]
	 Same-Spin Energy          =      -1.0141772796564992 [Eh]
	 Opposite-Spin Energy      =      -3.0752284039742892 [Eh]
	 Correlation Energy        =      -4.0894056836307886 [Eh]
	 Total Energy              =   -1331.9514501069709240 [Eh]

	 ================> DF-SCS-MP2 Energies <==================
	-----------------------------------------------------------
	 SCS Same-Spin Scale       =       0.3333333333333333 [-]
	 SCS Opposite-Spin Scale   =       1.2000000000000000 [-]
	 SCS Same-Spin Energy      =      -0.3380590932188330 [Eh]
	 SCS Opposite-Spin Energy  =      -3.6902740847691469 [Eh]
	 SCS Correlation Energy    =      -4.0283331779879799 [Eh]
	 SCS Total Energy          =   -1331.8903776013282823 [Eh]
	-----------------------------------------------------------

  Dipole Moment: [D]
     X:    -1.1176      Y:     1.9015      Z:     0.7034     Total:     2.3151

*** Psi4 exiting successfully. Buy a developer a beer!
