                               Psi4 1.3.2 release

  ==> Input File <==

--------------------------------------------------------------------------
#psi4
#
memory 32 gb

molecule  {
0 1
  P       -2.2962132    -0.9392612     0.3573512
  O       -0.9821530    -0.2015620     0.9382890
  O        1.3422500    -1.6754830     1.2308510
  O        0.0787050     2.3596040     0.4621680
  O        3.0685150    -2.1870720    -0.8085900
  O        2.8473350     2.5031130     0.3715350
  O        4.1956880     0.4353970    -0.9728740
  O       -2.8268630     0.0333510    -0.8075310
  O       -3.2591210    -0.7232820     1.6216710
  O       -2.1189930    -2.3436440    -0.0996680
  C        0.1247706     0.0354811     0.0256677
  C        0.9532920    -1.2442050    -0.0757250
  C        0.8985890     1.2026440     0.5648510
  C        2.2596600    -1.0143070    -0.8180370
  C        2.1770750     1.3964720    -0.2280410
  C        3.0258420     0.1487050    -0.2103220
  C       -3.1242130     1.4315980    -0.4888860
  C       -3.5363170     2.0851650    -1.7841190
  H       -0.2830920     0.2988010    -0.9702380
  H        0.3702690    -2.0293640    -0.5720320
  H        1.1571200     0.9978770     1.6121560
  H        2.0609340    -0.7886600    -1.8727560
  H        1.9169870     1.6362870    -1.2735830
  H        3.2958550    -0.0945320     0.8276460
  H        0.5217750    -1.8880320     1.7115100
  H        0.6655400     3.1093110     0.6831840
  H        2.9735430    -2.5473740     0.0946540
  H        3.7214290     2.5491860    -0.0588690
  H        4.6397270    -0.4238340    -1.0970870
  H       -3.8083950    -1.5223380     1.7347280
  H       -3.9305460     1.4455410     0.2493860
  H       -2.2297620     1.8928800    -0.0590960
  H       -3.8005210     3.1308820    -1.6026710
  H       -2.7171960     2.0533230    -2.5048750
  H       -4.4009440     1.5743230    -2.2127240
units angstrom
no_reorient  #important for SAPT in psi4, default
symmetry c1  #important for SAPT in psi4, default
}

set PROPERTIES_ORIGIN ["COM"]
properties('MP2/aug-cc-pvtz', properties = ['dipole'])
--------------------------------------------------------------------------

    Molecular point group: c1
  Charge       = 0
  Multiplicity = 1
  Basis Set: AUG-CC-PVTZ
    Blend: AUG-CC-PVTZ
  Basis Set: (AUG-CC-PVTZ AUX)
    Blend: AUG-CC-PVTZ-JKFIT

    Orbital Energies [Eh]
    ---------------------

    Doubly Occupied:

       1A    -80.117417     2A    -20.618753     3A    -20.606104
       4A    -20.597438     5A    -20.582639     6A    -20.576818
       7A    -20.574422     8A    -20.574012     9A    -20.573464
      10A    -20.522450    11A    -11.320841    12A    -11.303317
      13A    -11.299055    14A    -11.298370    15A    -11.298134
      16A    -11.296803    17A    -11.291352    18A    -11.229222
      19A     -7.632752    20A     -5.531301    21A     -5.530895
      22A     -5.529646    23A     -1.461509    24A     -1.411568
      25A     -1.396092    26A     -1.393365    27A     -1.386642
      28A     -1.372392    29A     -1.363885    30A     -1.353752
      31A     -1.300786    32A     -1.119647    33A     -1.039231
      34A     -1.012188    35A     -1.003724    36A     -0.880734
      37A     -0.863809    38A     -0.859256    39A     -0.824196
      40A     -0.809730    41A     -0.751863    42A     -0.745250
      43A     -0.732013    44A     -0.728132    45A     -0.708946
      46A     -0.686974    47A     -0.678322    48A     -0.674157
      49A     -0.663407    50A     -0.661173    51A     -0.643477
      52A     -0.634787    53A     -0.627023    54A     -0.614792
      55A     -0.604088    56A     -0.598471    57A     -0.581679
      58A     -0.577419    59A     -0.570386    60A     -0.559043
      61A     -0.556349    62A     -0.547673    63A     -0.540892
      64A     -0.536515    65A     -0.528995    66A     -0.521658
      67A     -0.512447    68A     -0.503708    69A     -0.496709
      70A     -0.483363    71A     -0.478408    72A     -0.475055
      73A     -0.462083    74A     -0.455809    75A     -0.449984
      76A     -0.436236

  @DF-RHF Final Energy: -1327.86102993610530

   => Energetics <=

    Nuclear Repulsion Energy =           1772.2939967360323408
    One-Electron Energy =               -5356.7400551165101206
    Two-Electron Energy =                2256.5850284443722558
    Total Energy =                      -1327.8610299361052967
  Basis Set: (AUG-CC-PVTZ AUX)
    Blend: AUG-CC-PVTZ-RI
    Molecular point group: c1

    Geometry (in Angstrom), charge = 0, multiplicity = 1:

       Center              X                  Y                   Z               Mass
    ------------   -----------------  -----------------  -----------------  -----------------
         P           -2.295830715221    -0.939573201243     0.355599058246    30.973761998420
         O           -0.981770515221    -0.201874001243     0.936536858246    15.994914619570
         O            1.342632484779    -1.675795001243     1.229098858246    15.994914619570
         O            0.079087484779     2.359291998757     0.460415858246    15.994914619570
         O            3.068897484779    -2.187384001243    -0.810342141754    15.994914619570
         O            2.847717484779     2.502800998757     0.369782858246    15.994914619570
         O            4.196070484779     0.435084998757    -0.974626141754    15.994914619570
         O           -2.826480515221     0.033038998757    -0.809283141754    15.994914619570
         O           -3.258738515221    -0.723594001243     1.619918858246    15.994914619570
         O           -2.118610515221    -2.343956001243    -0.101420141754    15.994914619570
         C            0.125153084779     0.035169098757     0.023915558246    12.000000000000
         C            0.953674484779    -1.244517001243    -0.077477141754    12.000000000000
         C            0.898971484779     1.202331998757     0.563098858246    12.000000000000
         C            2.260042484779    -1.014619001243    -0.819789141754    12.000000000000
         C            2.177457484779     1.396159998757    -0.229793141754    12.000000000000
         C            3.026224484779     0.148392998757    -0.212074141754    12.000000000000
         C           -3.123830515221     1.431285998757    -0.490638141754    12.000000000000
         C           -3.535934515221     2.084852998757    -1.785871141754    12.000000000000
         H           -0.282709515221     0.298488998757    -0.971990141754     1.007825032230
         H            0.370651484779    -2.029676001243    -0.573784141754     1.007825032230
         H            1.157502484779     0.997564998757     1.610403858246     1.007825032230
         H            2.061316484779    -0.788972001243    -1.874508141754     1.007825032230
         H            1.917369484779     1.635974998757    -1.275335141754     1.007825032230
         H            3.296237484779    -0.094844001243     0.825893858246     1.007825032230
         H            0.522157484779    -1.888344001243     1.709757858246     1.007825032230
         H            0.665922484779     3.108998998757     0.681431858246     1.007825032230
         H            2.973925484779    -2.547686001243     0.092901858246     1.007825032230
         H            3.721811484779     2.548873998757    -0.060621141754     1.007825032230
         H            4.640109484779    -0.424146001243    -1.098839141754     1.007825032230
         H           -3.808012515221    -1.522650001243     1.732975858246     1.007825032230
         H           -3.930163515221     1.445228998757     0.247633858246     1.007825032230
         H           -2.229379515221     1.892567998757    -0.060848141754     1.007825032230
         H           -3.800138515221     3.130569998757    -1.604423141754     1.007825032230
         H           -2.716813515221     2.053010998757    -2.506627141754     1.007825032230
         H           -4.400561515221     1.574010998757    -2.214476141754     1.007825032230

  Basis Set: AUG-CC-PVTZ
    Blend: AUG-CC-PVTZ
  Basis Set: (AUG-CC-PVTZ AUX)
    Blend: AUG-CC-PVTZ-JKFIT
	 Reference Energy          =   -1327.8610299361052967 [Eh]
	 Singles Energy            =      -0.0000000000000000 [Eh]
	 Same-Spin Energy          =      -1.0146902231339270 [Eh]
	 Opposite-Spin Energy      =      -3.0761166770239630 [Eh]
	 Correlation Energy        =      -4.0908069001578902 [Eh]
	 Total Energy              =   -1331.9518368362632827 [Eh]

	 ================> DF-SCS-MP2 Energies <==================
	-----------------------------------------------------------
	 SCS Same-Spin Scale       =       0.3333333333333333 [-]
	 SCS Opposite-Spin Scale   =       1.2000000000000000 [-]
	 SCS Same-Spin Energy      =      -0.3382300743779756 [Eh]
	 SCS Opposite-Spin Energy  =      -3.6913400124287552 [Eh]
	 SCS Correlation Energy    =      -4.0295700868067312 [Eh]
	 SCS Total Energy          =   -1331.8906000229119400 [Eh]
	-----------------------------------------------------------

  Dipole Moment: [D]
     X:    -1.1630      Y:     1.8497      Z:     0.8469     Total:     2.3434

*** Psi4 exiting successfully. Buy a developer a beer!
