                               Psi4 1.3.2 release

  ==> Input File <==

--------------------------------------------------------------------------
#psi4
#
memory 32 gb

molecule  {
0 1
  P       -2.2900960    -0.9400430     0.3446780
  O       -0.9821530    -0.2015620     0.9382890
  O        1.3422500    -1.6754830     1.2308510
  O        0.0787050     2.3596040     0.4621680
  O        3.0685150    -2.1870720    -0.8085900
  O        2.8473350     2.5031130     0.3715350
  O        4.1956880     0.4353970    -0.9728740
  O       -2.8268630     0.0333510    -0.8075310
  O       -3.2591210    -0.7232820     1.6216710
  O       -2.1189930    -2.3436440    -0.0996680
  C        0.1181620     0.0300090     0.0163190
  C        0.9532920    -1.2442050    -0.0757250
  C        0.8985890     1.2026440     0.5648510
  C        2.2596600    -1.0143070    -0.8180370
  C        2.1770750     1.3964720    -0.2280410
  C        3.0258420     0.1487050    -0.2103220
  C       -3.1242130     1.4315980    -0.4888860
  C       -3.5363170     2.0851650    -1.7841190
  H       -0.2830920     0.2988010    -0.9702380
  H        0.3702690    -2.0293640    -0.5720320
  H        1.1571200     0.9978770     1.6121560
  H        2.0609340    -0.7886600    -1.8727560
  H        1.9169870     1.6362870    -1.2735830
  H        3.2958550    -0.0945320     0.8276460
  H        0.6059810    -1.8662179     1.6621796
  H        0.6655400     3.1093110     0.6831840
  H        2.9735430    -2.5473740     0.0946540
  H        3.7214290     2.5491860    -0.0588690
  H        4.6397270    -0.4238340    -1.0970870
  H       -3.8083950    -1.5223380     1.7347280
  H       -3.9305460     1.4455410     0.2493860
  H       -2.2297620     1.8928800    -0.0590960
  H       -3.8005210     3.1308820    -1.6026710
  H       -2.7171960     2.0533230    -2.5048750
  H       -4.4009440     1.5743230    -2.2127240
units angstrom
no_reorient  #important for SAPT in psi4, default
symmetry c1  #important for SAPT in psi4, default
}

set PROPERTIES_ORIGIN ["COM"]
properties('MP2/aug-cc-pvtz', properties = ['dipole'])
--------------------------------------------------------------------------

    Molecular point group: c1
  Charge       = 0
  Multiplicity = 1
  Basis Set: AUG-CC-PVTZ
    Blend: AUG-CC-PVTZ
  Basis Set: (AUG-CC-PVTZ AUX)
    Blend: AUG-CC-PVTZ-JKFIT

    Orbital Energies [Eh]
    ---------------------

    Doubly Occupied:

       1A    -80.116633     2A    -20.614264     3A    -20.606852
       4A    -20.598816     5A    -20.577195     6A    -20.575328
       7A    -20.575010     8A    -20.574595     9A    -20.573847
      10A    -20.522984    11A    -11.321489    12A    -11.305038
      13A    -11.300071    14A    -11.299330    15A    -11.299161
      16A    -11.297161    17A    -11.292015    18A    -11.229852
      19A     -7.632075    20A     -5.530582    21A     -5.530208
      22A     -5.529007    23A     -1.460417    24A     -1.422516
      25A     -1.399399    26A     -1.394140    27A     -1.386676
      28A     -1.378401    29A     -1.366763    30A     -1.355258
      31A     -1.303406    32A     -1.122055    33A     -1.040425
      34A     -1.013171    35A     -1.006847    36A     -0.882166
      37A     -0.865574    38A     -0.860159    39A     -0.822386
      40A     -0.818235    41A     -0.756988    42A     -0.746661
      43A     -0.733237    44A     -0.729491    45A     -0.708477
      46A     -0.687892    47A     -0.684507    48A     -0.674123
      49A     -0.663045    50A     -0.661470    51A     -0.643925
      52A     -0.635793    53A     -0.627602    54A     -0.616910
      55A     -0.604050    56A     -0.600647    57A     -0.582073
      58A     -0.575916    59A     -0.574175    60A     -0.559786
      61A     -0.557255    62A     -0.549659    63A     -0.541300
      64A     -0.537595    65A     -0.530680    66A     -0.522554
      67A     -0.513562    68A     -0.505725    69A     -0.497712
      70A     -0.485351    71A     -0.479972    72A     -0.476384
      73A     -0.462747    74A     -0.456426    75A     -0.451182
      76A     -0.437414

  @DF-RHF Final Energy: -1327.85665968616740

   => Energetics <=

    Nuclear Repulsion Energy =           1773.0851999560925378
    One-Electron Energy =               -5358.1401380189454358
    Two-Electron Energy =                2257.1982783766852663
    Total Energy =                      -1327.8566596861674043
  Basis Set: (AUG-CC-PVTZ AUX)
    Blend: AUG-CC-PVTZ-RI
    Molecular point group: c1

    Geometry (in Angstrom), charge = 0, multiplicity = 1:

       Center              X                  Y                   Z               Mass
    ------------   -----------------  -----------------  -----------------  -----------------
         P           -2.290390574589    -0.940119302253     0.344850580633    30.973761998420
         O           -0.982447574589    -0.201638302253     0.938461580633    15.994914619570
         O            1.341955425411    -1.675559302253     1.231023580633    15.994914619570
         O            0.078410425411     2.359527697747     0.462340580633    15.994914619570
         O            3.068220425411    -2.187148302253    -0.808417419367    15.994914619570
         O            2.847040425411     2.503036697747     0.371707580633    15.994914619570
         O            4.195393425411     0.435320697747    -0.972701419367    15.994914619570
         O           -2.827157574589     0.033274697747    -0.807358419367    15.994914619570
         O           -3.259415574589    -0.723358302253     1.621843580633    15.994914619570
         O           -2.119287574589    -2.343720302253    -0.099495419367    15.994914619570
         C            0.117867425411     0.029932697747     0.016491580633    12.000000000000
         C            0.952997425411    -1.244281302253    -0.075552419367    12.000000000000
         C            0.898294425411     1.202567697747     0.565023580633    12.000000000000
         C            2.259365425411    -1.014383302253    -0.817864419367    12.000000000000
         C            2.176780425411     1.396395697747    -0.227868419367    12.000000000000
         C            3.025547425411     0.148628697747    -0.210149419367    12.000000000000
         C           -3.124507574589     1.431521697747    -0.488713419367    12.000000000000
         C           -3.536611574589     2.085088697747    -1.783946419367    12.000000000000
         H           -0.283386574589     0.298724697747    -0.970065419367     1.007825032230
         H            0.369974425411    -2.029440302253    -0.571859419367     1.007825032230
         H            1.156825425411     0.997800697747     1.612328580633     1.007825032230
         H            2.060639425411    -0.788736302253    -1.872583419367     1.007825032230
         H            1.916692425411     1.636210697747    -1.273410419367     1.007825032230
         H            3.295560425411    -0.094608302253     0.827818580633     1.007825032230
         H            0.605686425411    -1.866294202253     1.662352180633     1.007825032230
         H            0.665245425411     3.109234697747     0.683356580633     1.007825032230
         H            2.973248425411    -2.547450302253     0.094826580633     1.007825032230
         H            3.721134425411     2.549109697747    -0.058696419367     1.007825032230
         H            4.639432425411    -0.423910302253    -1.096914419367     1.007825032230
         H           -3.808689574589    -1.522414302253     1.734900580633     1.007825032230
         H           -3.930840574589     1.445464697747     0.249558580633     1.007825032230
         H           -2.230056574589     1.892803697747    -0.058923419367     1.007825032230
         H           -3.800815574589     3.130805697747    -1.602498419367     1.007825032230
         H           -2.717490574589     2.053246697747    -2.504702419367     1.007825032230
         H           -4.401238574589     1.574246697747    -2.212551419367     1.007825032230

  Basis Set: AUG-CC-PVTZ
    Blend: AUG-CC-PVTZ
  Basis Set: (AUG-CC-PVTZ AUX)
    Blend: AUG-CC-PVTZ-JKFIT
	 Reference Energy          =   -1327.8566596861674043 [Eh]
	 Singles Energy            =      -0.0000000000000000 [Eh]
	 Same-Spin Energy          =      -1.0132497822899520 [Eh]
	 Opposite-Spin Energy      =      -3.0729779476676504 [Eh]
	 Correlation Energy        =      -4.0862277299576029 [Eh]
	 Total Energy              =   -1331.9428874161249041 [Eh]

	 ================> DF-SCS-MP2 Energies <==================
	-----------------------------------------------------------
	 SCS Same-Spin Scale       =       0.3333333333333333 [-]
	 SCS Opposite-Spin Scale   =       1.2000000000000000 [-]
	 SCS Same-Spin Energy      =      -0.3377499274299840 [Eh]
	 SCS Opposite-Spin Energy  =      -3.6875735372011804 [Eh]
	 SCS Correlation Energy    =      -4.0253234646311640 [Eh]
	 SCS Total Energy          =   -1331.8819831507985327 [Eh]
	-----------------------------------------------------------

  Dipole Moment: [D]
     X:    -1.0284      Y:     1.8925      Z:     0.6567     Total:     2.2517

*** Psi4 exiting successfully. Buy a developer a beer!
