                               Psi4 1.3.2 release

  ==> Input File <==

--------------------------------------------------------------------------
#psi4
#
memory 32 gb

molecule  {
0 1
  P       -2.2900960    -0.9400430     0.3446780
  O       -0.9821530    -0.2015620     0.9382890
  O        1.3422500    -1.6754830     1.2308510
  O        0.0787050     2.3596040     0.4621680
  O        3.0685150    -2.1870720    -0.8085900
  O        2.8473350     2.5031130     0.3715350
  O        4.1956880     0.4353970    -0.9728740
  O       -2.8268630     0.0333510    -0.8075310
  O       -3.2591210    -0.7232820     1.6216710
  O       -2.1189930    -2.3436440    -0.0996680
  C        0.1181620     0.0300090     0.0163190
  C        0.9532920    -1.2442050    -0.0757250
  C        0.9013162     1.1956736     0.5757133
  C        2.2596600    -1.0143070    -0.8180370
  C        2.1770750     1.3964720    -0.2280410
  C        3.0258420     0.1487050    -0.2103220
  C       -3.1242130     1.4315980    -0.4888860
  C       -3.5363170     2.0851650    -1.7841190
  H       -0.2871070     0.2901238    -0.9709226
  H        0.3702690    -2.0293640    -0.5720320
  H        1.1571200     0.9978770     1.6121560
  H        2.0609340    -0.7886600    -1.8727560
  H        1.9169870     1.6362870    -1.2735830
  H        3.2958550    -0.0945320     0.8276460
  H        0.5217750    -1.8880320     1.7115100
  H        0.6655400     3.1093110     0.6831840
  H        2.9735430    -2.5473740     0.0946540
  H        3.7214290     2.5491860    -0.0588690
  H        4.6397270    -0.4238340    -1.0970870
  H       -3.8083950    -1.5223380     1.7347280
  H       -3.9305460     1.4455410     0.2493860
  H       -2.2297620     1.8928800    -0.0590960
  H       -3.8005210     3.1308820    -1.6026710
  H       -2.7171960     2.0533230    -2.5048750
  H       -4.4009440     1.5743230    -2.2127240
units angstrom
no_reorient  #important for SAPT in psi4, default
symmetry c1  #important for SAPT in psi4, default
}

set PROPERTIES_ORIGIN ["COM"]
properties('MP2/aug-cc-pvtz', properties = ['dipole'])
--------------------------------------------------------------------------

    Molecular point group: c1
  Charge       = 0
  Multiplicity = 1
  Basis Set: AUG-CC-PVTZ
    Blend: AUG-CC-PVTZ
  Basis Set: (AUG-CC-PVTZ AUX)
    Blend: AUG-CC-PVTZ-JKFIT

    Orbital Energies [Eh]
    ---------------------

    Doubly Occupied:

       1A    -80.116925     2A    -20.614720     3A    -20.606876
       4A    -20.598959     5A    -20.583290     6A    -20.576759
       7A    -20.574686     8A    -20.574076     9A    -20.572613
      10A    -20.523469    11A    -11.320950    12A    -11.303451
      13A    -11.299425    14A    -11.299280    15A    -11.298496
      16A    -11.296968    17A    -11.291347    18A    -11.229786
      19A     -7.632380    20A     -5.530887    21A     -5.530511
      22A     -5.529311    23A     -1.460289    24A     -1.410660
      25A     -1.394632    26A     -1.392211    27A     -1.386820
      28A     -1.372146    29A     -1.362968    30A     -1.353398
      31A     -1.303862    32A     -1.119057    33A     -1.040387
      34A     -1.012110    35A     -1.003365    36A     -0.879984
      37A     -0.864773    38A     -0.859611    39A     -0.822034
      40A     -0.811444    41A     -0.751252    42A     -0.745384
      43A     -0.731567    44A     -0.728499    45A     -0.707942
      46A     -0.686592    47A     -0.678250    48A     -0.673648
      49A     -0.662108    50A     -0.660872    51A     -0.643078
      52A     -0.634589    53A     -0.627222    54A     -0.615232
      55A     -0.603598    56A     -0.598055    57A     -0.581434
      58A     -0.575516    59A     -0.571096    60A     -0.559071
      61A     -0.556577    62A     -0.548286    63A     -0.541159
      64A     -0.536517    65A     -0.529895    66A     -0.521871
      67A     -0.513129    68A     -0.504524    69A     -0.497290
      70A     -0.485377    71A     -0.479816    72A     -0.476612
      73A     -0.462776    74A     -0.455562    75A     -0.450813
      76A     -0.436325

  @DF-RHF Final Energy: -1327.86114682444577

   => Energetics <=

    Nuclear Repulsion Energy =           1772.3773255859111941
    One-Electron Energy =               -5356.9040404470488284
    Two-Electron Energy =                2256.6655680366916386
    Total Energy =                      -1327.8611468244457683
  Basis Set: (AUG-CC-PVTZ AUX)
    Blend: AUG-CC-PVTZ-RI
    Molecular point group: c1

    Geometry (in Angstrom), charge = 0, multiplicity = 1:

       Center              X                  Y                   Z               Mass
    ------------   -----------------  -----------------  -----------------  -----------------
         P           -2.290195529344    -0.939722252018     0.344227885985    30.973761998420
         O           -0.982252529344    -0.201241252018     0.937838885985    15.994914619570
         O            1.342150470656    -1.675162252018     1.230400885985    15.994914619570
         O            0.078605470656     2.359924747982     0.461717885985    15.994914619570
         O            3.068415470656    -2.186751252018    -0.809040114015    15.994914619570
         O            2.847235470656     2.503433747982     0.371084885985    15.994914619570
         O            4.195588470656     0.435717747982    -0.973324114015    15.994914619570
         O           -2.826962529344     0.033671747982    -0.807981114015    15.994914619570
         O           -3.259220529344    -0.722961252018     1.621220885985    15.994914619570
         O           -2.119092529344    -2.343323252018    -0.100118114015    15.994914619570
         C            0.118062470656     0.030329747982     0.015868885985    12.000000000000
         C            0.953192470656    -1.243884252018    -0.076175114015    12.000000000000
         C            0.901216670656     1.195994347982     0.575263185985    12.000000000000
         C            2.259560470656    -1.013986252018    -0.818487114015    12.000000000000
         C            2.176975470656     1.396792747982    -0.228491114015    12.000000000000
         C            3.025742470656     0.149025747982    -0.210772114015    12.000000000000
         C           -3.124312529344     1.431918747982    -0.489336114015    12.000000000000
         C           -3.536416529344     2.085485747982    -1.784569114015    12.000000000000
         H           -0.287206529344     0.290444547982    -0.971372714015     1.007825032230
         H            0.370169470656    -2.029043252018    -0.572482114015     1.007825032230
         H            1.157020470656     0.998197747982     1.611705885985     1.007825032230
         H            2.060834470656    -0.788339252018    -1.873206114015     1.007825032230
         H            1.916887470656     1.636607747982    -1.274033114015     1.007825032230
         H            3.295755470656    -0.094211252018     0.827195885985     1.007825032230
         H            0.521675470656    -1.887711252018     1.711059885985     1.007825032230
         H            0.665440470656     3.109631747982     0.682733885985     1.007825032230
         H            2.973443470656    -2.547053252018     0.094203885985     1.007825032230
         H            3.721329470656     2.549506747982    -0.059319114015     1.007825032230
         H            4.639627470656    -0.423513252018    -1.097537114015     1.007825032230
         H           -3.808494529344    -1.522017252018     1.734277885985     1.007825032230
         H           -3.930645529344     1.445861747982     0.248935885985     1.007825032230
         H           -2.229861529344     1.893200747982    -0.059546114015     1.007825032230
         H           -3.800620529344     3.131202747982    -1.603121114015     1.007825032230
         H           -2.717295529344     2.053643747982    -2.505325114015     1.007825032230
         H           -4.401043529344     1.574643747982    -2.213174114015     1.007825032230

  Basis Set: AUG-CC-PVTZ
    Blend: AUG-CC-PVTZ
  Basis Set: (AUG-CC-PVTZ AUX)
    Blend: AUG-CC-PVTZ-JKFIT
	 Reference Energy          =   -1327.8611468244457683 [Eh]
	 Singles Energy            =      -0.0000000000000000 [Eh]
	 Same-Spin Energy          =      -1.0145800477928253 [Eh]
	 Opposite-Spin Energy      =      -3.0761988216454599 [Eh]
	 Correlation Energy        =      -4.0907788694382852 [Eh]
	 Total Energy              =   -1331.9519256938840499 [Eh]

	 ================> DF-SCS-MP2 Energies <==================
	-----------------------------------------------------------
	 SCS Same-Spin Scale       =       0.3333333333333333 [-]
	 SCS Opposite-Spin Scale   =       1.2000000000000000 [-]
	 SCS Same-Spin Energy      =      -0.3381933492642751 [Eh]
	 SCS Opposite-Spin Energy  =      -3.6914385859745518 [Eh]
	 SCS Correlation Energy    =      -4.0296319352388270 [Eh]
	 SCS Total Energy          =   -1331.8907787596845083 [Eh]
	-----------------------------------------------------------

  Dipole Moment: [D]
     X:    -1.1025      Y:     1.8410      Z:     0.7314     Total:     2.2671

*** Psi4 exiting successfully. Buy a developer a beer!
