                               Psi4 1.3.2 release

  ==> Input File <==

--------------------------------------------------------------------------
#psi4
#
memory 32 gb

molecule  {
0 1
  P       -2.2900960    -0.9400430     0.3446780
  O       -0.9821530    -0.2015620     0.9382890
  O        1.3422500    -1.6754830     1.2308510
  O        0.0787050     2.3596040     0.4621680
  O        3.0685150    -2.1870720    -0.8085900
  O        2.8473350     2.5031130     0.3715350
  O        4.1956880     0.4353970    -0.9728740
  O       -2.8268630     0.0333510    -0.8075310
  O       -3.2591210    -0.7232820     1.6216710
  O       -2.1189930    -2.3436440    -0.0996680
  C        0.1088478     0.0320144     0.0254424
  C        0.9532920    -1.2442050    -0.0757250
  C        0.8985890     1.2026440     0.5648510
  C        2.2596600    -1.0143070    -0.8180370
  C        2.1802106     1.4067819    -0.2203542
  C        3.0258420     0.1487050    -0.2103220
  C       -3.1242130     1.4315980    -0.4888860
  C       -3.5363170     2.0851650    -1.7841190
  H       -0.2830920     0.2988010    -0.9702380
  H        0.3702690    -2.0293640    -0.5720320
  H        1.1571200     0.9978770     1.6121560
  H        2.0609340    -0.7886600    -1.8727560
  H        1.9169870     1.6362870    -1.2735830
  H        3.2958550    -0.0945320     0.8276460
  H        0.5217750    -1.8880320     1.7115100
  H        0.6655400     3.1093110     0.6831840
  H        2.9735430    -2.5473740     0.0946540
  H        3.7214290     2.5491860    -0.0588690
  H        4.6397270    -0.4238340    -1.0970870
  H       -3.8083950    -1.5223380     1.7347280
  H       -3.9305460     1.4455410     0.2493860
  H       -2.2297620     1.8928800    -0.0590960
  H       -3.8005210     3.1308820    -1.6026710
  H       -2.7171960     2.0533230    -2.5048750
  H       -4.4009440     1.5743230    -2.2127240
units angstrom
no_reorient  #important for SAPT in psi4, default
symmetry c1  #important for SAPT in psi4, default
}

set PROPERTIES_ORIGIN ["COM"]
properties('MP2/aug-cc-pvtz', properties = ['dipole'])
--------------------------------------------------------------------------

    Molecular point group: c1
  Charge       = 0
  Multiplicity = 1
  Basis Set: AUG-CC-PVTZ
    Blend: AUG-CC-PVTZ
  Basis Set: (AUG-CC-PVTZ AUX)
    Blend: AUG-CC-PVTZ-JKFIT

    Orbital Energies [Eh]
    ---------------------

    Doubly Occupied:

       1A    -80.117836     2A    -20.615331     3A    -20.608463
       4A    -20.599358     5A    -20.582494     6A    -20.578013
       7A    -20.574293     8A    -20.573616     9A    -20.572871
      10A    -20.523974    11A    -11.320380    12A    -11.302959
      13A    -11.299603    14A    -11.298834    15A    -11.297817
      16A    -11.296699    17A    -11.290910    18A    -11.229954
      19A     -7.633276    20A     -5.531782    21A     -5.531414
      22A     -5.530199    23A     -1.462179    24A     -1.411550
      25A     -1.397087    26A     -1.393834    27A     -1.387332
      28A     -1.373194    29A     -1.364772    30A     -1.354673
      31A     -1.304428    32A     -1.116555    33A     -1.040640
      34A     -1.010495    35A     -1.002393    36A     -0.881317
      37A     -0.865205    38A     -0.858225    39A     -0.823077
      40A     -0.809510    41A     -0.751772    42A     -0.745645
      43A     -0.731249    44A     -0.730155    45A     -0.708932
      46A     -0.686901    47A     -0.677853    48A     -0.673713
      49A     -0.662697    50A     -0.661340    51A     -0.644542
      52A     -0.635549    53A     -0.627753    54A     -0.615289
      55A     -0.605231    56A     -0.597861    57A     -0.581551
      58A     -0.576173    59A     -0.571562    60A     -0.560253
      61A     -0.556448    62A     -0.548385    63A     -0.541355
      64A     -0.536353    65A     -0.529926    66A     -0.521832
      67A     -0.513202    68A     -0.503823    69A     -0.497298
      70A     -0.483940    71A     -0.480080    72A     -0.476845
      73A     -0.461511    74A     -0.453407    75A     -0.448435
      76A     -0.435885

  @DF-RHF Final Energy: -1327.86175079284703

   => Energetics <=

    Nuclear Repulsion Energy =           1772.4605773276357468
    One-Electron Energy =               -5357.0420782769042489
    Two-Electron Energy =                2256.7197501564214690
    Total Energy =                      -1327.8617507928470332
  Basis Set: (AUG-CC-PVTZ AUX)
    Blend: AUG-CC-PVTZ-RI
    Molecular point group: c1

    Geometry (in Angstrom), charge = 0, multiplicity = 1:

       Center              X                  Y                   Z               Mass
    ------------   -----------------  -----------------  -----------------  -----------------
         P           -2.289838580032    -0.940556011129     0.343977714139    30.973761998420
         O           -0.981895580032    -0.202075011129     0.937588714139    15.994914619570
         O            1.342507419968    -1.675996011129     1.230150714139    15.994914619570
         O            0.078962419968     2.359090988871     0.461467714139    15.994914619570
         O            3.068772419968    -2.187585011129    -0.809290285861    15.994914619570
         O            2.847592419968     2.502599988871     0.370834714139    15.994914619570
         O            4.195945419968     0.434883988871    -0.973574285861    15.994914619570
         O           -2.826605580032     0.032837988871    -0.808231285861    15.994914619570
         O           -3.258863580032    -0.723795011129     1.620970714139    15.994914619570
         O           -2.118735580032    -2.344157011129    -0.100368285861    15.994914619570
         C            0.109105219968     0.031501388871     0.024742114139    12.000000000000
         C            0.953549419968    -1.244718011129    -0.076425285861    12.000000000000
         C            0.898846419968     1.202130988871     0.564150714139    12.000000000000
         C            2.259917419968    -1.014820011129    -0.818737285861    12.000000000000
         C            2.180468019968     1.406268888871    -0.221054485861    12.000000000000
         C            3.026099419968     0.148191988871    -0.211022285861    12.000000000000
         C           -3.123955580032     1.431084988871    -0.489586285861    12.000000000000
         C           -3.536059580032     2.084651988871    -1.784819285861    12.000000000000
         H           -0.282834580032     0.298287988871    -0.970938285861     1.007825032230
         H            0.370526419968    -2.029877011129    -0.572732285861     1.007825032230
         H            1.157377419968     0.997363988871     1.611455714139     1.007825032230
         H            2.061191419968    -0.789173011129    -1.873456285861     1.007825032230
         H            1.917244419968     1.635773988871    -1.274283285861     1.007825032230
         H            3.296112419968    -0.095045011129     0.826945714139     1.007825032230
         H            0.522032419968    -1.888545011129     1.710809714139     1.007825032230
         H            0.665797419968     3.108797988871     0.682483714139     1.007825032230
         H            2.973800419968    -2.547887011129     0.093953714139     1.007825032230
         H            3.721686419968     2.548672988871    -0.059569285861     1.007825032230
         H            4.639984419968    -0.424347011129    -1.097787285861     1.007825032230
         H           -3.808137580032    -1.522851011129     1.734027714139     1.007825032230
         H           -3.930288580032     1.445027988871     0.248685714139     1.007825032230
         H           -2.229504580032     1.892366988871    -0.059796285861     1.007825032230
         H           -3.800263580032     3.130368988871    -1.603371285861     1.007825032230
         H           -2.716938580032     2.052809988871    -2.505575285861     1.007825032230
         H           -4.400686580032     1.573809988871    -2.213424285861     1.007825032230

  Basis Set: AUG-CC-PVTZ
    Blend: AUG-CC-PVTZ
  Basis Set: (AUG-CC-PVTZ AUX)
    Blend: AUG-CC-PVTZ-JKFIT
	 Reference Energy          =   -1327.8617507928470332 [Eh]
	 Singles Energy            =      -0.0000000000000000 [Eh]
	 Same-Spin Energy          =      -1.0144784103746567 [Eh]
	 Opposite-Spin Energy      =      -3.0757067573974077 [Eh]
	 Correlation Energy        =      -4.0901851677720646 [Eh]
	 Total Energy              =   -1331.9519359606190392 [Eh]

	 ================> DF-SCS-MP2 Energies <==================
	-----------------------------------------------------------
	 SCS Same-Spin Scale       =       0.3333333333333333 [-]
	 SCS Opposite-Spin Scale   =       1.2000000000000000 [-]
	 SCS Same-Spin Energy      =      -0.3381594701248856 [Eh]
	 SCS Opposite-Spin Energy  =      -3.6908481088768892 [Eh]
	 SCS Correlation Energy    =      -4.0290075790017745 [Eh]
	 SCS Total Energy          =   -1331.8907583718487331 [Eh]
	-----------------------------------------------------------

  Dipole Moment: [D]
     X:    -1.1479      Y:     1.8876      Z:     0.7534     Total:     2.3342

*** Psi4 exiting successfully. Buy a developer a beer!
