                               Psi4 1.3.2 release

  ==> Input File <==

--------------------------------------------------------------------------
#psi4
#
memory 32 gb

molecule  {
0 1
  P       -2.2900960    -0.9400430     0.3446780
  O       -0.9821530    -0.2015620     0.9382890
  O        1.3422500    -1.6754830     1.2308510
  O        0.0787050     2.3596040     0.4621680
  O        3.0685150    -2.1870720    -0.8085900
  O        2.8473350     2.5031130     0.3715350
  O        4.1927983     0.4261526    -0.9806812
  O       -2.8268630     0.0333510    -0.8075310
  O       -3.2591210    -0.7232820     1.6216710
  O       -2.1189930    -2.3436440    -0.0996680
  C        0.1181620     0.0300090     0.0163190
  C        0.9532920    -1.2442050    -0.0757250
  C        0.8985890     1.2026440     0.5648510
  C        2.2687942    -1.0152503    -0.8276032
  C        2.1770750     1.3964720    -0.2280410
  C        3.0258420     0.1487050    -0.2103220
  C       -3.1242130     1.4315980    -0.4888860
  C       -3.5363170     2.0851650    -1.7841190
  H       -0.2830920     0.2988010    -0.9702380
  H        0.3702690    -2.0293640    -0.5720320
  H        1.1571200     0.9978770     1.6121560
  H        2.0609340    -0.7886600    -1.8727560
  H        1.9169870     1.6362870    -1.2735830
  H        3.2958550    -0.0945320     0.8276460
  H        0.5217750    -1.8880320     1.7115100
  H        0.6655400     3.1093110     0.6831840
  H        2.9735430    -2.5473740     0.0946540
  H        3.7214290     2.5491860    -0.0588690
  H        4.6397270    -0.4238340    -1.0970870
  H       -3.8083950    -1.5223380     1.7347280
  H       -3.9305460     1.4455410     0.2493860
  H       -2.2297620     1.8928800    -0.0590960
  H       -3.8005210     3.1308820    -1.6026710
  H       -2.7171960     2.0533230    -2.5048750
  H       -4.4009440     1.5743230    -2.2127240
units angstrom
no_reorient  #important for SAPT in psi4, default
symmetry c1  #important for SAPT in psi4, default
}

set PROPERTIES_ORIGIN ["COM"]
properties('MP2/aug-cc-pvtz', properties = ['dipole'])
--------------------------------------------------------------------------

    Molecular point group: c1
  Charge       = 0
  Multiplicity = 1
  Basis Set: AUG-CC-PVTZ
    Blend: AUG-CC-PVTZ
  Basis Set: (AUG-CC-PVTZ AUX)
    Blend: AUG-CC-PVTZ-JKFIT

    Orbital Energies [Eh]
    ---------------------

    Doubly Occupied:

       1A    -80.116771     2A    -20.614598     3A    -20.606779
       4A    -20.598812     5A    -20.582882     6A    -20.577154
       7A    -20.574680     8A    -20.573503     9A    -20.572806
      10A    -20.523241    11A    -11.320418    12A    -11.303265
      13A    -11.299301    14A    -11.298914    15A    -11.298653
      16A    -11.296991    17A    -11.291423    18A    -11.229804
      19A     -7.632221    20A     -5.530727    21A     -5.530354
      22A     -5.529152    23A     -1.460100    24A     -1.410943
      25A     -1.394991    26A     -1.393326    27A     -1.386779
      28A     -1.373023    29A     -1.364562    30A     -1.354735
      31A     -1.303641    32A     -1.118088    33A     -1.040383
      34A     -1.012153    35A     -1.002001    36A     -0.880010
      37A     -0.864759    38A     -0.859827    39A     -0.822483
      40A     -0.810815    41A     -0.751393    42A     -0.745428
      43A     -0.731344    44A     -0.728440    45A     -0.707811
      46A     -0.687168    47A     -0.678548    48A     -0.673769
      49A     -0.663918    50A     -0.661408    51A     -0.642927
      52A     -0.635223    53A     -0.627374    54A     -0.615445
      55A     -0.603862    56A     -0.599136    57A     -0.581689
      58A     -0.575548    59A     -0.570820    60A     -0.559496
      61A     -0.556846    62A     -0.548478    63A     -0.541157
      64A     -0.536735    65A     -0.529669    66A     -0.521609
      67A     -0.513016    68A     -0.503761    69A     -0.496869
      70A     -0.484176    71A     -0.479668    72A     -0.476421
      73A     -0.462126    74A     -0.456447    75A     -0.449755
      76A     -0.435277

  @DF-RHF Final Energy: -1327.86210747018026

   => Energetics <=

    Nuclear Repulsion Energy =           1772.2972763317675344
    One-Electron Energy =               -5356.7431208958505522
    Two-Electron Energy =                2256.5837370939029825
    Total Energy =                      -1327.8621074701800353
  Basis Set: (AUG-CC-PVTZ AUX)
    Blend: AUG-CC-PVTZ-RI
    Molecular point group: c1

    Geometry (in Angstrom), charge = 0, multiplicity = 1:

       Center              X                  Y                   Z               Mass
    ------------   -----------------  -----------------  -----------------  -----------------
         P           -2.290316024345    -0.939490380696     0.345510001634    30.973761998420
         O           -0.982373024345    -0.201009380696     0.939121001634    15.994914619570
         O            1.342029975655    -1.674930380696     1.231683001634    15.994914619570
         O            0.078484975655     2.360156619304     0.463000001634    15.994914619570
         O            3.068294975655    -2.186519380696    -0.807757998366    15.994914619570
         O            2.847114975655     2.503665619304     0.372367001634    15.994914619570
         O            4.192578275655     0.426705219304    -0.979849198366    15.994914619570
         O           -2.827083024345     0.033903619304    -0.806698998366    15.994914619570
         O           -3.259341024345    -0.722729380696     1.622503001634    15.994914619570
         O           -2.119213024345    -2.343091380696    -0.098835998366    15.994914619570
         C            0.117941975655     0.030561619304     0.017151001634    12.000000000000
         C            0.953071975655    -1.243652380696    -0.074892998366    12.000000000000
         C            0.898368975655     1.203196619304     0.565683001634    12.000000000000
         C            2.268574175655    -1.014697680696    -0.826771198366    12.000000000000
         C            2.176854975655     1.397024619304    -0.227208998366    12.000000000000
         C            3.025621975655     0.149257619304    -0.209489998366    12.000000000000
         C           -3.124433024345     1.432150619304    -0.488053998366    12.000000000000
         C           -3.536537024345     2.085717619304    -1.783286998366    12.000000000000
         H           -0.283312024345     0.299353619304    -0.969405998366     1.007825032230
         H            0.370048975655    -2.028811380696    -0.571199998366     1.007825032230
         H            1.156899975655     0.998429619304     1.612988001634     1.007825032230
         H            2.060713975655    -0.788107380696    -1.871923998366     1.007825032230
         H            1.916766975655     1.636839619304    -1.272750998366     1.007825032230
         H            3.295634975655    -0.093979380696     0.828478001634     1.007825032230
         H            0.521554975655    -1.887479380696     1.712342001634     1.007825032230
         H            0.665319975655     3.109863619304     0.684016001634     1.007825032230
         H            2.973322975655    -2.546821380696     0.095486001634     1.007825032230
         H            3.721208975655     2.549738619304    -0.058036998366     1.007825032230
         H            4.639506975655    -0.423281380696    -1.096254998366     1.007825032230
         H           -3.808615024345    -1.521785380696     1.735560001634     1.007825032230
         H           -3.930766024345     1.446093619304     0.250218001634     1.007825032230
         H           -2.229982024345     1.893432619304    -0.058263998366     1.007825032230
         H           -3.800741024345     3.131434619304    -1.601838998366     1.007825032230
         H           -2.717416024345     2.053875619304    -2.504042998366     1.007825032230
         H           -4.401164024345     1.574875619304    -2.211891998366     1.007825032230

  Basis Set: AUG-CC-PVTZ
    Blend: AUG-CC-PVTZ
  Basis Set: (AUG-CC-PVTZ AUX)
    Blend: AUG-CC-PVTZ-JKFIT
	 Reference Energy          =   -1327.8621074701802627 [Eh]
	 Singles Energy            =      -0.0000000000000000 [Eh]
	 Same-Spin Energy          =      -1.0143602100246434 [Eh]
	 Opposite-Spin Energy      =      -3.0755748582445022 [Eh]
	 Correlation Energy        =      -4.0899350682691455 [Eh]
	 Total Energy              =   -1331.9520425384494047 [Eh]

	 ================> DF-SCS-MP2 Energies <==================
	-----------------------------------------------------------
	 SCS Same-Spin Scale       =       0.3333333333333333 [-]
	 SCS Opposite-Spin Scale   =       1.2000000000000000 [-]
	 SCS Same-Spin Energy      =      -0.3381200700082144 [Eh]
	 SCS Opposite-Spin Energy  =      -3.6906898298934023 [Eh]
	 SCS Correlation Energy    =      -4.0288098999016171 [Eh]
	 SCS Total Energy          =   -1331.8909173700819792 [Eh]
	-----------------------------------------------------------

  Dipole Moment: [D]
     X:    -1.0864      Y:     1.8718      Z:     0.7294     Total:     2.2839

*** Psi4 exiting successfully. Buy a developer a beer!
