                               Psi4 1.3.2 release

  ==> Input File <==

--------------------------------------------------------------------------
#psi4
#
memory 32 gb

molecule  {
0 1
  P       -2.2900960    -0.9400430     0.3446780
  O       -0.9821530    -0.2015620     0.9382890
  O        1.3422500    -1.6754830     1.2308510
  O        0.0787050     2.3596040     0.4621680
  O        3.0685150    -2.1870720    -0.8085900
  O        2.8473350     2.5031130     0.3715350
  O        4.1956880     0.4353970    -0.9728740
  O       -2.8268630     0.0333510    -0.8075310
  O       -3.2591210    -0.7232820     1.6216710
  O       -2.1189930    -2.3436440    -0.0996680
  C        0.1181620     0.0300090     0.0163190
  C        0.9532920    -1.2442050    -0.0757250
  C        0.8985890     1.2026440     0.5648510
  C        2.0877724    -1.0445562    -0.7203660
  C        2.1770750     1.3964720    -0.2280410
  C        3.0258420     0.1487050    -0.2103220
  C       -3.1242130     1.4315980    -0.4888860
  C       -3.5363170     2.0851650    -1.7841190
  H       -0.2830920     0.2988010    -0.9702380
  H        0.3702690    -2.0293640    -0.5720320
  H        1.1571200     0.9978770     1.6121560
  H        2.0609340    -0.7886600    -1.8727560
  H        1.9169870     1.6362870    -1.2735830
  H        3.2958550    -0.0945320     0.8276460
  H        0.5217750    -1.8880320     1.7115100
  H        0.6655400     3.1093110     0.6831840
  H        2.9735430    -2.5473740     0.0946540
  H        3.7214290     2.5491860    -0.0588690
  H        4.6397270    -0.4238340    -1.0970870
  H       -3.8083950    -1.5223380     1.7347280
  H       -3.9305460     1.4455410     0.2493860
  H       -2.2297620     1.8928800    -0.0590960
  H       -3.8005210     3.1308820    -1.6026710
  H       -2.7171960     2.0533230    -2.5048750
  H       -4.4009440     1.5743230    -2.2127240
units angstrom
no_reorient  #important for SAPT in psi4, default
symmetry c1  #important for SAPT in psi4, default
}

set PROPERTIES_ORIGIN ["COM"]
properties('MP2/aug-cc-pvtz', properties = ['dipole'])
--------------------------------------------------------------------------

    Molecular point group: c1
  Charge       = 0
  Multiplicity = 1
  Basis Set: AUG-CC-PVTZ
    Blend: AUG-CC-PVTZ
  Basis Set: (AUG-CC-PVTZ AUX)
    Blend: AUG-CC-PVTZ-JKFIT

    Orbital Energies [Eh]
    ---------------------

    Doubly Occupied:

       1A    -80.118997     2A    -20.616381     3A    -20.610451
       4A    -20.600557     5A    -20.586511     6A    -20.578889
       7A    -20.574736     8A    -20.574431     9A    -20.570897
      10A    -20.525413    11A    -11.326796    12A    -11.303533
      13A    -11.300601    14A    -11.300296    15A    -11.297633
      16A    -11.297111    17A    -11.294429    18A    -11.230726
      19A     -7.634454    20A     -5.532958    21A     -5.532588
      22A     -5.531381    23A     -1.462790    24A     -1.414110
      25A     -1.395461    26A     -1.392234    27A     -1.387966
      28A     -1.374405    29A     -1.358468    30A     -1.341013
      31A     -1.305792    32A     -1.139074    33A     -1.041595
      34A     -1.033970    35A     -1.006030    36A     -0.885387
      37A     -0.867818    38A     -0.850156    39A     -0.824826
      40A     -0.804048    41A     -0.758492    42A     -0.746653
      43A     -0.736935    44A     -0.730164    45A     -0.710360
      46A     -0.688833    47A     -0.679054    48A     -0.675069
      49A     -0.664192    50A     -0.651521    51A     -0.643874
      52A     -0.634112    53A     -0.625786    54A     -0.613205
      55A     -0.603858    56A     -0.592232    57A     -0.581175
      58A     -0.577459    59A     -0.572511    60A     -0.559794
      61A     -0.554112    62A     -0.549881    63A     -0.540664
      64A     -0.532014    65A     -0.529511    66A     -0.524976
      67A     -0.517314    68A     -0.508580    69A     -0.498813
      70A     -0.491747    71A     -0.481715    72A     -0.478613
      73A     -0.465532    74A     -0.454384    75A     -0.452878
      76A     -0.419047

  @DF-RHF Final Energy: -1327.80518506332783

   => Energetics <=

    Nuclear Repulsion Energy =           1775.0648295120847706
    One-Electron Energy =               -5362.0000923939996937
    Two-Electron Energy =                2259.1300778185873241
    Total Energy =                      -1327.8051850633278264
  Basis Set: (AUG-CC-PVTZ AUX)
    Blend: AUG-CC-PVTZ-RI
    Molecular point group: c1

    Geometry (in Angstrom), charge = 0, multiplicity = 1:

       Center              X                  Y                   Z               Mass
    ------------   -----------------  -----------------  -----------------  -----------------
         P           -2.282935500934    -0.938782865976     0.340609227827    30.973761998420
         O           -0.974992500934    -0.200301865976     0.934220227827    15.994914619570
         O            1.349410499066    -1.674222865976     1.226782227827    15.994914619570
         O            0.085865499066     2.360864134024     0.458099227827    15.994914619570
         O            3.075675499066    -2.185811865976    -0.812658772173    15.994914619570
         O            2.854495499066     2.504373134024     0.367466227827    15.994914619570
         O            4.202848499066     0.436657134024    -0.976942772173    15.994914619570
         O           -2.819702500934     0.034611134024    -0.811599772173    15.994914619570
         O           -3.251960500934    -0.722021865976     1.617602227827    15.994914619570
         O           -2.111832500934    -2.342383865976    -0.103736772173    15.994914619570
         C            0.125322499066     0.031269134024     0.012250227827    12.000000000000
         C            0.960452499066    -1.242944865976    -0.079793772173    12.000000000000
         C            0.905749499066     1.203904134024     0.560782227827    12.000000000000
         C            2.094932899066    -1.043296065976    -0.724434772173    12.000000000000
         C            2.184235499066     1.397732134024    -0.232109772173    12.000000000000
         C            3.033002499066     0.149965134024    -0.214390772173    12.000000000000
         C           -3.117052500934     1.432858134024    -0.492954772173    12.000000000000
         C           -3.529156500934     2.086425134024    -1.788187772173    12.000000000000
         H           -0.275931500934     0.300061134024    -0.974306772173     1.007825032230
         H            0.377429499066    -2.028103865976    -0.576100772173     1.007825032230
         H            1.164280499066     0.999137134024     1.608087227827     1.007825032230
         H            2.068094499066    -0.787399865976    -1.876824772173     1.007825032230
         H            1.924147499066     1.637547134024    -1.277651772173     1.007825032230
         H            3.303015499066    -0.093271865976     0.823577227827     1.007825032230
         H            0.528935499066    -1.886771865976     1.707441227827     1.007825032230
         H            0.672700499066     3.110571134024     0.679115227827     1.007825032230
         H            2.980703499066    -2.546113865976     0.090585227827     1.007825032230
         H            3.728589499066     2.550446134024    -0.062937772173     1.007825032230
         H            4.646887499066    -0.422573865976    -1.101155772173     1.007825032230
         H           -3.801234500934    -1.521077865976     1.730659227827     1.007825032230
         H           -3.923385500934     1.446801134024     0.245317227827     1.007825032230
         H           -2.222601500934     1.894140134024    -0.063164772173     1.007825032230
         H           -3.793360500934     3.132142134024    -1.606739772173     1.007825032230
         H           -2.710035500934     2.054583134024    -2.508943772173     1.007825032230
         H           -4.393783500934     1.575583134024    -2.216792772173     1.007825032230

  Basis Set: AUG-CC-PVTZ
    Blend: AUG-CC-PVTZ
  Basis Set: (AUG-CC-PVTZ AUX)
    Blend: AUG-CC-PVTZ-JKFIT
	 Reference Energy          =   -1327.8051850633278264 [Eh]
	 Singles Energy            =      -0.0000000000000000 [Eh]
	 Same-Spin Energy          =      -1.0184623815873224 [Eh]
	 Opposite-Spin Energy      =      -3.0832110000137409 [Eh]
	 Correlation Energy        =      -4.1016733816010635 [Eh]
	 Total Energy              =   -1331.9068584449289574 [Eh]

	 ================> DF-SCS-MP2 Energies <==================
	-----------------------------------------------------------
	 SCS Same-Spin Scale       =       0.3333333333333333 [-]
	 SCS Opposite-Spin Scale   =       1.2000000000000000 [-]
	 SCS Same-Spin Energy      =      -0.3394874605291074 [Eh]
	 SCS Opposite-Spin Energy  =      -3.6998532000164888 [Eh]
	 SCS Correlation Energy    =      -4.0393406605455962 [Eh]
	 SCS Total Energy          =   -1331.8445257238734030 [Eh]
	-----------------------------------------------------------

  Dipole Moment: [D]
     X:    -1.3708      Y:     1.9442      Z:     0.7991     Total:     2.5095

*** Psi4 exiting successfully. Buy a developer a beer!
