                               Psi4 1.3.2 release

  ==> Input File <==

--------------------------------------------------------------------------
#psi4
#
memory 32 gb

molecule  {
0 1
  P       -2.2900960    -0.9400430     0.3446780
  O       -0.9821530    -0.2015620     0.9382890
  O        1.3422500    -1.6754830     1.2308510
  O        0.0607467     2.3457220     0.4521431
  O        3.0685150    -2.1870720    -0.8085900
  O        2.8473350     2.5031130     0.3715350
  O        4.1956880     0.4353970    -0.9728740
  O       -2.8268630     0.0333510    -0.8075310
  O       -3.2591210    -0.7232820     1.6216710
  O       -2.1189930    -2.3436440    -0.0996680
  C        0.0978944     0.0461384     0.0113084
  C        0.9532920    -1.2442050    -0.0757250
  C        0.8985890     1.2026440     0.5648510
  C        2.2596600    -1.0143070    -0.8180370
  C        2.1770750     1.3964720    -0.2280410
  C        3.0258420     0.1487050    -0.2103220
  C       -3.1242130     1.4315980    -0.4888860
  C       -3.5363170     2.0851650    -1.7841190
  H       -0.2830920     0.2988010    -0.9702380
  H        0.3702690    -2.0293640    -0.5720320
  H        1.1571200     0.9978770     1.6121560
  H        2.0609340    -0.7886600    -1.8727560
  H        1.9169870     1.6362870    -1.2735830
  H        3.2958550    -0.0945320     0.8276460
  H        0.5217750    -1.8880320     1.7115100
  H        0.6655400     3.1093110     0.6831840
  H        2.9735430    -2.5473740     0.0946540
  H        3.7214290     2.5491860    -0.0588690
  H        4.6397270    -0.4238340    -1.0970870
  H       -3.8083950    -1.5223380     1.7347280
  H       -3.9305460     1.4455410     0.2493860
  H       -2.2297620     1.8928800    -0.0590960
  H       -3.8005210     3.1308820    -1.6026710
  H       -2.7171960     2.0533230    -2.5048750
  H       -4.4009440     1.5743230    -2.2127240
units angstrom
no_reorient  #important for SAPT in psi4, default
symmetry c1  #important for SAPT in psi4, default
}

set PROPERTIES_ORIGIN ["COM"]
properties('MP2/aug-cc-pvtz', properties = ['dipole'])
--------------------------------------------------------------------------

    Molecular point group: c1
  Charge       = 0
  Multiplicity = 1
  Basis Set: AUG-CC-PVTZ
    Blend: AUG-CC-PVTZ
  Basis Set: (AUG-CC-PVTZ AUX)
    Blend: AUG-CC-PVTZ-JKFIT

    Orbital Energies [Eh]
    ---------------------

    Doubly Occupied:

       1A    -80.117375     2A    -20.615032     3A    -20.608089
       4A    -20.599235     5A    -20.582604     6A    -20.577208
       7A    -20.575671     8A    -20.573909     9A    -20.573855
      10A    -20.523692    11A    -11.318940    12A    -11.302964
      13A    -11.299407    14A    -11.298433    15A    -11.297971
      16A    -11.296827    17A    -11.291167    18A    -11.229937
      19A     -7.632843    20A     -5.531355    21A     -5.530979
      22A     -5.529759    23A     -1.461624    24A     -1.410396
      25A     -1.395346    26A     -1.392101    27A     -1.387132
      28A     -1.372134    29A     -1.362550    30A     -1.353267
      31A     -1.304117    32A     -1.115966    33A     -1.040569
      34A     -1.010647    35A     -1.001174    36A     -0.880914
      37A     -0.865214    38A     -0.856681    39A     -0.823077
      40A     -0.811385    41A     -0.749791    42A     -0.745933
      43A     -0.730234    44A     -0.729574    45A     -0.707444
      46A     -0.684996    47A     -0.677194    48A     -0.673797
      49A     -0.662549    50A     -0.660846    51A     -0.642059
      52A     -0.634320    53A     -0.627527    54A     -0.614767
      55A     -0.603746    56A     -0.597709    57A     -0.581318
      58A     -0.575805    59A     -0.571506    60A     -0.559882
      61A     -0.556171    62A     -0.548226    63A     -0.541256
      64A     -0.536134    65A     -0.531256    66A     -0.522220
      67A     -0.513053    68A     -0.504374    69A     -0.497392
      70A     -0.484872    71A     -0.479599    72A     -0.476451
      73A     -0.461680    74A     -0.455867    75A     -0.447144
      76A     -0.435297

  @DF-RHF Final Energy: -1327.85850526306513

   => Energetics <=

    Nuclear Repulsion Energy =           1772.6461610288251904
    One-Electron Energy =               -5357.4622671739180078
    Two-Electron Energy =                2256.9576008820276911
    Total Energy =                      -1327.8585052630651262
  Basis Set: (AUG-CC-PVTZ AUX)
    Blend: AUG-CC-PVTZ-RI
    Molecular point group: c1

    Geometry (in Angstrom), charge = 0, multiplicity = 1:

       Center              X                  Y                   Z               Mass
    ------------   -----------------  -----------------  -----------------  -----------------
         P           -2.288254507753    -0.939944084513     0.345443365482    30.973761998420
         O           -0.980311507753    -0.201463084513     0.939054365482    15.994914619570
         O            1.344091492247    -1.675384084513     1.231616365482    15.994914619570
         O            0.062588192247     2.345820915487     0.452908465482    15.994914619570
         O            3.070356492247    -2.186973084513    -0.807824634518    15.994914619570
         O            2.849176492247     2.503211915487     0.372300365482    15.994914619570
         O            4.197529492247     0.435495915487    -0.972108634518    15.994914619570
         O           -2.825021507753     0.033449915487    -0.806765634518    15.994914619570
         O           -3.257279507753    -0.723183084513     1.622436365482    15.994914619570
         O           -2.117151507753    -2.343545084513    -0.098902634518    15.994914619570
         C            0.099735892247     0.046237315487     0.012073765482    12.000000000000
         C            0.955133492247    -1.244106084513    -0.074959634518    12.000000000000
         C            0.900430492247     1.202742915487     0.565616365482    12.000000000000
         C            2.261501492247    -1.014208084513    -0.817271634518    12.000000000000
         C            2.178916492247     1.396570915487    -0.227275634518    12.000000000000
         C            3.027683492247     0.148803915487    -0.209556634518    12.000000000000
         C           -3.122371507753     1.431696915487    -0.488120634518    12.000000000000
         C           -3.534475507753     2.085263915487    -1.783353634518    12.000000000000
         H           -0.281250507753     0.298899915487    -0.969472634518     1.007825032230
         H            0.372110492247    -2.029265084513    -0.571266634518     1.007825032230
         H            1.158961492247     0.997975915487     1.612921365482     1.007825032230
         H            2.062775492247    -0.788561084513    -1.871990634518     1.007825032230
         H            1.918828492247     1.636385915487    -1.272817634518     1.007825032230
         H            3.297696492247    -0.094433084513     0.828411365482     1.007825032230
         H            0.523616492247    -1.887933084513     1.712275365482     1.007825032230
         H            0.667381492247     3.109409915487     0.683949365482     1.007825032230
         H            2.975384492247    -2.547275084513     0.095419365482     1.007825032230
         H            3.723270492247     2.549284915487    -0.058103634518     1.007825032230
         H            4.641568492247    -0.423735084513    -1.096321634518     1.007825032230
         H           -3.806553507753    -1.522239084513     1.735493365482     1.007825032230
         H           -3.928704507753     1.445639915487     0.250151365482     1.007825032230
         H           -2.227920507753     1.892978915487    -0.058330634518     1.007825032230
         H           -3.798679507753     3.130980915487    -1.601905634518     1.007825032230
         H           -2.715354507753     2.053421915487    -2.504109634518     1.007825032230
         H           -4.399102507753     1.574421915487    -2.211958634518     1.007825032230

  Basis Set: AUG-CC-PVTZ
    Blend: AUG-CC-PVTZ
  Basis Set: (AUG-CC-PVTZ AUX)
    Blend: AUG-CC-PVTZ-JKFIT
	 Reference Energy          =   -1327.8585052630651262 [Eh]
	 Singles Energy            =      -0.0000000000000000 [Eh]
	 Same-Spin Energy          =      -1.0149262246226816 [Eh]
	 Opposite-Spin Energy      =      -3.0769793363437246 [Eh]
	 Correlation Energy        =      -4.0919055609664063 [Eh]
	 Total Energy              =   -1331.9504108240314508 [Eh]

	 ================> DF-SCS-MP2 Energies <==================
	-----------------------------------------------------------
	 SCS Same-Spin Scale       =       0.3333333333333333 [-]
	 SCS Opposite-Spin Scale   =       1.2000000000000000 [-]
	 SCS Same-Spin Energy      =      -0.3383087415408939 [Eh]
	 SCS Opposite-Spin Energy  =      -3.6923752036124693 [Eh]
	 SCS Correlation Energy    =      -4.0306839451533634 [Eh]
	 SCS Total Energy          =   -1331.8891892082185677 [Eh]
	-----------------------------------------------------------

  Dipole Moment: [D]
     X:    -1.1474      Y:     1.9078      Z:     0.7468     Total:     2.3481

*** Psi4 exiting successfully. Buy a developer a beer!
