                               Psi4 1.4a3.dev225

  ==> Input File <==

--------------------------------------------------------------------------
#psi4
#
memory 32 gb

molecule  {
0 1
  P       -2.3219140    -1.0563120    -0.0968450
  O       -1.0285840    -0.5623410     0.7549430
  O        1.3695440    -1.8069540     1.2202350
  O       -0.1592450     2.1412630     0.5207450
  O        3.3269040    -2.0858120    -0.6453880
  O        2.5724350     2.5270130     0.6374560
  O        4.2203020     0.6406430    -0.6358120
  O       -2.8737010     0.2643620    -0.8096810
  O       -3.3065970    -1.3497020     1.1531960
  O       -2.1044560    -2.1814480    -1.0350500
  C        0.1200290    -0.1583450    -0.0432010
  C        1.0698050    -1.3527180    -0.1046720
  C        0.7441670     1.0454510     0.6308160
  C        2.4193320    -0.9866070    -0.7068450
  C        2.0603010     1.3853380    -0.0470020
  C        3.0180900     0.2181970     0.0056710
  C       -3.2473180     1.4231610     0.0025120
  C       -3.2076300     2.6262440    -0.9075720
  H       -0.2047330     0.1313700    -1.0514980
  H        0.5965010    -2.1549610    -0.6866410
  H        0.9371260     0.8063110     1.6860210
  H        2.3106602    -0.7547925    -1.7219592
  H        1.8633300     1.6367370    -1.1028410
  H        3.2142070    -0.0417910     1.0561650
  H        0.5126160    -2.0057500     1.6426110
  H        0.3598300     2.9232990     0.7925780
  H        3.1793900    -2.4823080     0.2360710
  H        3.4672560     2.6739710     0.2770410
  H        4.7639490    -0.1654590    -0.7244900
  H       -3.7873380    -2.1826420     0.9908450
  H       -4.2474700     1.2335250     0.4005830
  H       -2.5352900     1.5309660     0.8217280
  H       -3.5402110     3.5125760    -0.3587690
  H       -2.1856630     2.7912820    -1.2511950
  H       -3.8637180     2.4807570    -1.7684970
units angstrom
no_reorient  #important for SAPT in psi4, default
symmetry c1  #important for SAPT in psi4, default
}

set PROPERTIES_ORIGIN ["COM"]
properties('MP2/aug-cc-pvtz', properties = ['dipole'])
--------------------------------------------------------------------------

    Molecular point group: c1
  Charge       = 0
  Multiplicity = 1
  Basis Set: AUG-CC-PVTZ
    Blend: AUG-CC-PVTZ
  Basis Set: (AUG-CC-PVTZ AUX)
    Blend: AUG-CC-PVTZ-JKFIT

    Orbital Energies [Eh]
    ---------------------

    Doubly Occupied:

       1A    -80.116868     2A    -20.615034     3A    -20.608127
       4A    -20.596073     5A    -20.583854     6A    -20.578565
       7A    -20.575385     8A    -20.574689     9A    -20.574526
      10A    -20.522586    11A    -11.321482    12A    -11.304930
      13A    -11.300654    14A    -11.298483    15A    -11.296194
      16A    -11.294368    17A    -11.292562    18A    -11.222946
      19A     -7.632131    20A     -5.530666    21A     -5.530164
      22A     -5.529102    23A     -1.458533    24A     -1.410862
      25A     -1.395457    26A     -1.392636    27A     -1.385225
      28A     -1.372720    29A     -1.364116    30A     -1.354168
      31A     -1.302770    32A     -1.119382    33A     -1.035564
      34A     -1.011813    35A     -1.005109    36A     -0.877729
      37A     -0.862467    38A     -0.862053    39A     -0.823921
      40A     -0.811993    41A     -0.754555    42A     -0.746397
      43A     -0.729240    44A     -0.726176    45A     -0.705686
      46A     -0.687271    47A     -0.679388    48A     -0.674411
      49A     -0.662341    50A     -0.659571    51A     -0.642097
      52A     -0.637930    53A     -0.623985    54A     -0.613281
      55A     -0.604486    56A     -0.598483    57A     -0.581051
      58A     -0.577756    59A     -0.570661    60A     -0.560604
      61A     -0.555883    62A     -0.548296    63A     -0.538957
      64A     -0.538551    65A     -0.531171    66A     -0.518305
      67A     -0.508631    68A     -0.503768    69A     -0.494815
      70A     -0.487748    71A     -0.478708    72A     -0.475534
      73A     -0.462707    74A     -0.457237    75A     -0.451024
      76A     -0.436647

  @DF-RHF Final Energy: -1327.86018930787782

   => Energetics <=

    Nuclear Repulsion Energy =           1774.9349138381833200
    One-Electron Energy =               -5362.0516829922471516
    Two-Electron Energy =                2259.2565798461860140
    Total Energy =                      -1327.8601893078780449
  Basis Set: (AUG-CC-PVTZ AUX)
    Blend: AUG-CC-PVTZ-RI
    Molecular point group: c1

    Geometry (in Angstrom), charge = 0, multiplicity = 1:

       Center              X                  Y                   Z               Mass
    ------------   -----------------  -----------------  -----------------  -----------------
         P           -2.311170775779    -1.018494205829    -0.099459098556    30.973761998420
         O           -1.017840775779    -0.524523205829     0.752328901444    15.994914619570
         O            1.380287224221    -1.769136205829     1.217620901444    15.994914619570
         O           -0.148501775779     2.179080794171     0.518130901444    15.994914619570
         O            3.337647224221    -2.047994205829    -0.648002098556    15.994914619570
         O            2.583178224221     2.564830794171     0.634841901444    15.994914619570
         O            4.231045224221     0.678460794171    -0.638426098556    15.994914619570
         O           -2.862957775779     0.302179794171    -0.812295098556    15.994914619570
         O           -3.295853775779    -1.311884205829     1.150581901444    15.994914619570
         O           -2.093712775779    -2.143630205829    -1.037664098556    15.994914619570
         C            0.130772224221    -0.120527205829    -0.045815098556    12.000000000000
         C            1.080548224221    -1.314900205829    -0.107286098556    12.000000000000
         C            0.754910224221     1.083268794171     0.628201901444    12.000000000000
         C            2.430075224221    -0.948789205829    -0.709459098556    12.000000000000
         C            2.071044224221     1.423155794171    -0.049616098556    12.000000000000
         C            3.028833224221     0.256014794171     0.003056901444    12.000000000000
         C           -3.236574775779     1.460978794171    -0.000102098556    12.000000000000
         C           -3.196886775779     2.664061794171    -0.910186098556    12.000000000000
         H           -0.193989775779     0.169187794171    -1.054112098556     1.007825032230
         H            0.607244224221    -2.117143205829    -0.689255098556     1.007825032230
         H            0.947869224221     0.844128794171     1.683406901444     1.007825032230
         H            2.321403424221    -0.716974705829    -1.724573298556     1.007825032230
         H            1.874073224221     1.674554794171    -1.105455098556     1.007825032230
         H            3.224950224221    -0.003973205829     1.053550901444     1.007825032230
         H            0.523359224221    -1.967932205829     1.639996901444     1.007825032230
         H            0.370573224221     2.961116794171     0.789963901444     1.007825032230
         H            3.190133224221    -2.444490205829     0.233456901444     1.007825032230
         H            3.477999224221     2.711788794171     0.274426901444     1.007825032230
         H            4.774692224221    -0.127641205829    -0.727104098556     1.007825032230
         H           -3.776594775779    -2.144824205829     0.988230901444     1.007825032230
         H           -4.236726775779     1.271342794171     0.397968901444     1.007825032230
         H           -2.524546775779     1.568783794171     0.819113901444     1.007825032230
         H           -3.529467775779     3.550393794171    -0.361383098556     1.007825032230
         H           -2.174919775779     2.829099794171    -1.253809098556     1.007825032230
         H           -3.852974775779     2.518574794171    -1.771111098556     1.007825032230

  Basis Set: AUG-CC-PVTZ
    Blend: AUG-CC-PVTZ
  Basis Set: (AUG-CC-PVTZ AUX)
    Blend: AUG-CC-PVTZ-JKFIT
	 Reference Energy          =   -1327.8601893078778176 [Eh]
	 Singles Energy            =      -0.0000000000000000 [Eh]
	 Same-Spin Energy          =      -1.0146288570696105 [Eh]
	 Opposite-Spin Energy      =      -3.0762118718360618 [Eh]
	 Correlation Energy        =      -4.0908407289056719 [Eh]
	 Total Energy              =   -1331.9510300367835498 [Eh]

	 ================> DF-SCS-MP2 Energies <==================
	-----------------------------------------------------------
	 SCS Same-Spin Scale       =       0.3333333333333333 [-]
	 SCS Opposite-Spin Scale   =       1.2000000000000000 [-]
	 SCS Same-Spin Energy      =      -0.3382096190232035 [Eh]
	 SCS Opposite-Spin Energy  =      -3.6914542462032740 [Eh]
	 SCS Correlation Energy    =      -4.0296638652264773 [Eh]
	 SCS Total Energy          =   -1331.8898531731042567 [Eh]
	-----------------------------------------------------------

  Dipole Moment: [D]
     X:    -0.8708      Y:     1.4291      Z:     1.8660     Total:     2.5065

*** Psi4 exiting successfully. Buy a developer a beer!
