                               Psi4 1.3.2 release

  ==> Input File <==

--------------------------------------------------------------------------
#psi4
#
memory 32 gb

molecule  {
0 1
  P       -2.2900960    -0.9400430     0.3446780
  O       -0.9821530    -0.2015620     0.9382890
  O        1.3422500    -1.6754830     1.2308510
  O        0.0787050     2.3596040     0.4621680
  O        3.0685150    -2.1870720    -0.8085900
  O        2.8473350     2.5031130     0.3715350
  O        4.1956880     0.4353970    -0.9728740
  O       -2.8268630     0.0333510    -0.8075310
  O       -3.2591210    -0.7232820     1.6216710
  O       -2.1189930    -2.3436440    -0.0996680
  C        0.1181620     0.0300090     0.0163190
  C        0.9532920    -1.2442050    -0.0757250
  C        0.8915155     1.2051117     0.5539382
  C        2.2596600    -1.0143070    -0.8180370
  C        2.1770750     1.3964720    -0.2280410
  C        3.0258420     0.1487050    -0.2103220
  C       -3.1242130     1.4315980    -0.4888860
  C       -3.5363170     2.0851650    -1.7841190
  H       -0.2830920     0.2988010    -0.9702380
  H        0.3702690    -2.0293640    -0.5720320
  H        1.1571200     0.9978770     1.6121560
  H        2.0609340    -0.7886600    -1.8727560
  H        1.9076363     1.6356942    -1.2713485
  H        3.2958550    -0.0945320     0.8276460
  H        0.5217750    -1.8880320     1.7115100
  H        0.6655400     3.1093110     0.6831840
  H        2.9735430    -2.5473740     0.0946540
  H        3.7214290     2.5491860    -0.0588690
  H        4.6397270    -0.4238340    -1.0970870
  H       -3.8083950    -1.5223380     1.7347280
  H       -3.9305460     1.4455410     0.2493860
  H       -2.2297620     1.8928800    -0.0590960
  H       -3.8005210     3.1308820    -1.6026710
  H       -2.7171960     2.0533230    -2.5048750
  H       -4.4009440     1.5743230    -2.2127240
units angstrom
no_reorient  #important for SAPT in psi4, default
symmetry c1  #important for SAPT in psi4, default
}

set PROPERTIES_ORIGIN ["COM"]
properties('MP2/aug-cc-pvtz', properties = ['dipole'])
--------------------------------------------------------------------------

    Molecular point group: c1
  Charge       = 0
  Multiplicity = 1
  Basis Set: AUG-CC-PVTZ
    Blend: AUG-CC-PVTZ
  Basis Set: (AUG-CC-PVTZ AUX)
    Blend: AUG-CC-PVTZ-JKFIT

    Orbital Energies [Eh]
    ---------------------

    Doubly Occupied:

       1A    -80.117011     2A    -20.614784     3A    -20.607132
       4A    -20.599001     5A    -20.583040     6A    -20.577079
       7A    -20.574613     8A    -20.574092     9A    -20.574082
      10A    -20.523480    11A    -11.320602    12A    -11.303757
      13A    -11.299516    14A    -11.299367    15A    -11.298871
      16A    -11.296679    17A    -11.291579    18A    -11.229966
      19A     -7.632460    20A     -5.530965    21A     -5.530594
      22A     -5.529391    23A     -1.460388    24A     -1.411089
      25A     -1.394843    26A     -1.393727    27A     -1.386953
      28A     -1.373306    29A     -1.364731    30A     -1.354150
      31A     -1.303882    32A     -1.119421    33A     -1.040571
      34A     -1.012450    35A     -1.003469    36A     -0.880538
      37A     -0.865100    38A     -0.858820    39A     -0.822643
      40A     -0.810005    41A     -0.752191    42A     -0.745174
      43A     -0.731546    44A     -0.728814    45A     -0.708087
      46A     -0.687672    47A     -0.678131    48A     -0.673772
      49A     -0.662479    50A     -0.661074    51A     -0.643428
      52A     -0.635416    53A     -0.627407    54A     -0.615532
      55A     -0.603455    56A     -0.598825    57A     -0.582307
      58A     -0.575616    59A     -0.571173    60A     -0.559575
      61A     -0.556760    62A     -0.548639    63A     -0.541251
      64A     -0.536785    65A     -0.529979    66A     -0.521874
      67A     -0.513092    68A     -0.504157    69A     -0.497066
      70A     -0.484444    71A     -0.479956    72A     -0.476687
      73A     -0.461541    74A     -0.456313    75A     -0.449047
      76A     -0.436393

  @DF-RHF Final Energy: -1327.86126208614519

   => Energetics <=

    Nuclear Repulsion Energy =           1772.5962456897136690
    One-Electron Energy =               -5357.3154011983424425
    Two-Electron Energy =                2256.8578934224838122
    Total Energy =                      -1327.8612620861449614
  Basis Set: (AUG-CC-PVTZ AUX)
    Blend: AUG-CC-PVTZ-RI
    Molecular point group: c1

    Geometry (in Angstrom), charge = 0, multiplicity = 1:

       Center              X                  Y                   Z               Mass
    ------------   -----------------  -----------------  -----------------  -----------------
         P           -2.289768585593    -0.940143707379     0.345124776716    30.973761998420
         O           -0.981825585593    -0.201662707379     0.938735776716    15.994914619570
         O            1.342577414407    -1.675583707379     1.231297776716    15.994914619570
         O            0.079032414407     2.359503292621     0.462614776716    15.994914619570
         O            3.068842414407    -2.187172707379    -0.808143223284    15.994914619570
         O            2.847662414407     2.503012292621     0.371981776716    15.994914619570
         O            4.196015414407     0.435296292621    -0.972427223284    15.994914619570
         O           -2.826535585593     0.033250292621    -0.807084223284    15.994914619570
         O           -3.258793585593    -0.723382707379     1.622117776716    15.994914619570
         O           -2.118665585593    -2.343744707379    -0.099221223284    15.994914619570
         C            0.118489414407     0.029908292621     0.016765776716    12.000000000000
         C            0.953619414407    -1.244305707379    -0.075278223284    12.000000000000
         C            0.891842914407     1.205010992621     0.554384976716    12.000000000000
         C            2.259987414407    -1.014407707379    -0.817590223284    12.000000000000
         C            2.177402414407     1.396371292621    -0.227594223284    12.000000000000
         C            3.026169414407     0.148604292621    -0.209875223284    12.000000000000
         C           -3.123885585593     1.431497292621    -0.488439223284    12.000000000000
         C           -3.535989585593     2.085064292621    -1.783672223284    12.000000000000
         H           -0.282764585593     0.298700292621    -0.969791223284     1.007825032230
         H            0.370596414407    -2.029464707379    -0.571585223284     1.007825032230
         H            1.157447414407     0.997776292621     1.612602776716     1.007825032230
         H            2.061261414407    -0.788760707379    -1.872309223284     1.007825032230
         H            1.907963714407     1.635593492621    -1.270901723284     1.007825032230
         H            3.296182414407    -0.094632707379     0.828092776716     1.007825032230
         H            0.522102414407    -1.888132707379     1.711956776716     1.007825032230
         H            0.665867414407     3.109210292621     0.683630776716     1.007825032230
         H            2.973870414407    -2.547474707379     0.095100776716     1.007825032230
         H            3.721756414407     2.549085292621    -0.058422223284     1.007825032230
         H            4.640054414407    -0.423934707379    -1.096640223284     1.007825032230
         H           -3.808067585593    -1.522438707379     1.735174776716     1.007825032230
         H           -3.930218585593     1.445440292621     0.249832776716     1.007825032230
         H           -2.229434585593     1.892779292621    -0.058649223284     1.007825032230
         H           -3.800193585593     3.130781292621    -1.602224223284     1.007825032230
         H           -2.716868585593     2.053222292621    -2.504428223284     1.007825032230
         H           -4.400616585593     1.574222292621    -2.212277223284     1.007825032230

  Basis Set: AUG-CC-PVTZ
    Blend: AUG-CC-PVTZ
  Basis Set: (AUG-CC-PVTZ AUX)
    Blend: AUG-CC-PVTZ-JKFIT
	 Reference Energy          =   -1327.8612620861451887 [Eh]
	 Singles Energy            =      -0.0000000000000000 [Eh]
	 Same-Spin Energy          =      -1.0146528994975645 [Eh]
	 Opposite-Spin Energy      =      -3.0760362345177601 [Eh]
	 Correlation Energy        =      -4.0906891340153244 [Eh]
	 Total Energy              =   -1331.9519512201604812 [Eh]

	 ================> DF-SCS-MP2 Energies <==================
	-----------------------------------------------------------
	 SCS Same-Spin Scale       =       0.3333333333333333 [-]
	 SCS Opposite-Spin Scale   =       1.2000000000000000 [-]
	 SCS Same-Spin Energy      =      -0.3382176331658548 [Eh]
	 SCS Opposite-Spin Energy  =      -3.6912434814213118 [Eh]
	 SCS Correlation Energy    =      -4.0294611145871668 [Eh]
	 SCS Total Energy          =   -1331.8907232007322818 [Eh]
	-----------------------------------------------------------

  Dipole Moment: [D]
     X:    -1.1272      Y:     1.8772      Z:     0.7121     Total:     2.3025

*** Psi4 exiting successfully. Buy a developer a beer!
