                               Psi4 1.3.2 release

  ==> Input File <==

--------------------------------------------------------------------------
#psi4
#
memory 32 gb

molecule  {
0 1
  P       -2.2900960    -0.9400430     0.3446780
  O       -0.9821530    -0.2015620     0.9382890
  O        1.3422500    -1.6754830     1.2308510
  O        0.0787050     2.3596040     0.4621680
  O        3.0685150    -2.1870720    -0.8085900
  O        2.8473350     2.5031130     0.3715350
  O        4.1956880     0.4353970    -0.9728740
  O       -2.8268630     0.0333510    -0.8075310
  O       -3.2591210    -0.7232820     1.6216710
  O       -2.1189930    -2.3436440    -0.0996680
  C        0.1181620     0.0300090     0.0163190
  C        0.9532920    -1.2442050    -0.0757250
  C        0.8985890     1.2026440     0.5648510
  C        2.2557345    -0.9868793    -0.8632632
  C        2.1770750     1.3964720    -0.2280410
  C        3.0258420     0.1487050    -0.2103220
  C       -3.1242130     1.4315980    -0.4888860
  C       -3.5363170     2.0851650    -1.7841190
  H       -0.2830920     0.2988010    -0.9702380
  H        0.3702690    -2.0293640    -0.5720320
  H        1.1571200     0.9978770     1.6121560
  H        2.0609340    -0.7886600    -1.8727560
  H        1.9169870     1.6362870    -1.2735830
  H        3.3128901    -0.0602541     0.8305374
  H        0.5217750    -1.8880320     1.7115100
  H        0.6655400     3.1093110     0.6831840
  H        2.9735430    -2.5473740     0.0946540
  H        3.7214290     2.5491860    -0.0588690
  H        4.6397270    -0.4238340    -1.0970870
  H       -3.8083950    -1.5223380     1.7347280
  H       -3.9305460     1.4455410     0.2493860
  H       -2.2297620     1.8928800    -0.0590960
  H       -3.8005210     3.1308820    -1.6026710
  H       -2.7171960     2.0533230    -2.5048750
  H       -4.4009440     1.5743230    -2.2127240
units angstrom
no_reorient  #important for SAPT in psi4, default
symmetry c1  #important for SAPT in psi4, default
}

set PROPERTIES_ORIGIN ["COM"]
properties('MP2/aug-cc-pvtz', properties = ['dipole'])
--------------------------------------------------------------------------

    Molecular point group: c1
  Charge       = 0
  Multiplicity = 1
  Basis Set: AUG-CC-PVTZ
    Blend: AUG-CC-PVTZ
  Basis Set: (AUG-CC-PVTZ AUX)
    Blend: AUG-CC-PVTZ-JKFIT

    Orbital Energies [Eh]
    ---------------------

    Doubly Occupied:

       1A    -80.116719     2A    -20.614564     3A    -20.606422
       4A    -20.598862     5A    -20.583491     6A    -20.577173
       7A    -20.573653     8A    -20.573086     9A    -20.570461
      10A    -20.523226    11A    -11.320137    12A    -11.304807
      13A    -11.299629    14A    -11.299382    15A    -11.298770
      16A    -11.296659    17A    -11.292492    18A    -11.229932
      19A     -7.632167    20A     -5.530673    21A     -5.530300
      22A     -5.529099    23A     -1.459999    24A     -1.409033
      25A     -1.394693    26A     -1.389942    27A     -1.386539
      28A     -1.372527    29A     -1.361157    30A     -1.349493
      31A     -1.303625    32A     -1.119081    33A     -1.040491
      34A     -1.012648    35A     -1.002570    36A     -0.879244
      37A     -0.864512    38A     -0.861872    39A     -0.823097
      40A     -0.812008    41A     -0.749752    42A     -0.744074
      43A     -0.730968    44A     -0.728262    45A     -0.707710
      46A     -0.687010    47A     -0.676335    48A     -0.673237
      49A     -0.663152    50A     -0.660420    51A     -0.642875
      52A     -0.635483    53A     -0.625781    54A     -0.614729
      55A     -0.604383    56A     -0.599455    57A     -0.582469
      58A     -0.575979    59A     -0.570259    60A     -0.560067
      61A     -0.558105    62A     -0.548598    63A     -0.541661
      64A     -0.534945    65A     -0.530530    66A     -0.521729
      67A     -0.512572    68A     -0.503526    69A     -0.496888
      70A     -0.483847    71A     -0.479608    72A     -0.476451
      73A     -0.461802    74A     -0.454867    75A     -0.449416
      76A     -0.437627

  @DF-RHF Final Energy: -1327.85806166438601

   => Energetics <=

    Nuclear Repulsion Energy =           1771.8797384680935920
    One-Electron Energy =               -5355.9379841712052439
    Two-Electron Energy =                2256.2001840387251832
    Total Energy =                      -1327.8580616643862413
  Basis Set: (AUG-CC-PVTZ AUX)
    Blend: AUG-CC-PVTZ-RI
    Molecular point group: c1

    Geometry (in Angstrom), charge = 0, multiplicity = 1:

       Center              X                  Y                   Z               Mass
    ------------   -----------------  -----------------  -----------------  -----------------
         P           -2.289992039186    -0.941305487495     0.346551900597    30.973761998420
         O           -0.982049039186    -0.202824487495     0.940162900597    15.994914619570
         O            1.342353960814    -1.676745487495     1.232724900597    15.994914619570
         O            0.078808960814     2.358341512505     0.464041900597    15.994914619570
         O            3.068618960814    -2.188334487495    -0.806716099403    15.994914619570
         O            2.847438960814     2.501850512505     0.373408900597    15.994914619570
         O            4.195791960814     0.434134512505    -0.971000099403    15.994914619570
         O           -2.826759039186     0.032088512505    -0.805657099403    15.994914619570
         O           -3.259017039186    -0.724544487495     1.623544900597    15.994914619570
         O           -2.118889039186    -2.344906487495    -0.097794099403    15.994914619570
         C            0.118265960814     0.028746512505     0.018192900597    12.000000000000
         C            0.953395960814    -1.245467487495    -0.073851099403    12.000000000000
         C            0.898692960814     1.201381512505     0.566724900597    12.000000000000
         C            2.255838460814    -0.988141787495    -0.861389299403    12.000000000000
         C            2.177178960814     1.395209512505    -0.226167099403    12.000000000000
         C            3.025945960814     0.147442512505    -0.208448099403    12.000000000000
         C           -3.124109039186     1.430335512505    -0.487012099403    12.000000000000
         C           -3.536213039186     2.083902512505    -1.782245099403    12.000000000000
         H           -0.282988039186     0.297538512505    -0.968364099403     1.007825032230
         H            0.370372960814    -2.030626487495    -0.570158099403     1.007825032230
         H            1.157223960814     0.996614512505     1.614029900597     1.007825032230
         H            2.061037960814    -0.789922487495    -1.870882099403     1.007825032230
         H            1.917090960814     1.635024512505    -1.271709099403     1.007825032230
         H            3.312994060814    -0.061516587495     0.832411300597     1.007825032230
         H            0.521878960814    -1.889294487495     1.713383900597     1.007825032230
         H            0.665643960814     3.108048512505     0.685057900597     1.007825032230
         H            2.973646960814    -2.548636487495     0.096527900597     1.007825032230
         H            3.721532960814     2.547923512505    -0.056995099403     1.007825032230
         H            4.639830960814    -0.425096487495    -1.095213099403     1.007825032230
         H           -3.808291039186    -1.523600487495     1.736601900597     1.007825032230
         H           -3.930442039186     1.444278512505     0.251259900597     1.007825032230
         H           -2.229658039186     1.891617512505    -0.057222099403     1.007825032230
         H           -3.800417039186     3.129619512505    -1.600797099403     1.007825032230
         H           -2.717092039186     2.052060512505    -2.503001099403     1.007825032230
         H           -4.400840039186     1.573060512505    -2.210850099403     1.007825032230

  Basis Set: AUG-CC-PVTZ
    Blend: AUG-CC-PVTZ
  Basis Set: (AUG-CC-PVTZ AUX)
    Blend: AUG-CC-PVTZ-JKFIT
	 Reference Energy          =   -1327.8580616643860139 [Eh]
	 Singles Energy            =      -0.0000000000000000 [Eh]
	 Same-Spin Energy          =      -1.0143640268379832 [Eh]
	 Opposite-Spin Energy      =      -3.0761386266744344 [Eh]
	 Correlation Energy        =      -4.0905026535124174 [Eh]
	 Total Energy              =   -1331.9485643178984446 [Eh]

	 ================> DF-SCS-MP2 Energies <==================
	-----------------------------------------------------------
	 SCS Same-Spin Scale       =       0.3333333333333333 [-]
	 SCS Opposite-Spin Scale   =       1.2000000000000000 [-]
	 SCS Same-Spin Energy      =      -0.3381213422793277 [Eh]
	 SCS Opposite-Spin Energy  =      -3.6913663520093212 [Eh]
	 SCS Correlation Energy    =      -4.0294876942886493 [Eh]
	 SCS Total Energy          =   -1331.8875493586747325 [Eh]
	-----------------------------------------------------------

  Dipole Moment: [D]
     X:    -1.1309      Y:     1.9505      Z:     0.6853     Total:     2.3565

*** Psi4 exiting successfully. Buy a developer a beer!
