                               Psi4 1.3.2 release

  ==> Input File <==

--------------------------------------------------------------------------
#psi4
#
memory 32 gb

molecule  {
0 1
  P       -2.2900960    -0.9400430     0.3446780
  O       -0.9949960    -0.1390595     0.8828087
  O        1.3422500    -1.6754830     1.2308510
  O        0.0787050     2.3596040     0.4621680
  O        3.0685150    -2.1870720    -0.8085900
  O        2.8473350     2.5031130     0.3715350
  O        4.1956880     0.4353970    -0.9728740
  O       -2.7633955     0.0852779    -0.7901810
  O       -3.2591210    -0.7232820     1.6216710
  O       -2.1189930    -2.3436440    -0.0996680
  C        0.1181620     0.0300090     0.0163190
  C        0.9532920    -1.2442050    -0.0757250
  C        0.8985890     1.2026440     0.5648510
  C        2.2596600    -1.0143070    -0.8180370
  C        2.1770750     1.3964720    -0.2280410
  C        3.0258420     0.1487050    -0.2103220
  C       -3.1242130     1.4315980    -0.4888860
  C       -3.5363170     2.0851650    -1.7841190
  H       -0.2830920     0.2988010    -0.9702380
  H        0.3702690    -2.0293640    -0.5720320
  H        1.1571200     0.9978770     1.6121560
  H        2.0609340    -0.7886600    -1.8727560
  H        1.9169870     1.6362870    -1.2735830
  H        3.2958550    -0.0945320     0.8276460
  H        0.5217750    -1.8880320     1.7115100
  H        0.6655400     3.1093110     0.6831840
  H        2.9735430    -2.5473740     0.0946540
  H        3.7214290     2.5491860    -0.0588690
  H        4.6397270    -0.4238340    -1.0970870
  H       -3.8083950    -1.5223380     1.7347280
  H       -3.9305460     1.4455410     0.2493860
  H       -2.2297620     1.8928800    -0.0590960
  H       -3.8005210     3.1308820    -1.6026710
  H       -2.7171960     2.0533230    -2.5048750
  H       -4.4009440     1.5743230    -2.2127240
units angstrom
no_reorient  #important for SAPT in psi4, default
symmetry c1  #important for SAPT in psi4, default
}

set PROPERTIES_ORIGIN ["COM"]
properties('MP2/aug-cc-pvtz', properties = ['dipole'])
--------------------------------------------------------------------------

    Molecular point group: c1
  Charge       = 0
  Multiplicity = 1
  Basis Set: AUG-CC-PVTZ
    Blend: AUG-CC-PVTZ
  Basis Set: (AUG-CC-PVTZ AUX)
    Blend: AUG-CC-PVTZ-JKFIT

    Orbital Energies [Eh]
    ---------------------

    Doubly Occupied:

       1A    -80.122026     2A    -20.621171     3A    -20.602664
       4A    -20.594075     5A    -20.584042     6A    -20.574975
       7A    -20.574388     8A    -20.573189     9A    -20.570589
      10A    -20.532058    11A    -11.315396    12A    -11.302985
      13A    -11.298873    14A    -11.295477    15A    -11.294389
      16A    -11.292972    17A    -11.290358    18A    -11.226658
      19A     -7.637175    20A     -5.535653    21A     -5.535523
      22A     -5.534042    23A     -1.467114    24A     -1.412350
      25A     -1.398040    26A     -1.392962    27A     -1.392067
      28A     -1.372985    29A     -1.362756    30A     -1.352729
      31A     -1.311596    32A     -1.117012    33A     -1.038268
      34A     -1.010460    35A     -1.002240    36A     -0.885185
      37A     -0.865575    38A     -0.858046    39A     -0.821672
      40A     -0.809083    41A     -0.752280    42A     -0.746703
      43A     -0.732968    44A     -0.730660    45A     -0.709916
      46A     -0.686995    47A     -0.679594    48A     -0.675686
      49A     -0.663879    50A     -0.660423    51A     -0.643922
      52A     -0.635520    53A     -0.629603    54A     -0.616160
      55A     -0.602581    56A     -0.597483    57A     -0.583482
      58A     -0.580120    59A     -0.570774    60A     -0.559209
      61A     -0.556083    62A     -0.546404    63A     -0.542279
      64A     -0.535739    65A     -0.526253    66A     -0.520644
      67A     -0.509006    68A     -0.502647    69A     -0.498074
      70A     -0.485664    71A     -0.480582    72A     -0.471599
      73A     -0.461601    74A     -0.454164    75A     -0.448360
      76A     -0.435809

  @DF-RHF Final Energy: -1327.85917231388885

   => Energetics <=

    Nuclear Repulsion Energy =           1775.3726929329613995
    One-Electron Energy =               -5362.8403656672817306
    Two-Electron Energy =                2259.6085004204314828
    Total Energy =                      -1327.8591723138888483
  Basis Set: (AUG-CC-PVTZ AUX)
    Blend: AUG-CC-PVTZ-RI
    Molecular point group: c1

    Geometry (in Angstrom), charge = 0, multiplicity = 1:

       Center              X                  Y                   Z               Mass
    ------------   -----------------  -----------------  -----------------  -----------------
         P           -2.292906949914    -0.946396804473     0.346795218900    30.973761998420
         O           -0.997806949914    -0.145413304473     0.884925918900    15.994914619570
         O            1.339439050086    -1.681836804473     1.232968218900    15.994914619570
         O            0.075894050086     2.353250195527     0.464285218900    15.994914619570
         O            3.065704050086    -2.193425804473    -0.806472781100    15.994914619570
         O            2.844524050086     2.496759195527     0.373652218900    15.994914619570
         O            4.192877050086     0.429043195527    -0.970756781100    15.994914619570
         O           -2.766206449914     0.078924095527    -0.788063781100    15.994914619570
         O           -3.261931949914    -0.729635804473     1.623788218900    15.994914619570
         O           -2.121803949914    -2.349997804473    -0.097550781100    15.994914619570
         C            0.115351050086     0.023655195527     0.018436218900    12.000000000000
         C            0.950481050086    -1.250558804473    -0.073607781100    12.000000000000
         C            0.895778050086     1.196290195527     0.566968218900    12.000000000000
         C            2.256849050086    -1.020660804473    -0.815919781100    12.000000000000
         C            2.174264050086     1.390118195527    -0.225923781100    12.000000000000
         C            3.023031050086     0.142351195527    -0.208204781100    12.000000000000
         C           -3.127023949914     1.425244195527    -0.486768781100    12.000000000000
         C           -3.539127949914     2.078811195527    -1.782001781100    12.000000000000
         H           -0.285902949914     0.292447195527    -0.968120781100     1.007825032230
         H            0.367458050086    -2.035717804473    -0.569914781100     1.007825032230
         H            1.154309050086     0.991523195527     1.614273218900     1.007825032230
         H            2.058123050086    -0.795013804473    -1.870638781100     1.007825032230
         H            1.914176050086     1.629933195527    -1.271465781100     1.007825032230
         H            3.293044050086    -0.100885804473     0.829763218900     1.007825032230
         H            0.518964050086    -1.894385804473     1.713627218900     1.007825032230
         H            0.662729050086     3.102957195527     0.685301218900     1.007825032230
         H            2.970732050086    -2.553727804473     0.096771218900     1.007825032230
         H            3.718618050086     2.542832195527    -0.056751781100     1.007825032230
         H            4.636916050086    -0.430187804473    -1.094969781100     1.007825032230
         H           -3.811205949914    -1.528691804473     1.736845218900     1.007825032230
         H           -3.933356949914     1.439187195527     0.251503218900     1.007825032230
         H           -2.232572949914     1.886526195527    -0.056978781100     1.007825032230
         H           -3.803331949914     3.124528195527    -1.600553781100     1.007825032230
         H           -2.720006949914     2.046969195527    -2.502757781100     1.007825032230
         H           -4.403754949914     1.567969195527    -2.210606781100     1.007825032230

  Basis Set: AUG-CC-PVTZ
    Blend: AUG-CC-PVTZ
  Basis Set: (AUG-CC-PVTZ AUX)
    Blend: AUG-CC-PVTZ-JKFIT
	 Reference Energy          =   -1327.8591723138888483 [Eh]
	 Singles Energy            =      -0.0000000000000000 [Eh]
	 Same-Spin Energy          =      -1.0146094931541747 [Eh]
	 Opposite-Spin Energy      =      -3.0750420174268349 [Eh]
	 Correlation Energy        =      -4.0896515105810094 [Eh]
	 Total Energy              =   -1331.9488238244698550 [Eh]

	 ================> DF-SCS-MP2 Energies <==================
	-----------------------------------------------------------
	 SCS Same-Spin Scale       =       0.3333333333333333 [-]
	 SCS Opposite-Spin Scale   =       1.2000000000000000 [-]
	 SCS Same-Spin Energy      =      -0.3382031643847249 [Eh]
	 SCS Opposite-Spin Energy  =      -3.6900504209122018 [Eh]
	 SCS Correlation Energy    =      -4.0282535852969268 [Eh]
	 SCS Total Energy          =   -1331.8874258991857005 [Eh]
	-----------------------------------------------------------

  Dipole Moment: [D]
     X:    -1.3130      Y:     1.4125      Z:     0.8690     Total:     2.1153

*** Psi4 exiting successfully. Buy a developer a beer!
