                               Psi4 1.3.2 release

  ==> Input File <==

--------------------------------------------------------------------------
#psi4
#
memory 32 gb

molecule  {
0 1
  P       -2.2900960    -0.9400430     0.3446780
  O       -0.9821530    -0.2015620     0.9382890
  O        1.3422500    -1.6754830     1.2308510
  O        0.0787050     2.3596040     0.4621680
  O        3.0685150    -2.1870720    -0.8085900
  O        2.8473350     2.5031130     0.3715350
  O        4.1956880     0.4353970    -0.9728740
  O       -2.8268630     0.0333510    -0.8075310
  O       -3.2591210    -0.7232820     1.6216710
  O       -2.1189930    -2.3436440    -0.0996680
  C        0.1181620     0.0300090     0.0163190
  C        0.9955734    -1.2569050    -0.0095144
  C        0.8985890     1.2026440     0.5648510
  C        2.2596600    -1.0143070    -0.8180370
  C        2.1770750     1.3964720    -0.2280410
  C        3.0258420     0.1487050    -0.2103220
  C       -3.1242130     1.4315980    -0.4888860
  C       -3.5363170     2.0851650    -1.7841190
  H       -0.2830920     0.2988010    -0.9702380
  H        0.3702690    -2.0293640    -0.5720320
  H        1.1571200     0.9978770     1.6121560
  H        2.1175882    -0.7840611    -1.8808837
  H        1.9169870     1.6362870    -1.2735830
  H        3.2958550    -0.0945320     0.8276460
  H        0.5217750    -1.8880320     1.7115100
  H        0.6655400     3.1093110     0.6831840
  H        2.9735430    -2.5473740     0.0946540
  H        3.7214290     2.5491860    -0.0588690
  H        4.6397270    -0.4238340    -1.0970870
  H       -3.8083950    -1.5223380     1.7347280
  H       -3.9305460     1.4455410     0.2493860
  H       -2.2297620     1.8928800    -0.0590960
  H       -3.8005210     3.1308820    -1.6026710
  H       -2.7171960     2.0533230    -2.5048750
  H       -4.4009440     1.5743230    -2.2127240
units angstrom
no_reorient  #important for SAPT in psi4, default
symmetry c1  #important for SAPT in psi4, default
}

set PROPERTIES_ORIGIN ["COM"]
properties('MP2/aug-cc-pvtz', properties = ['dipole'])
--------------------------------------------------------------------------

    Molecular point group: c1
  Charge       = 0
  Multiplicity = 1
  Basis Set: AUG-CC-PVTZ
    Blend: AUG-CC-PVTZ
  Basis Set: (AUG-CC-PVTZ AUX)
    Blend: AUG-CC-PVTZ-JKFIT

    Orbital Energies [Eh]
    ---------------------

    Doubly Occupied:

       1A    -80.116096     2A    -20.614227     3A    -20.605944
       4A    -20.598251     5A    -20.591638     6A    -20.576372
       7A    -20.573631     8A    -20.573237     9A    -20.572343
      10A    -20.522408    11A    -11.318499    12A    -11.305463
      13A    -11.298842    14A    -11.297532    15A    -11.296975
      16A    -11.295979    17A    -11.289942    18A    -11.229391
      19A     -7.631539    20A     -5.530046    21A     -5.529673
      22A     -5.528468    23A     -1.460042    24A     -1.428241
      25A     -1.399051    26A     -1.393447    27A     -1.386263
      28A     -1.377773    29A     -1.365563    30A     -1.354232
      31A     -1.302799    32A     -1.115766    33A     -1.039915
      34A     -1.009064    35A     -0.999066    36A     -0.879686
      37A     -0.864509    38A     -0.855940    39A     -0.821250
      40A     -0.816362    41A     -0.757026    42A     -0.745239
      43A     -0.729967    44A     -0.728776    45A     -0.707528
      46A     -0.689824    47A     -0.685886    48A     -0.674178
      49A     -0.662643    50A     -0.660768    51A     -0.643185
      52A     -0.634663    53A     -0.629208    54A     -0.618201
      55A     -0.602652    56A     -0.598798    57A     -0.581417
      58A     -0.575344    59A     -0.572852    60A     -0.560391
      61A     -0.556270    62A     -0.550439    63A     -0.541384
      64A     -0.538309    65A     -0.531888    66A     -0.522009
      67A     -0.512529    68A     -0.503488    69A     -0.495584
      70A     -0.483592    71A     -0.478434    72A     -0.475523
      73A     -0.460112    74A     -0.455303    75A     -0.442347
      76A     -0.427457

  @DF-RHF Final Energy: -1327.85555733814454

   => Energetics <=

    Nuclear Repulsion Energy =           1772.7426530200552861
    One-Electron Energy =               -5357.5990645571673667
    Two-Electron Energy =                2257.0008541989673176
    Total Energy =                      -1327.8555573381445356
  Basis Set: (AUG-CC-PVTZ AUX)
    Blend: AUG-CC-PVTZ-RI
    Molecular point group: c1

    Geometry (in Angstrom), charge = 0, multiplicity = 1:

       Center              X                  Y                   Z               Mass
    ------------   -----------------  -----------------  -----------------  -----------------
         P           -2.292055532270    -0.939530017698     0.341948236140    30.973761998420
         O           -0.984112532270    -0.201049017698     0.935559236140    15.994914619570
         O            1.340290467730    -1.674970017698     1.228121236140    15.994914619570
         O            0.076745467730     2.360116982302     0.459438236140    15.994914619570
         O            3.066555467730    -2.186559017698    -0.811319763860    15.994914619570
         O            2.845375467730     2.503625982302     0.368805236140    15.994914619570
         O            4.193728467730     0.435909982302    -0.975603763860    15.994914619570
         O           -2.828822532270     0.033863982302    -0.810260763860    15.994914619570
         O           -3.261080532270    -0.722769017698     1.618941236140    15.994914619570
         O           -2.120952532270    -2.343131017698    -0.102397763860    15.994914619570
         C            0.116202467730     0.030521982302     0.013589236140    12.000000000000
         C            0.993613867730    -1.256392017698    -0.012244163860    12.000000000000
         C            0.896629467730     1.203156982302     0.562121236140    12.000000000000
         C            2.257700467730    -1.013794017698    -0.820766763860    12.000000000000
         C            2.175115467730     1.396984982302    -0.230770763860    12.000000000000
         C            3.023882467730     0.149217982302    -0.213051763860    12.000000000000
         C           -3.126172532270     1.432110982302    -0.491615763860    12.000000000000
         C           -3.538276532270     2.085677982302    -1.786848763860    12.000000000000
         H           -0.285051532270     0.299313982302    -0.972967763860     1.007825032230
         H            0.368309467730    -2.028851017698    -0.574761763860     1.007825032230
         H            1.155160467730     0.998389982302     1.609426236140     1.007825032230
         H            2.115628667730    -0.783548117698    -1.883613463860     1.007825032230
         H            1.915027467730     1.636799982302    -1.276312763860     1.007825032230
         H            3.293895467730    -0.094019017698     0.824916236140     1.007825032230
         H            0.519815467730    -1.887519017698     1.708780236140     1.007825032230
         H            0.663580467730     3.109823982302     0.680454236140     1.007825032230
         H            2.971583467730    -2.546861017698     0.091924236140     1.007825032230
         H            3.719469467730     2.549698982302    -0.061598763860     1.007825032230
         H            4.637767467730    -0.423321017698    -1.099816763860     1.007825032230
         H           -3.810354532270    -1.521825017698     1.731998236140     1.007825032230
         H           -3.932505532270     1.446053982302     0.246656236140     1.007825032230
         H           -2.231721532270     1.893392982302    -0.061825763860     1.007825032230
         H           -3.802480532270     3.131394982302    -1.605400763860     1.007825032230
         H           -2.719155532270     2.053835982302    -2.507604763860     1.007825032230
         H           -4.402903532270     1.574835982302    -2.215453763860     1.007825032230

  Basis Set: AUG-CC-PVTZ
    Blend: AUG-CC-PVTZ
  Basis Set: (AUG-CC-PVTZ AUX)
    Blend: AUG-CC-PVTZ-JKFIT
	 Reference Energy          =   -1327.8555573381445356 [Eh]
	 Singles Energy            =      -0.0000000000000000 [Eh]
	 Same-Spin Energy          =      -1.0147756848493077 [Eh]
	 Opposite-Spin Energy      =      -3.0754101892235362 [Eh]
	 Correlation Energy        =      -4.0901858740728443 [Eh]
	 Total Energy              =   -1331.9457432122173941 [Eh]

	 ================> DF-SCS-MP2 Energies <==================
	-----------------------------------------------------------
	 SCS Same-Spin Scale       =       0.3333333333333333 [-]
	 SCS Opposite-Spin Scale   =       1.2000000000000000 [-]
	 SCS Same-Spin Energy      =      -0.3382585616164359 [Eh]
	 SCS Opposite-Spin Energy  =      -3.6904922270682432 [Eh]
	 SCS Correlation Energy    =      -4.0287507886846790 [Eh]
	 SCS Total Energy          =   -1331.8843081268291826 [Eh]
	-----------------------------------------------------------

  Dipole Moment: [D]
     X:    -1.0307      Y:     1.7794      Z:     0.9116     Total:     2.2494

*** Psi4 exiting successfully. Buy a developer a beer!
