                               Psi4 1.3.2 release

  ==> Input File <==

--------------------------------------------------------------------------
#psi4
#
memory 32 gb

molecule  {
0 1
  P       -2.2900960    -0.9400430     0.3446780
  O       -0.9821530    -0.2015620     0.9382890
  O        1.3422500    -1.6754830     1.2308510
  O        0.0787050     2.3596040     0.4621680
  O        3.0685150    -2.1870720    -0.8085900
  O        2.8473350     2.5031130     0.3715350
  O        4.1956880     0.4353970    -0.9728740
  O       -2.8155394     0.0254756    -0.7583054
  O       -3.2591210    -0.7232820     1.6216710
  O       -2.1189930    -2.3436440    -0.0996680
  C        0.1181620     0.0300090     0.0163190
  C        0.9532920    -1.2442050    -0.0757250
  C        0.8985890     1.2026440     0.5648510
  C        2.2596600    -1.0143070    -0.8180370
  C        2.1770750     1.3964720    -0.2280410
  C        3.0258420     0.1487050    -0.2103220
  C       -3.1242130     1.4315980    -0.4888860
  C       -3.5429724     2.1304351    -1.7580886
  H       -0.2830920     0.2988010    -0.9702380
  H        0.3702690    -2.0293640    -0.5720320
  H        1.1571200     0.9978770     1.6121560
  H        2.0609340    -0.7886600    -1.8727560
  H        1.9169870     1.6362870    -1.2735830
  H        3.2958550    -0.0945320     0.8276460
  H        0.5217750    -1.8880320     1.7115100
  H        0.6655400     3.1093110     0.6831840
  H        2.9735430    -2.5473740     0.0946540
  H        3.7214290     2.5491860    -0.0588690
  H        4.6397270    -0.4238340    -1.0970870
  H       -3.8083950    -1.5223380     1.7347280
  H       -3.9305460     1.4455410     0.2493860
  H       -2.2297620     1.8928800    -0.0590960
  H       -3.8005210     3.1308820    -1.6026710
  H       -2.7171960     2.0533230    -2.5048750
  H       -4.4009440     1.5743230    -2.2127240
units angstrom
no_reorient  #important for SAPT in psi4, default
symmetry c1  #important for SAPT in psi4, default
}

set PROPERTIES_ORIGIN ["COM"]
properties('MP2/aug-cc-pvtz', properties = ['dipole'])
--------------------------------------------------------------------------

    Molecular point group: c1
  Charge       = 0
  Multiplicity = 1
  Basis Set: AUG-CC-PVTZ
    Blend: AUG-CC-PVTZ
  Basis Set: (AUG-CC-PVTZ AUX)
    Blend: AUG-CC-PVTZ-JKFIT

    Orbital Energies [Eh]
    ---------------------

    Doubly Occupied:

       1A    -80.112102     2A    -20.610680     3A    -20.603321
       4A    -20.599701     5A    -20.582225     6A    -20.576416
       7A    -20.574085     8A    -20.573711     9A    -20.573071
      10A    -20.521506    11A    -11.319656    12A    -11.303465
      13A    -11.302665    14A    -11.298767    15A    -11.297926
      16A    -11.296191    17A    -11.290966    18A    -11.233654
      19A     -7.628385    20A     -5.526899    21A     -5.526689
      22A     -5.525264    23A     -1.464280    24A     -1.410767
      25A     -1.394340    26A     -1.392338    27A     -1.390096
      28A     -1.371955    29A     -1.363429    30A     -1.353343
      31A     -1.302185    32A     -1.118280    33A     -1.046547
      34A     -1.011131    35A     -1.002796    36A     -0.883226
      37A     -0.868908    38A     -0.858379    39A     -0.820252
      40A     -0.809804    41A     -0.751110    42A     -0.745122
      43A     -0.732248    44A     -0.730391    45A     -0.707251
      46A     -0.687198    47A     -0.677799    48A     -0.673739
      49A     -0.661585    50A     -0.659858    51A     -0.642278
      52A     -0.634076    53A     -0.629925    54A     -0.617017
      55A     -0.602478    56A     -0.597870    57A     -0.586843
      58A     -0.580413    59A     -0.570722    60A     -0.558534
      61A     -0.555684    62A     -0.554355    63A     -0.540931
      64A     -0.536108    65A     -0.526743    66A     -0.522264
      67A     -0.512037    68A     -0.503398    69A     -0.495342
      70A     -0.484493    71A     -0.478604    72A     -0.475566
      73A     -0.461491    74A     -0.455453    75A     -0.449106
      76A     -0.435674

  @DF-RHF Final Energy: -1327.85995250727456

   => Energetics <=

    Nuclear Repulsion Energy =           1774.0107794834634660
    One-Electron Energy =               -5360.1952389865964506
    Two-Electron Energy =                2258.3245069958584281
    Total Energy =                      -1327.8599525072745564
  Basis Set: (AUG-CC-PVTZ AUX)
    Blend: AUG-CC-PVTZ-RI
    Molecular point group: c1

    Geometry (in Angstrom), charge = 0, multiplicity = 1:

       Center              X                  Y                   Z               Mass
    ------------   -----------------  -----------------  -----------------  -----------------
         P           -2.290447473300    -0.941491546421     0.340860313278    30.973761998420
         O           -0.982504473300    -0.203010546421     0.934471313278    15.994914619570
         O            1.341898526700    -1.676931546421     1.227033313278    15.994914619570
         O            0.078353526700     2.358155453579     0.458350313278    15.994914619570
         O            3.068163526700    -2.188520546421    -0.812407686722    15.994914619570
         O            2.846983526700     2.501664453579     0.367717313278    15.994914619570
         O            4.195336526700     0.433948453579    -0.976691686722    15.994914619570
         O           -2.815890873300     0.024027053579    -0.762123086722    15.994914619570
         O           -3.259472473300    -0.724730546421     1.617853313278    15.994914619570
         O           -2.119344473300    -2.345092546421    -0.103485686722    15.994914619570
         C            0.117810526700     0.028560453579     0.012501313278    12.000000000000
         C            0.952940526700    -1.245653546421    -0.079542686722    12.000000000000
         C            0.898237526700     1.201195453579     0.561033313278    12.000000000000
         C            2.259308526700    -1.015755546421    -0.821854686722    12.000000000000
         C            2.176723526700     1.395023453579    -0.231858686722    12.000000000000
         C            3.025490526700     0.147256453579    -0.214139686722    12.000000000000
         C           -3.124564473300     1.430149453579    -0.492703686722    12.000000000000
         C           -3.543323873300     2.128986553579    -1.761906286722    12.000000000000
         H           -0.283443473300     0.297352453579    -0.974055686722     1.007825032230
         H            0.369917526700    -2.030812546421    -0.575849686722     1.007825032230
         H            1.156768526700     0.996428453579     1.608338313278     1.007825032230
         H            2.060582526700    -0.790108546421    -1.876573686722     1.007825032230
         H            1.916635526700     1.634838453579    -1.277400686722     1.007825032230
         H            3.295503526700    -0.095980546421     0.823828313278     1.007825032230
         H            0.521423526700    -1.889480546421     1.707692313278     1.007825032230
         H            0.665188526700     3.107862453579     0.679366313278     1.007825032230
         H            2.973191526700    -2.548822546421     0.090836313278     1.007825032230
         H            3.721077526700     2.547737453579    -0.062686686722     1.007825032230
         H            4.639375526700    -0.425282546421    -1.100904686722     1.007825032230
         H           -3.808746473300    -1.523786546421     1.730910313278     1.007825032230
         H           -3.930897473300     1.444092453579     0.245568313278     1.007825032230
         H           -2.230113473300     1.891431453579    -0.062913686722     1.007825032230
         H           -3.800872473300     3.129433453579    -1.606488686722     1.007825032230
         H           -2.717547473300     2.051874453579    -2.508692686722     1.007825032230
         H           -4.401295473300     1.572874453579    -2.216541686722     1.007825032230

  Basis Set: AUG-CC-PVTZ
    Blend: AUG-CC-PVTZ
  Basis Set: (AUG-CC-PVTZ AUX)
    Blend: AUG-CC-PVTZ-JKFIT
	 Reference Energy          =   -1327.8599525072745564 [Eh]
	 Singles Energy            =      -0.0000000000000000 [Eh]
	 Same-Spin Energy          =      -1.0139563437037691 [Eh]
	 Opposite-Spin Energy      =      -3.0743902804524197 [Eh]
	 Correlation Energy        =      -4.0883466241561885 [Eh]
	 Total Energy              =   -1331.9482991314307583 [Eh]

	 ================> DF-SCS-MP2 Energies <==================
	-----------------------------------------------------------
	 SCS Same-Spin Scale       =       0.3333333333333333 [-]
	 SCS Opposite-Spin Scale   =       1.2000000000000000 [-]
	 SCS Same-Spin Energy      =      -0.3379854479012563 [Eh]
	 SCS Opposite-Spin Energy  =      -3.6892683365429035 [Eh]
	 SCS Correlation Energy    =      -4.0272537844441603 [Eh]
	 SCS Total Energy          =   -1331.8872062917187122 [Eh]
	-----------------------------------------------------------

  Dipole Moment: [D]
     X:    -1.2372      Y:     2.0210      Z:     0.5443     Total:     2.4313

*** Psi4 exiting successfully. Buy a developer a beer!
