                               Psi4 1.3.2 release

  ==> Input File <==

--------------------------------------------------------------------------
#psi4
#
memory 32 gb

molecule  {
0 1
  P       -2.2900960    -0.9400430     0.3446780
  O       -0.9821530    -0.2015620     0.9382890
  O        1.3422500    -1.6754830     1.2308510
  O        0.0787050     2.3596040     0.4621680
  O        3.0685150    -2.1870720    -0.8085900
  O        2.8483103     2.4966991     0.3821539
  O        4.1956880     0.4353970    -0.9728740
  O       -2.8268630     0.0333510    -0.8075310
  O       -3.2591210    -0.7232820     1.6216710
  O       -2.1189930    -2.3436440    -0.0996680
  C        0.1181620     0.0300090     0.0163190
  C        0.9532920    -1.2442050    -0.0757250
  C        0.8985890     1.2026440     0.5648510
  C        2.2596600    -1.0143070    -0.8180370
  C        2.1770750     1.3964720    -0.2280410
  C        3.0258420     0.1487050    -0.2103220
  C       -3.1242130     1.4315980    -0.4888860
  C       -3.5363170     2.0851650    -1.7841190
  H       -0.2830920     0.2988010    -0.9702380
  H        0.3702690    -2.0293640    -0.5720320
  H        1.1571200     0.9978770     1.6121560
  H        2.0609340    -0.7886600    -1.8727560
  H        1.9130036     1.6275702    -1.2745471
  H        3.2958550    -0.0945320     0.8276460
  H        0.5217750    -1.8880320     1.7115100
  H        0.6655400     3.1093110     0.6831840
  H        2.9735430    -2.5473740     0.0946540
  H        3.7214290     2.5491860    -0.0588690
  H        4.6397270    -0.4238340    -1.0970870
  H       -3.8083950    -1.5223380     1.7347280
  H       -3.9305460     1.4455410     0.2493860
  H       -2.2297620     1.8928800    -0.0590960
  H       -3.8005210     3.1308820    -1.6026710
  H       -2.7171960     2.0533230    -2.5048750
  H       -4.4009440     1.5743230    -2.2127240
units angstrom
no_reorient  #important for SAPT in psi4, default
symmetry c1  #important for SAPT in psi4, default
}

set PROPERTIES_ORIGIN ["COM"]
properties('MP2/aug-cc-pvtz', properties = ['dipole'])
--------------------------------------------------------------------------

    Molecular point group: c1
  Charge       = 0
  Multiplicity = 1
  Basis Set: AUG-CC-PVTZ
    Blend: AUG-CC-PVTZ
  Basis Set: (AUG-CC-PVTZ AUX)
    Blend: AUG-CC-PVTZ-JKFIT

    Orbital Energies [Eh]
    ---------------------

    Doubly Occupied:

       1A    -80.116911     2A    -20.614707     3A    -20.606978
       4A    -20.598926     5A    -20.583054     6A    -20.577692
       7A    -20.574519     8A    -20.574047     9A    -20.573491
      10A    -20.523406    11A    -11.320668    12A    -11.303469
      13A    -11.299387    14A    -11.299230    15A    -11.298451
      16A    -11.296755    17A    -11.291167    18A    -11.229879
      19A     -7.632362    20A     -5.530868    21A     -5.530495
      22A     -5.529293    23A     -1.460253    24A     -1.410764
      25A     -1.394573    26A     -1.392932    27A     -1.386840
      28A     -1.372690    29A     -1.363803    30A     -1.353653
      31A     -1.303803    32A     -1.118993    33A     -1.040466
      34A     -1.011936    35A     -1.003333    36A     -0.880158
      37A     -0.864873    38A     -0.858994    39A     -0.822133
      40A     -0.810627    41A     -0.751799    42A     -0.745161
      43A     -0.731483    44A     -0.728484    45A     -0.707656
      46A     -0.687100    47A     -0.678059    48A     -0.673670
      49A     -0.662343    50A     -0.660722    51A     -0.643039
      52A     -0.634949    53A     -0.627280    54A     -0.615295
      55A     -0.603252    56A     -0.598454    57A     -0.581595
      58A     -0.575536    59A     -0.571048    60A     -0.559403
      61A     -0.556632    62A     -0.548392    63A     -0.541198
      64A     -0.536691    65A     -0.529912    66A     -0.521619
      67A     -0.513323    68A     -0.504270    69A     -0.497092
      70A     -0.484720    71A     -0.479834    72A     -0.476586
      73A     -0.462569    74A     -0.455759    75A     -0.450144
      76A     -0.436100

  @DF-RHF Final Energy: -1327.86098558151321

   => Energetics <=

    Nuclear Repulsion Energy =           1772.5289245092428700
    One-Electron Energy =               -5357.2043166218145416
    Two-Electron Energy =                2256.8144065310589212
    Total Energy =                      -1327.8609855815129777
  Basis Set: (AUG-CC-PVTZ AUX)
    Blend: AUG-CC-PVTZ-RI
    Molecular point group: c1

    Geometry (in Angstrom), charge = 0, multiplicity = 1:

       Center              X                  Y                   Z               Mass
    ------------   -----------------  -----------------  -----------------  -----------------
         P           -2.290136185277    -0.939656346215     0.344091737360    30.973761998420
         O           -0.982193185277    -0.201175346215     0.937702737360    15.994914619570
         O            1.342209814723    -1.675096346215     1.230264737360    15.994914619570
         O            0.078664814723     2.359990653785     0.461581737360    15.994914619570
         O            3.068474814723    -2.186685346215    -0.809176262640    15.994914619570
         O            2.848270114723     2.497085753785     0.381567637360    15.994914619570
         O            4.195647814723     0.435783653785    -0.973460262640    15.994914619570
         O           -2.826903185277     0.033737653785    -0.808117262640    15.994914619570
         O           -3.259161185277    -0.722895346215     1.621084737360    15.994914619570
         O           -2.119033185277    -2.343257346215    -0.100254262640    15.994914619570
         C            0.118121814723     0.030395653785     0.015732737360    12.000000000000
         C            0.953251814723    -1.243818346215    -0.076311262640    12.000000000000
         C            0.898548814723     1.203030653785     0.564264737360    12.000000000000
         C            2.259619814723    -1.013920346215    -0.818623262640    12.000000000000
         C            2.177034814723     1.396858653785    -0.228627262640    12.000000000000
         C            3.025801814723     0.149091653785    -0.210908262640    12.000000000000
         C           -3.124253185277     1.431984653785    -0.489472262640    12.000000000000
         C           -3.536357185277     2.085551653785    -1.784705262640    12.000000000000
         H           -0.283132185277     0.299187653785    -0.970824262640     1.007825032230
         H            0.370228814723    -2.028977346215    -0.572618262640     1.007825032230
         H            1.157079814723     0.998263653785     1.611569737360     1.007825032230
         H            2.060893814723    -0.788273346215    -1.873342262640     1.007825032230
         H            1.912963414723     1.627956853785    -1.275133362640     1.007825032230
         H            3.295814814723    -0.094145346215     0.827059737360     1.007825032230
         H            0.521734814723    -1.887645346215     1.710923737360     1.007825032230
         H            0.665499814723     3.109697653785     0.682597737360     1.007825032230
         H            2.973502814723    -2.546987346215     0.094067737360     1.007825032230
         H            3.721388814723     2.549572653785    -0.059455262640     1.007825032230
         H            4.639686814723    -0.423447346215    -1.097673262640     1.007825032230
         H           -3.808435185277    -1.521951346215     1.734141737360     1.007825032230
         H           -3.930586185277     1.445927653785     0.248799737360     1.007825032230
         H           -2.229802185277     1.893266653785    -0.059682262640     1.007825032230
         H           -3.800561185277     3.131268653785    -1.603257262640     1.007825032230
         H           -2.717236185277     2.053709653785    -2.505461262640     1.007825032230
         H           -4.400984185277     1.574709653785    -2.213310262640     1.007825032230

  Basis Set: AUG-CC-PVTZ
    Blend: AUG-CC-PVTZ
  Basis Set: (AUG-CC-PVTZ AUX)
    Blend: AUG-CC-PVTZ-JKFIT
	 Reference Energy          =   -1327.8609855815132050 [Eh]
	 Singles Energy            =      -0.0000000000000000 [Eh]
	 Same-Spin Energy          =      -1.0147016401970133 [Eh]
	 Opposite-Spin Energy      =      -3.0763023263171179 [Eh]
	 Correlation Energy        =      -4.0910039665141316 [Eh]
	 Total Energy              =   -1331.9519895480273135 [Eh]

	 ================> DF-SCS-MP2 Energies <==================
	-----------------------------------------------------------
	 SCS Same-Spin Scale       =       0.3333333333333333 [-]
	 SCS Opposite-Spin Scale   =       1.2000000000000000 [-]
	 SCS Same-Spin Energy      =      -0.3382338800656711 [Eh]
	 SCS Opposite-Spin Energy  =      -3.6915627915805413 [Eh]
	 SCS Correlation Energy    =      -4.0297966716462126 [Eh]
	 SCS Total Energy          =   -1331.8907822531593865 [Eh]
	-----------------------------------------------------------

  Dipole Moment: [D]
     X:    -1.1133      Y:     1.8830      Z:     0.7051     Total:     2.2984

*** Psi4 exiting successfully. Buy a developer a beer!
