                               Psi4 1.4a3.dev225

  ==> Input File <==

--------------------------------------------------------------------------
#psi4
#
memory 32 gb

molecule  {
0 1
  P       -2.3219140    -1.0563120    -0.0968450
  O       -1.0285840    -0.5623410     0.7549430
  O        1.3695440    -1.8069540     1.2202350
  O       -0.1592450     2.1412630     0.5207450
  O        3.3269040    -2.0858120    -0.6453880
  O        2.5724350     2.5270130     0.6374560
  O        4.2203020     0.6406430    -0.6358120
  O       -2.8737010     0.2643620    -0.8096810
  O       -3.3065970    -1.3497020     1.1531960
  O       -2.1044560    -2.1814480    -1.0350500
  C        0.1200290    -0.1583450    -0.0432010
  C        1.0698050    -1.3527180    -0.1046720
  C        0.7441670     1.0454510     0.6308160
  C        2.4193320    -0.9866070    -0.7068450
  C        2.0603010     1.3853380    -0.0470020
  C        3.0180900     0.2181970     0.0056710
  C       -3.2473180     1.4231610     0.0025120
  C       -3.2076300     2.6262440    -0.9075720
  H       -0.2047330     0.1313700    -1.0514980
  H        0.6180478    -2.1184395    -0.6601473
  H        0.9371260     0.8063110     1.6860210
  H        2.3054700    -0.7437210    -1.7704410
  H        1.8633300     1.6367370    -1.1028410
  H        3.2142070    -0.0417910     1.0561650
  H        0.5126160    -2.0057500     1.6426110
  H        0.3598300     2.9232990     0.7925780
  H        3.1793900    -2.4823080     0.2360710
  H        3.4672560     2.6739710     0.2770410
  H        4.7639490    -0.1654590    -0.7244900
  H       -3.7873380    -2.1826420     0.9908450
  H       -4.2474700     1.2335250     0.4005830
  H       -2.5352900     1.5309660     0.8217280
  H       -3.5402110     3.5125760    -0.3587690
  H       -2.1856630     2.7912820    -1.2511950
  H       -3.8637180     2.4807570    -1.7684970
units angstrom
no_reorient  #important for SAPT in psi4, default
symmetry c1  #important for SAPT in psi4, default
}

set PROPERTIES_ORIGIN ["COM"]
properties('MP2/aug-cc-pvtz', properties = ['dipole'])
--------------------------------------------------------------------------

    Molecular point group: c1
  Charge       = 0
  Multiplicity = 1
  Basis Set: AUG-CC-PVTZ
    Blend: AUG-CC-PVTZ
  Basis Set: (AUG-CC-PVTZ AUX)
    Blend: AUG-CC-PVTZ-JKFIT

    Orbital Energies [Eh]
    ---------------------

    Doubly Occupied:

       1A    -80.116928     2A    -20.615080     3A    -20.608182
       4A    -20.596090     5A    -20.583559     6A    -20.578443
       7A    -20.575305     8A    -20.575232     9A    -20.574533
      10A    -20.522744    11A    -11.321153    12A    -11.300456
      13A    -11.300377    14A    -11.299649    15A    -11.298300
      16A    -11.296187    17A    -11.292874    18A    -11.222922
      19A     -7.632193    20A     -5.530728    21A     -5.530225
      22A     -5.529165    23A     -1.458592    24A     -1.410958
      25A     -1.395421    26A     -1.392726    27A     -1.385247
      28A     -1.372670    29A     -1.364187    30A     -1.354238
      31A     -1.302874    32A     -1.119080    33A     -1.035551
      34A     -1.012015    35A     -1.005132    36A     -0.879179
      37A     -0.862885    38A     -0.860714    39A     -0.822900
      40A     -0.810212    41A     -0.754494    42A     -0.746804
      43A     -0.731708    44A     -0.726374    45A     -0.705979
      46A     -0.687534    47A     -0.680117    48A     -0.674589
      49A     -0.662341    50A     -0.659482    51A     -0.643432
      52A     -0.637976    53A     -0.623915    54A     -0.613486
      55A     -0.604422    56A     -0.596994    57A     -0.580908
      58A     -0.577789    59A     -0.570412    60A     -0.560061
      61A     -0.555728    62A     -0.548591    63A     -0.539250
      64A     -0.537817    65A     -0.530334    66A     -0.517854
      67A     -0.508603    68A     -0.503771    69A     -0.494981
      70A     -0.487487    71A     -0.478813    72A     -0.475570
      73A     -0.462845    74A     -0.457225    75A     -0.451612
      76A     -0.437889

  @DF-RHF Final Energy: -1327.86042207226478

   => Energetics <=

    Nuclear Repulsion Energy =           1774.9305982810869864
    One-Electron Energy =               -5362.0378566711697204
    Two-Electron Energy =                2259.2468363178177242
    Total Energy =                      -1327.8604220722650098
  Basis Set: (AUG-CC-PVTZ AUX)
    Blend: AUG-CC-PVTZ-RI
    Molecular point group: c1

    Geometry (in Angstrom), charge = 0, multiplicity = 1:

       Center              X                  Y                   Z               Mass
    ------------   -----------------  -----------------  -----------------  -----------------
         P           -2.311228001817    -1.018660717136    -0.099382169863    30.973761998420
         O           -1.017898001817    -0.524689717136     0.752405830137    15.994914619570
         O            1.380229998183    -1.769302717136     1.217697830137    15.994914619570
         O           -0.148559001817     2.178914282864     0.518207830137    15.994914619570
         O            3.337589998183    -2.048160717136    -0.647925169863    15.994914619570
         O            2.583120998183     2.564664282864     0.634918830137    15.994914619570
         O            4.230987998183     0.678294282864    -0.638349169863    15.994914619570
         O           -2.863015001817     0.302013282864    -0.812218169863    15.994914619570
         O           -3.295911001817    -1.312050717136     1.150658830137    15.994914619570
         O           -2.093770001817    -2.143796717136    -1.037587169863    15.994914619570
         C            0.130714998183    -0.120693717136    -0.045738169863    12.000000000000
         C            1.080490998183    -1.315066717136    -0.107209169863    12.000000000000
         C            0.754852998183     1.083102282864     0.628278830137    12.000000000000
         C            2.430017998183    -0.948955717136    -0.709382169863    12.000000000000
         C            2.070986998183     1.422989282864    -0.049539169863    12.000000000000
         C            3.028775998183     0.255848282864     0.003133830137    12.000000000000
         C           -3.236632001817     1.460812282864    -0.000025169863    12.000000000000
         C           -3.196944001817     2.663895282864    -0.910109169863    12.000000000000
         H           -0.194047001817     0.169021282864    -1.054035169863     1.007825032230
         H            0.628733798183    -2.080788217136    -0.662684469863     1.007825032230
         H            0.947811998183     0.843962282864     1.683483830137     1.007825032230
         H            2.316155998183    -0.706069717136    -1.772978169863     1.007825032230
         H            1.874015998183     1.674388282864    -1.105378169863     1.007825032230
         H            3.224892998183    -0.004139717136     1.053627830137     1.007825032230
         H            0.523301998183    -1.968098717136     1.640073830137     1.007825032230
         H            0.370515998183     2.960950282864     0.790040830137     1.007825032230
         H            3.190075998183    -2.444656717136     0.233533830137     1.007825032230
         H            3.477941998183     2.711622282864     0.274503830137     1.007825032230
         H            4.774634998183    -0.127807717136    -0.727027169863     1.007825032230
         H           -3.776652001817    -2.144990717136     0.988307830137     1.007825032230
         H           -4.236784001817     1.271176282864     0.398045830137     1.007825032230
         H           -2.524604001817     1.568617282864     0.819190830137     1.007825032230
         H           -3.529525001817     3.550227282864    -0.361306169863     1.007825032230
         H           -2.174977001817     2.828933282864    -1.253732169863     1.007825032230
         H           -3.853032001817     2.518408282864    -1.771034169863     1.007825032230

  Basis Set: AUG-CC-PVTZ
    Blend: AUG-CC-PVTZ
  Basis Set: (AUG-CC-PVTZ AUX)
    Blend: AUG-CC-PVTZ-JKFIT
	 Reference Energy          =   -1327.8604220722647824 [Eh]
	 Singles Energy            =      -0.0000000000000000 [Eh]
	 Same-Spin Energy          =      -1.0145550045929363 [Eh]
	 Opposite-Spin Energy      =      -3.0761182247470957 [Eh]
	 Correlation Energy        =      -4.0906732293400321 [Eh]
	 Total Energy              =   -1331.9510953016047097 [Eh]

	 ================> DF-SCS-MP2 Energies <==================
	-----------------------------------------------------------
	 SCS Same-Spin Scale       =       0.3333333333333333 [-]
	 SCS Opposite-Spin Scale   =       1.2000000000000000 [-]
	 SCS Same-Spin Energy      =      -0.3381850015309787 [Eh]
	 SCS Opposite-Spin Energy  =      -3.6913418696965148 [Eh]
	 SCS Correlation Energy    =      -4.0295268712274934 [Eh]
	 SCS Total Energy          =   -1331.8899489434922998 [Eh]
	-----------------------------------------------------------

  Dipole Moment: [D]
     X:    -0.8669      Y:     1.4147      Z:     1.8664     Total:     2.4973

*** Psi4 exiting successfully. Buy a developer a beer!
