                               Psi4 1.3.2 release

  ==> Input File <==

--------------------------------------------------------------------------
#psi4
#
memory 32 gb

molecule  {
0 1
  P       -2.2900960    -0.9400430     0.3446780
  O       -0.9821530    -0.2015620     0.9382890
  O        1.3422500    -1.6754830     1.2308510
  O        0.0787050     2.3596040     0.4621680
  O        3.0685150    -2.1870720    -0.8085900
  O        2.8473350     2.5031130     0.3715350
  O        4.1956880     0.4353970    -0.9728740
  O       -2.8268630     0.0333510    -0.8075310
  O       -3.2591210    -0.7232820     1.6216710
  O       -2.1189930    -2.3436440    -0.0996680
  C        0.1181620     0.0300090     0.0163190
  C        0.9532920    -1.2442050    -0.0757250
  C        0.8985890     1.2026440     0.5648510
  C        2.2596600    -1.0143070    -0.8180370
  C        2.1770750     1.3964720    -0.2280410
  C        3.0265588     0.1494485    -0.1971925
  C       -3.1242130     1.4315980    -0.4888860
  C       -3.5363170     2.0851650    -1.7841190
  H       -0.2830920     0.2988010    -0.9702380
  H        0.3702690    -2.0293640    -0.5720320
  H        1.1571200     0.9978770     1.6121560
  H        2.0609340    -0.7886600    -1.8727560
  H        1.9120478     1.6439785    -1.2705458
  H        3.2958550    -0.0945320     0.8276460
  H        0.5217750    -1.8880320     1.7115100
  H        0.6655400     3.1093110     0.6831840
  H        2.9735430    -2.5473740     0.0946540
  H        3.7214290     2.5491860    -0.0588690
  H        4.6397270    -0.4238340    -1.0970870
  H       -3.8083950    -1.5223380     1.7347280
  H       -3.9305460     1.4455410     0.2493860
  H       -2.2297620     1.8928800    -0.0590960
  H       -3.8005210     3.1308820    -1.6026710
  H       -2.7171960     2.0533230    -2.5048750
  H       -4.4009440     1.5743230    -2.2127240
units angstrom
no_reorient  #important for SAPT in psi4, default
symmetry c1  #important for SAPT in psi4, default
}

set PROPERTIES_ORIGIN ["COM"]
properties('MP2/aug-cc-pvtz', properties = ['dipole'])
--------------------------------------------------------------------------

    Molecular point group: c1
  Charge       = 0
  Multiplicity = 1
  Basis Set: AUG-CC-PVTZ
    Blend: AUG-CC-PVTZ
  Basis Set: (AUG-CC-PVTZ AUX)
    Blend: AUG-CC-PVTZ-JKFIT

    Orbital Energies [Eh]
    ---------------------

    Doubly Occupied:

       1A    -80.116967     2A    -20.614759     3A    -20.607066
       4A    -20.598966     5A    -20.583278     6A    -20.576449
       7A    -20.574560     8A    -20.573525     9A    -20.573363
      10A    -20.523448    11A    -11.320792    12A    -11.303355
      13A    -11.299655    14A    -11.299415    15A    -11.298556
      16A    -11.296754    17A    -11.291254    18A    -11.229893
      19A     -7.632417    20A     -5.530924    21A     -5.530551
      22A     -5.529348    23A     -1.460317    24A     -1.410614
      25A     -1.394116    26A     -1.392942    27A     -1.386840
      28A     -1.371958    29A     -1.363929    30A     -1.352943
      31A     -1.303845    32A     -1.118877    33A     -1.040484
      34A     -1.011809    35A     -1.003295    36A     -0.880416
      37A     -0.865009    38A     -0.858542    39A     -0.822708
      40A     -0.811207    41A     -0.751644    42A     -0.744961
      43A     -0.731275    44A     -0.728697    45A     -0.707971
      46A     -0.687044    47A     -0.678021    48A     -0.673440
      49A     -0.661857    50A     -0.660795    51A     -0.643056
      52A     -0.634766    53A     -0.627297    54A     -0.615402
      55A     -0.603558    56A     -0.598973    57A     -0.581567
      58A     -0.575593    59A     -0.571117    60A     -0.559388
      61A     -0.556173    62A     -0.548495    63A     -0.541178
      64A     -0.536170    65A     -0.529918    66A     -0.521672
      67A     -0.512924    68A     -0.504796    69A     -0.497045
      70A     -0.485001    71A     -0.479858    72A     -0.476679
      73A     -0.462374    74A     -0.457373    75A     -0.450006
      76A     -0.435706

  @DF-RHF Final Energy: -1327.86120095060937

   => Energetics <=

    Nuclear Repulsion Energy =           1772.3664365076081140
    One-Electron Energy =               -5356.8814018750417745
    Two-Electron Energy =                2256.6537644168242878
    Total Energy =                      -1327.8612009506091454
  Basis Set: (AUG-CC-PVTZ AUX)
    Blend: AUG-CC-PVTZ-RI
    Molecular point group: c1

    Geometry (in Angstrom), charge = 0, multiplicity = 1:

       Center              X                  Y                   Z               Mass
    ------------   -----------------  -----------------  -----------------  -----------------
         P           -2.290108546968    -0.940100864806     0.344120418049    30.973761998420
         O           -0.982165546968    -0.201619864806     0.937731418049    15.994914619570
         O            1.342237453032    -1.675540864806     1.230293418049    15.994914619570
         O            0.078692453032     2.359546135194     0.461610418049    15.994914619570
         O            3.068502453032    -2.187129864806    -0.809147581951    15.994914619570
         O            2.847322453032     2.503055135194     0.370977418049    15.994914619570
         O            4.195675453032     0.435339135194    -0.973431581951    15.994914619570
         O           -2.826875546968     0.033293135194    -0.808088581951    15.994914619570
         O           -3.259133546968    -0.723339864806     1.621113418049    15.994914619570
         O           -2.119005546968    -2.343701864806    -0.100225581951    15.994914619570
         C            0.118149453032     0.029951135194     0.015761418049    12.000000000000
         C            0.953279453032    -1.244262864806    -0.076282581951    12.000000000000
         C            0.898576453032     1.202586135194     0.564293418049    12.000000000000
         C            2.259647453032    -1.014364864806    -0.818594581951    12.000000000000
         C            2.177062453032     1.396414135194    -0.228598581951    12.000000000000
         C            3.026546253032     0.149390635194    -0.197750081951    12.000000000000
         C           -3.124225546968     1.431540135194    -0.489443581951    12.000000000000
         C           -3.536329546968     2.085107135194    -1.784676581951    12.000000000000
         H           -0.283104546968     0.298743135194    -0.970795581951     1.007825032230
         H            0.370256453032    -2.029421864806    -0.572589581951     1.007825032230
         H            1.157107453032     0.997819135194     1.611598418049     1.007825032230
         H            2.060921453032    -0.788717864806    -1.873313581951     1.007825032230
         H            1.912035253032     1.643920635194    -1.271103381951     1.007825032230
         H            3.295842453032    -0.094589864806     0.827088418049     1.007825032230
         H            0.521762453032    -1.888089864806     1.710952418049     1.007825032230
         H            0.665527453032     3.109253135194     0.682626418049     1.007825032230
         H            2.973530453032    -2.547431864806     0.094096418049     1.007825032230
         H            3.721416453032     2.549128135194    -0.059426581951     1.007825032230
         H            4.639714453032    -0.423891864806    -1.097644581951     1.007825032230
         H           -3.808407546968    -1.522395864806     1.734170418049     1.007825032230
         H           -3.930558546968     1.445483135194     0.248828418049     1.007825032230
         H           -2.229774546968     1.892822135194    -0.059653581951     1.007825032230
         H           -3.800533546968     3.130824135194    -1.603228581951     1.007825032230
         H           -2.717208546968     2.053265135194    -2.505432581951     1.007825032230
         H           -4.400956546968     1.574265135194    -2.213281581951     1.007825032230

  Basis Set: AUG-CC-PVTZ
    Blend: AUG-CC-PVTZ
  Basis Set: (AUG-CC-PVTZ AUX)
    Blend: AUG-CC-PVTZ-JKFIT
	 Reference Energy          =   -1327.8612009506093727 [Eh]
	 Singles Energy            =      -0.0000000000000000 [Eh]
	 Same-Spin Energy          =      -1.0145640250243704 [Eh]
	 Opposite-Spin Energy      =      -3.0761508951340377 [Eh]
	 Correlation Energy        =      -4.0907149201584083 [Eh]
	 Total Energy              =   -1331.9519158707678343 [Eh]

	 ================> DF-SCS-MP2 Energies <==================
	-----------------------------------------------------------
	 SCS Same-Spin Scale       =       0.3333333333333333 [-]
	 SCS Opposite-Spin Scale   =       1.2000000000000000 [-]
	 SCS Same-Spin Energy      =      -0.3381880083414568 [Eh]
	 SCS Opposite-Spin Energy  =      -3.6913810741608453 [Eh]
	 SCS Correlation Energy    =      -4.0295690825023023 [Eh]
	 SCS Total Energy          =   -1331.8907700331117212 [Eh]
	-----------------------------------------------------------

  Dipole Moment: [D]
     X:    -1.1269      Y:     1.8585      Z:     0.7384     Total:     2.2954

*** Psi4 exiting successfully. Buy a developer a beer!
