                               Psi4 1.3.2 release

  ==> Input File <==

--------------------------------------------------------------------------
#psi4
#
memory 32 gb

molecule  {
0 1
  P       -2.2900960    -0.9400430     0.3446780
  O       -0.9821530    -0.2015620     0.9382890
  O        1.3422500    -1.6754830     1.2308510
  O        0.0787050     2.3596040     0.4621680
  O        3.0685150    -2.1870720    -0.8085900
  O        2.8473350     2.5031130     0.3715350
  O        4.1956880     0.4353970    -0.9728740
  O       -2.8268630     0.0333510    -0.8075310
  O       -3.2591210    -0.7232820     1.6216710
  O       -2.1189930    -2.3436440    -0.0996680
  C        0.1181620     0.0300090     0.0163190
  C        0.9532920    -1.2442050    -0.0757250
  C        0.8985890     1.2026440     0.5648510
  C        2.2596600    -1.0143070    -0.8180370
  C        2.1671666     1.3986366    -0.2208306
  C        3.0258420     0.1487050    -0.2103220
  C       -3.1242130     1.4315980    -0.4888860
  C       -3.5363170     2.0851650    -1.7841190
  H       -0.2830920     0.2988010    -0.9702380
  H        0.3702690    -2.0293640    -0.5720320
  H        1.1571200     0.9978770     1.6121560
  H        2.0609340    -0.7886600    -1.8727560
  H        1.9169870     1.6362870    -1.2735830
  H        3.2958550    -0.0945320     0.8276460
  H        0.5217750    -1.8880320     1.7115100
  H        0.6655400     3.1093110     0.6831840
  H        2.9735430    -2.5473740     0.0946540
  H        3.7233948     2.5559357    -0.0540700
  H        4.6397270    -0.4238340    -1.0970870
  H       -3.8083950    -1.5223380     1.7347280
  H       -3.9305460     1.4455410     0.2493860
  H       -2.2297620     1.8928800    -0.0590960
  H       -3.8005210     3.1308820    -1.6026710
  H       -2.7171960     2.0533230    -2.5048750
  H       -4.4009440     1.5743230    -2.2127240
units angstrom
no_reorient  #important for SAPT in psi4, default
symmetry c1  #important for SAPT in psi4, default
}

set PROPERTIES_ORIGIN ["COM"]
properties('MP2/aug-cc-pvtz', properties = ['dipole'])
--------------------------------------------------------------------------

    Molecular point group: c1
  Charge       = 0
  Multiplicity = 1
  Basis Set: AUG-CC-PVTZ
    Blend: AUG-CC-PVTZ
  Basis Set: (AUG-CC-PVTZ AUX)
    Blend: AUG-CC-PVTZ-JKFIT

    Orbital Energies [Eh]
    ---------------------

    Doubly Occupied:

       1A    -80.117067     2A    -20.614827     3A    -20.607252
       4A    -20.599024     5A    -20.583162     6A    -20.576356
       7A    -20.574395     8A    -20.574072     9A    -20.573496
      10A    -20.523524    11A    -11.321124    12A    -11.303571
      13A    -11.299445    14A    -11.299110    15A    -11.298461
      16A    -11.297017    17A    -11.291640    18A    -11.229901
      19A     -7.632515    20A     -5.531021    21A     -5.530649
      22A     -5.529446    23A     -1.460426    24A     -1.410812
      25A     -1.394435    26A     -1.393109    27A     -1.386939
      28A     -1.372793    29A     -1.363766    30A     -1.353613
      31A     -1.303920    32A     -1.119547    33A     -1.040503
      34A     -1.011284    35A     -1.004684    36A     -0.880925
      37A     -0.865147    38A     -0.858529    39A     -0.822532
      40A     -0.810536    41A     -0.751780    42A     -0.745001
      43A     -0.731452    44A     -0.728801    45A     -0.708381
      46A     -0.687193    47A     -0.678063    48A     -0.673731
      49A     -0.662242    50A     -0.661096    51A     -0.643571
      52A     -0.635347    53A     -0.627213    54A     -0.615149
      55A     -0.603932    56A     -0.598379    57A     -0.581697
      58A     -0.575624    59A     -0.571180    60A     -0.558933
      61A     -0.556233    62A     -0.548693    63A     -0.541182
      64A     -0.536004    65A     -0.530011    66A     -0.522227
      67A     -0.512973    68A     -0.504227    69A     -0.497353
      70A     -0.484970    71A     -0.479949    72A     -0.476686
      73A     -0.463354    74A     -0.454372    75A     -0.450276
      76A     -0.436026

  @DF-RHF Final Energy: -1327.86142281318780

   => Energetics <=

    Nuclear Repulsion Energy =           1772.5296302191700306
    One-Electron Energy =               -5357.1943520872564477
    Two-Electron Energy =                2256.8032990548986163
    Total Energy =                      -1327.8614228131878008
  Basis Set: (AUG-CC-PVTZ AUX)
    Blend: AUG-CC-PVTZ-RI
    Molecular point group: c1

    Geometry (in Angstrom), charge = 0, multiplicity = 1:

       Center              X                  Y                   Z               Mass
    ------------   -----------------  -----------------  -----------------  -----------------
         P           -2.289690082267    -0.940156769734     0.344360831049    30.973761998420
         O           -0.981747082267    -0.201675769734     0.937971831049    15.994914619570
         O            1.342655917733    -1.675596769734     1.230533831049    15.994914619570
         O            0.079110917733     2.359490230266     0.461850831049    15.994914619570
         O            3.068920917733    -2.187185769734    -0.808907168951    15.994914619570
         O            2.847740917733     2.502999230266     0.371217831049    15.994914619570
         O            4.196093917733     0.435283230266    -0.973191168951    15.994914619570
         O           -2.826457082267     0.033237230266    -0.807848168951    15.994914619570
         O           -3.258715082267    -0.723395769734     1.621353831049    15.994914619570
         O           -2.118587082267    -2.343757769734    -0.099985168951    15.994914619570
         C            0.118567917733     0.029895230266     0.016001831049    12.000000000000
         C            0.953697917733    -1.244318769734    -0.076042168951    12.000000000000
         C            0.898994917733     1.202530230266     0.564533831049    12.000000000000
         C            2.260065917733    -1.014420769734    -0.818354168951    12.000000000000
         C            2.167572517733     1.398522830266    -0.221147768951    12.000000000000
         C            3.026247917733     0.148591230266    -0.210639168951    12.000000000000
         C           -3.123807082267     1.431484230266    -0.489203168951    12.000000000000
         C           -3.535911082267     2.085051230266    -1.784436168951    12.000000000000
         H           -0.282686082267     0.298687230266    -0.970555168951     1.007825032230
         H            0.370674917733    -2.029477769734    -0.572349168951     1.007825032230
         H            1.157525917733     0.997763230266     1.611838831049     1.007825032230
         H            2.061339917733    -0.788773769734    -1.873073168951     1.007825032230
         H            1.917392917733     1.636173230266    -1.273900168951     1.007825032230
         H            3.296260917733    -0.094645769734     0.827328831049     1.007825032230
         H            0.522180917733    -1.888145769734     1.711192831049     1.007825032230
         H            0.665945917733     3.109197230266     0.682866831049     1.007825032230
         H            2.973948917733    -2.547487769734     0.094336831049     1.007825032230
         H            3.723800717733     2.555821930266    -0.054387168951     1.007825032230
         H            4.640132917733    -0.423947769734    -1.097404168951     1.007825032230
         H           -3.807989082267    -1.522451769734     1.734410831049     1.007825032230
         H           -3.930140082267     1.445427230266     0.249068831049     1.007825032230
         H           -2.229356082267     1.892766230266    -0.059413168951     1.007825032230
         H           -3.800115082267     3.130768230266    -1.602988168951     1.007825032230
         H           -2.716790082267     2.053209230266    -2.505192168951     1.007825032230
         H           -4.400538082267     1.574209230266    -2.213041168951     1.007825032230

  Basis Set: AUG-CC-PVTZ
    Blend: AUG-CC-PVTZ
  Basis Set: (AUG-CC-PVTZ AUX)
    Blend: AUG-CC-PVTZ-JKFIT
	 Reference Energy          =   -1327.8614228131878008 [Eh]
	 Singles Energy            =      -0.0000000000000000 [Eh]
	 Same-Spin Energy          =      -1.0145753414354115 [Eh]
	 Opposite-Spin Energy      =      -3.0759965597358661 [Eh]
	 Correlation Energy        =      -4.0905719011712778 [Eh]
	 Total Energy              =   -1331.9519947143589889 [Eh]

	 ================> DF-SCS-MP2 Energies <==================
	-----------------------------------------------------------
	 SCS Same-Spin Scale       =       0.3333333333333333 [-]
	 SCS Opposite-Spin Scale   =       1.2000000000000000 [-]
	 SCS Same-Spin Energy      =      -0.3381917804784705 [Eh]
	 SCS Opposite-Spin Energy  =      -3.6911958716830391 [Eh]
	 SCS Correlation Energy    =      -4.0293876521615095 [Eh]
	 SCS Total Energy          =   -1331.8908104653492046 [Eh]
	-----------------------------------------------------------

  Dipole Moment: [D]
     X:    -1.1203      Y:     1.8706      Z:     0.7310     Total:     2.2997

*** Psi4 exiting successfully. Buy a developer a beer!
