                               Psi4 1.3.2 release

  ==> Input File <==

--------------------------------------------------------------------------
#psi4
#
memory 32 gb

molecule  {
0 1
  P       -2.2900960    -0.9400430     0.3446780
  O       -0.9821530    -0.2015620     0.9382890
  O        1.3422500    -1.6754830     1.2308510
  O        0.0787050     2.3596040     0.4621680
  O        3.0685150    -2.1870720    -0.8085900
  O        2.8473350     2.5031130     0.3715350
  O        4.1956880     0.4353970    -0.9728740
  O       -2.8268630     0.0333510    -0.8075310
  O       -3.2591210    -0.7232820     1.6216710
  O       -2.1189930    -2.3436440    -0.0996680
  C        0.1181620     0.0300090     0.0163190
  C        0.9669667    -1.2384085     0.0027893
  C        0.8985890     1.2026440     0.5648510
  C        2.2596600    -1.0143070    -0.8180370
  C        2.1770750     1.3964720    -0.2280410
  C        3.0258420     0.1487050    -0.2103220
  C       -3.1242130     1.4315980    -0.4888860
  C       -3.5363170     2.0851650    -1.7841190
  H       -0.3082748     0.3444104    -0.9458931
  H        0.3702690    -2.0293640    -0.5720320
  H        1.1571200     0.9978770     1.6121560
  H        2.0609340    -0.7886600    -1.8727560
  H        1.9169870     1.6362870    -1.2735830
  H        3.2958550    -0.0945320     0.8276460
  H        0.5217750    -1.8880320     1.7115100
  H        0.6655400     3.1093110     0.6831840
  H        2.9735430    -2.5473740     0.0946540
  H        3.7214290     2.5491860    -0.0588690
  H        4.6397270    -0.4238340    -1.0970870
  H       -3.8083950    -1.5223380     1.7347280
  H       -3.9305460     1.4455410     0.2493860
  H       -2.2297620     1.8928800    -0.0590960
  H       -3.8005210     3.1308820    -1.6026710
  H       -2.7171960     2.0533230    -2.5048750
  H       -4.4009440     1.5743230    -2.2127240
units angstrom
no_reorient  #important for SAPT in psi4, default
symmetry c1  #important for SAPT in psi4, default
}

set PROPERTIES_ORIGIN ["COM"]
properties('MP2/aug-cc-pvtz', properties = ['dipole'])
--------------------------------------------------------------------------

    Molecular point group: c1
  Charge       = 0
  Multiplicity = 1
  Basis Set: AUG-CC-PVTZ
    Blend: AUG-CC-PVTZ
  Basis Set: (AUG-CC-PVTZ AUX)
    Blend: AUG-CC-PVTZ-JKFIT

    Orbital Energies [Eh]
    ---------------------

    Doubly Occupied:

       1A    -80.116009     2A    -20.614166     3A    -20.604949
       4A    -20.598537     5A    -20.592290     6A    -20.576442
       7A    -20.574029     8A    -20.573043     9A    -20.572965
      10A    -20.522194    11A    -11.318240    12A    -11.305110
      13A    -11.299223    14A    -11.298291    15A    -11.297138
      16A    -11.296089    17A    -11.289897    18A    -11.229710
      19A     -7.631458    20A     -5.529964    21A     -5.529594
      22A     -5.528384    23A     -1.460341    24A     -1.427895
      25A     -1.399161    26A     -1.393373    27A     -1.386442
      28A     -1.377706    29A     -1.365610    30A     -1.354093
      31A     -1.302658    32A     -1.116707    33A     -1.040278
      34A     -1.010925    35A     -0.997208    36A     -0.878951
      37A     -0.864466    38A     -0.856493    39A     -0.821221
      40A     -0.815375    41A     -0.759324    42A     -0.745053
      43A     -0.729730    44A     -0.728677    45A     -0.708349
      46A     -0.688461    47A     -0.685642    48A     -0.674128
      49A     -0.662068    50A     -0.660649    51A     -0.644130
      52A     -0.634504    53A     -0.628840    54A     -0.618451
      55A     -0.603036    56A     -0.599495    57A     -0.581156
      58A     -0.575443    59A     -0.573854    60A     -0.560610
      61A     -0.556525    62A     -0.551201    63A     -0.541431
      64A     -0.537302    65A     -0.530831    66A     -0.521848
      67A     -0.512412    68A     -0.502336    69A     -0.494734
      70A     -0.483464    71A     -0.478866    72A     -0.475593
      73A     -0.460505    74A     -0.455328    75A     -0.445041
      76A     -0.427152

  @DF-RHF Final Energy: -1327.85498641754066

   => Energetics <=

    Nuclear Repulsion Energy =           1773.2219802730969604
    One-Electron Energy =               -5358.5483425499760415
    Two-Electron Energy =                2257.4713758593384227
    Total Energy =                      -1327.8549864175406583
  Basis Set: (AUG-CC-PVTZ AUX)
    Blend: AUG-CC-PVTZ-RI
    Molecular point group: c1

    Geometry (in Angstrom), charge = 0, multiplicity = 1:

       Center              X                  Y                   Z               Mass
    ------------   -----------------  -----------------  -----------------  -----------------
         P           -2.290577519804    -0.940444023381     0.341322080267    30.973761998420
         O           -0.982634519804    -0.201963023381     0.934933080267    15.994914619570
         O            1.341768480196    -1.675884023381     1.227495080267    15.994914619570
         O            0.078223480196     2.359202976619     0.458812080267    15.994914619570
         O            3.068033480196    -2.187473023381    -0.811945919733    15.994914619570
         O            2.846853480196     2.502711976619     0.368179080267    15.994914619570
         O            4.195206480196     0.434995976619    -0.976229919733    15.994914619570
         O           -2.827344519804     0.032949976619    -0.810886919733    15.994914619570
         O           -3.259602519804    -0.723683023381     1.618315080267    15.994914619570
         O           -2.119474519804    -2.344045023381    -0.103023919733    15.994914619570
         C            0.117680480196     0.029607976619     0.012963080267    12.000000000000
         C            0.966485180196    -1.238809523381    -0.000566619733    12.000000000000
         C            0.898107480196     1.202242976619     0.561495080267    12.000000000000
         C            2.259178480196    -1.014708023381    -0.821392919733    12.000000000000
         C            2.176593480196     1.396070976619    -0.231396919733    12.000000000000
         C            3.025360480196     0.148303976619    -0.213677919733    12.000000000000
         C           -3.124694519804     1.431196976619    -0.492241919733    12.000000000000
         C           -3.536798519804     2.084763976619    -1.787474919733    12.000000000000
         H           -0.308756319804     0.344009376619    -0.949249019733     1.007825032230
         H            0.369787480196    -2.029765023381    -0.575387919733     1.007825032230
         H            1.156638480196     0.997475976619     1.608800080267     1.007825032230
         H            2.060452480196    -0.789061023381    -1.876111919733     1.007825032230
         H            1.916505480196     1.635885976619    -1.276938919733     1.007825032230
         H            3.295373480196    -0.094933023381     0.824290080267     1.007825032230
         H            0.521293480196    -1.888433023381     1.708154080267     1.007825032230
         H            0.665058480196     3.108909976619     0.679828080267     1.007825032230
         H            2.973061480196    -2.547775023381     0.091298080267     1.007825032230
         H            3.720947480196     2.548784976619    -0.062224919733     1.007825032230
         H            4.639245480196    -0.424235023381    -1.100442919733     1.007825032230
         H           -3.808876519804    -1.522739023381     1.731372080267     1.007825032230
         H           -3.931027519804     1.445139976619     0.246030080267     1.007825032230
         H           -2.230243519804     1.892478976619    -0.062451919733     1.007825032230
         H           -3.801002519804     3.130480976619    -1.606026919733     1.007825032230
         H           -2.717677519804     2.052921976619    -2.508230919733     1.007825032230
         H           -4.401425519804     1.573921976619    -2.216079919733     1.007825032230

  Basis Set: AUG-CC-PVTZ
    Blend: AUG-CC-PVTZ
  Basis Set: (AUG-CC-PVTZ AUX)
    Blend: AUG-CC-PVTZ-JKFIT
	 Reference Energy          =   -1327.8549864175406583 [Eh]
	 Singles Energy            =      -0.0000000000000000 [Eh]
	 Same-Spin Energy          =      -1.0149219335656388 [Eh]
	 Opposite-Spin Energy      =      -3.0756861439128418 [Eh]
	 Correlation Energy        =      -4.0906080774784801 [Eh]
	 Total Energy              =   -1331.9455944950191224 [Eh]

	 ================> DF-SCS-MP2 Energies <==================
	-----------------------------------------------------------
	 SCS Same-Spin Scale       =       0.3333333333333333 [-]
	 SCS Opposite-Spin Scale   =       1.2000000000000000 [-]
	 SCS Same-Spin Energy      =      -0.3383073111885462 [Eh]
	 SCS Opposite-Spin Energy  =      -3.6908233726954101 [Eh]
	 SCS Correlation Energy    =      -4.0291306838839560 [Eh]
	 SCS Total Energy          =   -1331.8841171014246356 [Eh]
	-----------------------------------------------------------

  Dipole Moment: [D]
     X:    -1.0582      Y:     1.8076      Z:     0.9273     Total:     2.2906

*** Psi4 exiting successfully. Buy a developer a beer!
