                               Psi4 1.3.2 release

  ==> Input File <==

--------------------------------------------------------------------------
#psi4
#
memory 32 gb

molecule  {
0 1
  P       -2.2900960    -0.9400430     0.3446780
  O       -0.9821530    -0.2015620     0.9382890
  O        1.3422500    -1.6754830     1.2308510
  O        0.0787050     2.3596040     0.4621680
  O        3.0685150    -2.1870720    -0.8085900
  O        2.8473350     2.5031130     0.3715350
  O        4.1956880     0.4353970    -0.9728740
  O       -2.8268630     0.0333510    -0.8075310
  O       -3.2591210    -0.7232820     1.6216710
  O       -2.1189930    -2.3436440    -0.0996680
  C        0.1181620     0.0300090     0.0163190
  C        0.9532920    -1.2442050    -0.0757250
  C        0.8985890     1.2026440     0.5648510
  C        2.2596600    -1.0143070    -0.8180370
  C        2.1770750     1.3964720    -0.2280410
  C        3.0265200     0.1093986    -0.1411612
  C       -3.1242130     1.4315980    -0.4888860
  C       -3.5363170     2.0851650    -1.7841190
  H       -0.2830920     0.2988010    -0.9702380
  H        0.3702690    -2.0293640    -0.5720320
  H        1.1571200     0.9978770     1.6121560
  H        2.0341689    -0.8392830    -1.8769804
  H        1.9169870     1.6362870    -1.2735830
  H        3.2958550    -0.0945320     0.8276460
  H        0.5217750    -1.8880320     1.7115100
  H        0.6655400     3.1093110     0.6831840
  H        2.9735430    -2.5473740     0.0946540
  H        3.7214290     2.5491860    -0.0588690
  H        4.6397270    -0.4238340    -1.0970870
  H       -3.8083950    -1.5223380     1.7347280
  H       -3.9305460     1.4455410     0.2493860
  H       -2.2297620     1.8928800    -0.0590960
  H       -3.8005210     3.1308820    -1.6026710
  H       -2.7171960     2.0533230    -2.5048750
  H       -4.4009440     1.5743230    -2.2127240
units angstrom
no_reorient  #important for SAPT in psi4, default
symmetry c1  #important for SAPT in psi4, default
}

set PROPERTIES_ORIGIN ["COM"]
properties('MP2/aug-cc-pvtz', properties = ['dipole'])
--------------------------------------------------------------------------

    Molecular point group: c1
  Charge       = 0
  Multiplicity = 1
  Basis Set: AUG-CC-PVTZ
    Blend: AUG-CC-PVTZ
  Basis Set: (AUG-CC-PVTZ AUX)
    Blend: AUG-CC-PVTZ-JKFIT

    Orbital Energies [Eh]
    ---------------------

    Doubly Occupied:

       1A    -80.117116     2A    -20.614895     3A    -20.607247
       4A    -20.599081     5A    -20.583967     6A    -20.576332
       7A    -20.573003     8A    -20.572881     9A    -20.570116
      10A    -20.523611    11A    -11.320928    12A    -11.302859
      13A    -11.300411    14A    -11.299460    15A    -11.298758
      16A    -11.297508    17A    -11.290837    18A    -11.229943
      19A     -7.632567    20A     -5.531073    21A     -5.530700
      22A     -5.529498    23A     -1.460468    24A     -1.410084
      25A     -1.393005    26A     -1.391162    27A     -1.386704
      28A     -1.368455    29A     -1.363336    30A     -1.346031
      31A     -1.304009    32A     -1.118218    33A     -1.040527
      34A     -1.010875    35A     -1.003201    36A     -0.882517
      37A     -0.865742    38A     -0.855364    39A     -0.825432
      40A     -0.813131    41A     -0.751421    42A     -0.743347
      43A     -0.730442    44A     -0.728820    45A     -0.708810
      46A     -0.686982    47A     -0.677723    48A     -0.672154
      49A     -0.661207    50A     -0.658051    51A     -0.642835
      52A     -0.630554    53A     -0.627039    54A     -0.614866
      55A     -0.603841    56A     -0.601113    57A     -0.581621
      58A     -0.575663    59A     -0.571271    60A     -0.559620
      61A     -0.554450    62A     -0.548578    63A     -0.541362
      64A     -0.533590    65A     -0.529715    66A     -0.520947
      67A     -0.512356    68A     -0.506012    69A     -0.496913
      70A     -0.485870    71A     -0.479968    72A     -0.477108
      73A     -0.464002    74A     -0.455071    75A     -0.449820
      76A     -0.437905

  @DF-RHF Final Energy: -1327.85227951058687

   => Energetics <=

    Nuclear Repulsion Energy =           1772.0090279725222899
    One-Electron Energy =               -5356.1984144576681501
    Two-Electron Energy =                2256.3371069745589921
    Total Energy =                      -1327.8522795105868681
  Basis Set: (AUG-CC-PVTZ AUX)
    Blend: AUG-CC-PVTZ-RI
    Molecular point group: c1

    Geometry (in Angstrom), charge = 0, multiplicity = 1:

       Center              X                  Y                   Z               Mass
    ------------   -----------------  -----------------  -----------------  -----------------
         P           -2.290030569432    -0.938228450362     0.341811680894    30.973761998420
         O           -0.982087569432    -0.199747450362     0.935422680894    15.994914619570
         O            1.342315430568    -1.673668450362     1.227984680894    15.994914619570
         O            0.078770430568     2.361418549638     0.459301680894    15.994914619570
         O            3.068580430568    -2.185257450362    -0.811456319106    15.994914619570
         O            2.847400430568     2.504927549638     0.368668680894    15.994914619570
         O            4.195753430568     0.437211549638    -0.975740319106    15.994914619570
         O           -2.826797569432     0.035165549638    -0.810397319106    15.994914619570
         O           -3.259055569432    -0.721467450362     1.618804680894    15.994914619570
         O           -2.118927569432    -2.341829450362    -0.102534319106    15.994914619570
         C            0.118227430568     0.031823549638     0.013452680894    12.000000000000
         C            0.953357430568    -1.242390450362    -0.078591319106    12.000000000000
         C            0.898654430568     1.204458549638     0.561984680894    12.000000000000
         C            2.259725430568    -1.012492450362    -0.820903319106    12.000000000000
         C            2.177140430568     1.398286549638    -0.230907319106    12.000000000000
         C            3.026585430568     0.111213149638    -0.144027519106    12.000000000000
         C           -3.124147569432     1.433412549638    -0.491752319106    12.000000000000
         C           -3.536251569432     2.086979549638    -1.786985319106    12.000000000000
         H           -0.283026569432     0.300615549638    -0.973104319106     1.007825032230
         H            0.370334430568    -2.027549450362    -0.574898319106     1.007825032230
         H            1.157185430568     0.999691549638     1.609289680894     1.007825032230
         H            2.034234330568    -0.837468450362    -1.879846719106     1.007825032230
         H            1.917052430568     1.638101549638    -1.276449319106     1.007825032230
         H            3.295920430568    -0.092717450362     0.824779680894     1.007825032230
         H            0.521840430568    -1.886217450362     1.708643680894     1.007825032230
         H            0.665605430568     3.111125549638     0.680317680894     1.007825032230
         H            2.973608430568    -2.545559450362     0.091787680894     1.007825032230
         H            3.721494430568     2.551000549638    -0.061735319106     1.007825032230
         H            4.639792430568    -0.422019450362    -1.099953319106     1.007825032230
         H           -3.808329569432    -1.520523450362     1.731861680894     1.007825032230
         H           -3.930480569432     1.447355549638     0.246519680894     1.007825032230
         H           -2.229696569432     1.894694549638    -0.061962319106     1.007825032230
         H           -3.800455569432     3.132696549638    -1.605537319106     1.007825032230
         H           -2.717130569432     2.055137549638    -2.507741319106     1.007825032230
         H           -4.400878569432     1.576137549638    -2.215590319106     1.007825032230

  Basis Set: AUG-CC-PVTZ
    Blend: AUG-CC-PVTZ
  Basis Set: (AUG-CC-PVTZ AUX)
    Blend: AUG-CC-PVTZ-JKFIT
	 Reference Energy          =   -1327.8522795105868681 [Eh]
	 Singles Energy            =      -0.0000000000000000 [Eh]
	 Same-Spin Energy          =      -1.0146581803094299 [Eh]
	 Opposite-Spin Energy      =      -3.0772427819884252 [Eh]
	 Correlation Energy        =      -4.0919009622978546 [Eh]
	 Total Energy              =   -1331.9441804728846819 [Eh]

	 ================> DF-SCS-MP2 Energies <==================
	-----------------------------------------------------------
	 SCS Same-Spin Scale       =       0.3333333333333333 [-]
	 SCS Opposite-Spin Scale   =       1.2000000000000000 [-]
	 SCS Same-Spin Energy      =      -0.3382193934364766 [Eh]
	 SCS Opposite-Spin Energy  =      -3.6926913383861102 [Eh]
	 SCS Correlation Energy    =      -4.0309107318225870 [Eh]
	 SCS Total Energy          =   -1331.8831902424094551 [Eh]
	-----------------------------------------------------------

  Dipole Moment: [D]
     X:    -1.1968      Y:     1.8257      Z:     0.8086     Total:     2.3279

*** Psi4 exiting successfully. Buy a developer a beer!
