                               Psi4 1.3.2 release

  ==> Input File <==

--------------------------------------------------------------------------
#psi4
#
memory 32 gb

molecule  {
0 1
  P       -2.2900960    -0.9400430     0.3446780
  O       -0.9821530    -0.2015620     0.9382890
  O        1.3422500    -1.6754830     1.2308510
  O        0.0787050     2.3596040     0.4621680
  O        3.0685150    -2.1870720    -0.8085900
  O        2.8473350     2.5031130     0.3715350
  O        4.1956880     0.4353970    -0.9728740
  O       -2.8268630     0.0333510    -0.8075310
  O       -3.2591210    -0.7232820     1.6216710
  O       -2.1189930    -2.3436440    -0.0996680
  C        0.1181620     0.0300090     0.0163190
  C        0.9532920    -1.2442050    -0.0757250
  C        0.8985890     1.2026440     0.5648510
  C        2.2596600    -1.0143070    -0.8180370
  C        2.1755627     1.3947926    -0.2542838
  C        3.0258420     0.1487050    -0.2103220
  C       -3.1242130     1.4315980    -0.4888860
  C       -3.5363170     2.0851650    -1.7841190
  H       -0.2830920     0.2988010    -0.9702380
  H        0.3702690    -2.0293640    -0.5720320
  H        1.1571200     0.9978770     1.6121560
  H        2.0609340    -0.7886600    -1.8727560
  H        1.9169870     1.6362870    -1.2735830
  H        3.3055986    -0.1098237     0.8213504
  H        0.5217750    -1.8880320     1.7115100
  H        0.6655400     3.1093110     0.6831840
  H        2.9735430    -2.5473740     0.0946540
  H        3.7214290     2.5491860    -0.0588690
  H        4.6397270    -0.4238340    -1.0970870
  H       -3.8083950    -1.5223380     1.7347280
  H       -3.9305460     1.4455410     0.2493860
  H       -2.2297620     1.8928800    -0.0590960
  H       -3.8005210     3.1308820    -1.6026710
  H       -2.7171960     2.0533230    -2.5048750
  H       -4.4009440     1.5743230    -2.2127240
units angstrom
no_reorient  #important for SAPT in psi4, default
symmetry c1  #important for SAPT in psi4, default
}

set PROPERTIES_ORIGIN ["COM"]
properties('MP2/aug-cc-pvtz', properties = ['dipole'])
--------------------------------------------------------------------------

    Molecular point group: c1
  Charge       = 0
  Multiplicity = 1
  Basis Set: AUG-CC-PVTZ
    Blend: AUG-CC-PVTZ
  Basis Set: (AUG-CC-PVTZ AUX)
    Blend: AUG-CC-PVTZ-JKFIT

    Orbital Energies [Eh]
    ---------------------

    Doubly Occupied:

       1A    -80.116895     2A    -20.614701     3A    -20.606884
       4A    -20.598953     5A    -20.583205     6A    -20.575648
       7A    -20.574683     8A    -20.573554     9A    -20.573270
      10A    -20.523424    11A    -11.320429    12A    -11.303577
      13A    -11.299415    14A    -11.299180    15A    -11.299144
      16A    -11.296149    17A    -11.291633    18A    -11.229939
      19A     -7.632347    20A     -5.530854    21A     -5.530479
      22A     -5.529279    23A     -1.460231    24A     -1.410432
      25A     -1.393862    26A     -1.391668    27A     -1.386853
      28A     -1.372509    29A     -1.362949    30A     -1.352270
      31A     -1.303820    32A     -1.118702    33A     -1.040513
      34A     -1.012285    35A     -1.002437    36A     -0.879781
      37A     -0.864855    38A     -0.859251    39A     -0.822370
      40A     -0.811881    41A     -0.751635    42A     -0.745097
      43A     -0.731852    44A     -0.728566    45A     -0.706532
      46A     -0.687639    47A     -0.678235    48A     -0.673729
      49A     -0.661172    50A     -0.659599    51A     -0.641986
      52A     -0.634489    53A     -0.627562    54A     -0.615578
      55A     -0.602998    56A     -0.598892    57A     -0.581825
      58A     -0.575530    59A     -0.571026    60A     -0.559279
      61A     -0.556416    62A     -0.548379    63A     -0.541270
      64A     -0.536604    65A     -0.530018    66A     -0.520879
      67A     -0.513313    68A     -0.504153    69A     -0.496687
      70A     -0.484424    71A     -0.479800    72A     -0.476588
      73A     -0.463701    74A     -0.457800    75A     -0.450658
      76A     -0.435395

  @DF-RHF Final Energy: -1327.86035732452478

   => Energetics <=

    Nuclear Repulsion Energy =           1772.2212298318402190
    One-Electron Energy =               -5356.6039352474581392
    Two-Electron Energy =                2256.5223480910931357
    Total Energy =                      -1327.8603573245250118
  Basis Set: (AUG-CC-PVTZ AUX)
    Blend: AUG-CC-PVTZ-RI
    Molecular point group: c1

    Geometry (in Angstrom), charge = 0, multiplicity = 1:

       Center              X                  Y                   Z               Mass
    ------------   -----------------  -----------------  -----------------  -----------------
         P           -2.290067057472    -0.939919521824     0.345793235256    30.973761998420
         O           -0.982124057472    -0.201438521824     0.939404235256    15.994914619570
         O            1.342278942528    -1.675359521824     1.231966235256    15.994914619570
         O            0.078733942528     2.359727478176     0.463283235256    15.994914619570
         O            3.068543942528    -2.186948521824    -0.807474764744    15.994914619570
         O            2.847363942528     2.503236478176     0.372650235256    15.994914619570
         O            4.195716942528     0.435520478176    -0.971758764744    15.994914619570
         O           -2.826834057472     0.033474478176    -0.806415764744    15.994914619570
         O           -3.259092057472    -0.723158521824     1.622786235256    15.994914619570
         O           -2.118964057472    -2.343520521824    -0.098552764744    15.994914619570
         C            0.118190942528     0.030132478176     0.017434235256    12.000000000000
         C            0.953320942528    -1.244081521824    -0.074609764744    12.000000000000
         C            0.898617942528     1.202767478176     0.565966235256    12.000000000000
         C            2.259688942528    -1.014183521824    -0.816921764744    12.000000000000
         C            2.175591642528     1.394916078176    -0.253168564744    12.000000000000
         C            3.025870942528     0.148828478176    -0.209206764744    12.000000000000
         C           -3.124184057472     1.431721478176    -0.487770764744    12.000000000000
         C           -3.536288057472     2.085288478176    -1.783003764744    12.000000000000
         H           -0.283063057472     0.298924478176    -0.969122764744     1.007825032230
         H            0.370297942528    -2.029240521824    -0.570916764744     1.007825032230
         H            1.157148942528     0.998000478176     1.613271235256     1.007825032230
         H            2.060962942528    -0.788536521824    -1.871640764744     1.007825032230
         H            1.917015942528     1.636410478176    -1.272467764744     1.007825032230
         H            3.305627542528    -0.109700221824     0.822465635256     1.007825032230
         H            0.521803942528    -1.887908521824     1.712625235256     1.007825032230
         H            0.665568942528     3.109434478176     0.684299235256     1.007825032230
         H            2.973571942528    -2.547250521824     0.095769235256     1.007825032230
         H            3.721457942528     2.549309478176    -0.057753764744     1.007825032230
         H            4.639755942528    -0.423710521824    -1.095971764744     1.007825032230
         H           -3.808366057472    -1.522214521824     1.735843235256     1.007825032230
         H           -3.930517057472     1.445664478176     0.250501235256     1.007825032230
         H           -2.229733057472     1.893003478176    -0.057980764744     1.007825032230
         H           -3.800492057472     3.131005478176    -1.601555764744     1.007825032230
         H           -2.717167057472     2.053446478176    -2.503759764744     1.007825032230
         H           -4.400915057472     1.574446478176    -2.211608764744     1.007825032230

  Basis Set: AUG-CC-PVTZ
    Blend: AUG-CC-PVTZ
  Basis Set: (AUG-CC-PVTZ AUX)
    Blend: AUG-CC-PVTZ-JKFIT
	 Reference Energy          =   -1327.8603573245247844 [Eh]
	 Singles Energy            =      -0.0000000000000000 [Eh]
	 Same-Spin Energy          =      -1.0145833055706224 [Eh]
	 Opposite-Spin Energy      =      -3.0763372557152349 [Eh]
	 Correlation Energy        =      -4.0909205612858575 [Eh]
	 Total Energy              =   -1331.9512778858106685 [Eh]

	 ================> DF-SCS-MP2 Energies <==================
	-----------------------------------------------------------
	 SCS Same-Spin Scale       =       0.3333333333333333 [-]
	 SCS Opposite-Spin Scale   =       1.2000000000000000 [-]
	 SCS Same-Spin Energy      =      -0.3381944351902074 [Eh]
	 SCS Opposite-Spin Energy  =      -3.6916047068582816 [Eh]
	 SCS Correlation Energy    =      -4.0297991420484891 [Eh]
	 SCS Total Energy          =   -1331.8901564665732167 [Eh]
	-----------------------------------------------------------

  Dipole Moment: [D]
     X:    -1.1318      Y:     1.8437      Z:     0.6883     Total:     2.2702

*** Psi4 exiting successfully. Buy a developer a beer!
