                               Psi4 1.4a3.dev225

  ==> Input File <==

--------------------------------------------------------------------------
#psi4
#
memory 32 gb

molecule  {
0 1
  P       -2.3219140    -1.0563120    -0.0968450
  O       -1.0285840    -0.5623410     0.7549430
  O        1.3695440    -1.8069540     1.2202350
  O       -0.1592450     2.1412630     0.5207450
  O        3.3269040    -2.0858120    -0.6453880
  O        2.5724350     2.5270130     0.6374560
  O        4.2203020     0.6406430    -0.6358120
  O       -2.8737010     0.2643620    -0.8096810
  O       -3.3065970    -1.3497020     1.1531960
  O       -2.1044560    -2.1814480    -1.0350500
  C        0.1200290    -0.1583450    -0.0432010
  C        1.0698050    -1.3527180    -0.1046720
  C        0.7441670     1.0454510     0.6308160
  C        2.4193320    -0.9866070    -0.7068450
  C        2.0603010     1.3853380    -0.0470020
  C        3.0180900     0.2181970     0.0056710
  C       -3.2473180     1.4231610     0.0025120
  C       -3.2076300     2.6262440    -0.9075720
  H       -0.2047330     0.1313700    -1.0514980
  H        0.5965010    -2.1549610    -0.6866410
  H        0.9371260     0.8063110     1.6860210
  H        2.3054700    -0.7437210    -1.7704410
  H        1.8544018     1.6481323    -1.1506995
  H        3.2142070    -0.0417910     1.0561650
  H        0.5126160    -2.0057500     1.6426110
  H        0.3598300     2.9232990     0.7925780
  H        3.1793900    -2.4823080     0.2360710
  H        3.4672560     2.6739710     0.2770410
  H        4.7639490    -0.1654590    -0.7244900
  H       -3.7873380    -2.1826420     0.9908450
  H       -4.2474700     1.2335250     0.4005830
  H       -2.5352900     1.5309660     0.8217280
  H       -3.5402110     3.5125760    -0.3587690
  H       -2.1856630     2.7912820    -1.2511950
  H       -3.8637180     2.4807570    -1.7684970
units angstrom
no_reorient  #important for SAPT in psi4, default
symmetry c1  #important for SAPT in psi4, default
}

set PROPERTIES_ORIGIN ["COM"]
properties('MP2/aug-cc-pvtz', properties = ['dipole'])
--------------------------------------------------------------------------

    Molecular point group: c1
  Charge       = 0
  Multiplicity = 1
  Basis Set: AUG-CC-PVTZ
    Blend: AUG-CC-PVTZ
  Basis Set: (AUG-CC-PVTZ AUX)
    Blend: AUG-CC-PVTZ-JKFIT

    Orbital Energies [Eh]
    ---------------------

    Doubly Occupied:

       1A    -80.116823     2A    -20.615006     3A    -20.608085
       4A    -20.595999     5A    -20.584172     6A    -20.579591
       7A    -20.575408     8A    -20.575203     9A    -20.574684
      10A    -20.522527    11A    -11.321388    12A    -11.305256
      13A    -11.304375    14A    -11.301055    15A    -11.300275
      16A    -11.296131    17A    -11.293622    18A    -11.222854
      19A     -7.632085    20A     -5.530620    21A     -5.530118
      22A     -5.529056    23A     -1.458497    24A     -1.410997
      25A     -1.395679    26A     -1.392759    27A     -1.385175
      28A     -1.372800    29A     -1.364453    30A     -1.354499
      31A     -1.302711    32A     -1.118412    33A     -1.035472
      34A     -1.011071    35A     -1.002987    36A     -0.877486
      37A     -0.862310    38A     -0.858646    39A     -0.822326
      40A     -0.808125    41A     -0.753871    42A     -0.745814
      43A     -0.728341    44A     -0.725717    45A     -0.705875
      46A     -0.686073    47A     -0.679214    48A     -0.674082
      49A     -0.662580    50A     -0.659473    51A     -0.641804
      52A     -0.637747    53A     -0.623339    54A     -0.612885
      55A     -0.603654    56A     -0.596727    57A     -0.580714
      58A     -0.577739    59A     -0.570282    60A     -0.559000
      61A     -0.555343    62A     -0.548140    63A     -0.538428
      64A     -0.537764    65A     -0.530054    66A     -0.517451
      67A     -0.508317    68A     -0.503509    69A     -0.494629
      70A     -0.487445    71A     -0.478664    72A     -0.475482
      73A     -0.462283    74A     -0.456372    75A     -0.450387
      76A     -0.436897

  @DF-RHF Final Energy: -1327.85862673766360

   => Energetics <=

    Nuclear Repulsion Energy =           1774.3203968864945637
    One-Electron Energy =               -5360.8483758907213996
    Two-Electron Energy =                2258.6693522665632372
    Total Energy =                      -1327.8586267376635988
  Basis Set: (AUG-CC-PVTZ AUX)
    Blend: AUG-CC-PVTZ-RI
    Molecular point group: c1

    Geometry (in Angstrom), charge = 0, multiplicity = 1:

       Center              X                  Y                   Z               Mass
    ------------   -----------------  -----------------  -----------------  -----------------
         P           -2.311121380422    -1.018572809326    -0.099122037449    30.973761998420
         O           -1.017791380422    -0.524601809326     0.752665962551    15.994914619570
         O            1.380336619578    -1.769214809326     1.217957962551    15.994914619570
         O           -0.148452380422     2.179002190674     0.518467962551    15.994914619570
         O            3.337696619578    -2.048072809326    -0.647665037449    15.994914619570
         O            2.583227619578     2.564752190674     0.635178962551    15.994914619570
         O            4.231094619578     0.678382190674    -0.638089037449    15.994914619570
         O           -2.862908380422     0.302101190674    -0.811958037449    15.994914619570
         O           -3.295804380422    -1.311962809326     1.150918962551    15.994914619570
         O           -2.093663380422    -2.143708809326    -1.037327037449    15.994914619570
         C            0.130821619578    -0.120605809326    -0.045478037449    12.000000000000
         C            1.080597619578    -1.314978809326    -0.106949037449    12.000000000000
         C            0.754959619578     1.083190190674     0.628538962551    12.000000000000
         C            2.430124619578    -0.948867809326    -0.709122037449    12.000000000000
         C            2.071093619578     1.423077190674    -0.049279037449    12.000000000000
         C            3.028882619578     0.255936190674     0.003393962551    12.000000000000
         C           -3.236525380422     1.460900190674     0.000234962551    12.000000000000
         C           -3.196837380422     2.663983190674    -0.909849037449    12.000000000000
         H           -0.193940380422     0.169109190674    -1.053775037449     1.007825032230
         H            0.607293619578    -2.117221809326    -0.688918037449     1.007825032230
         H            0.947918619578     0.844050190674     1.683743962551     1.007825032230
         H            2.316262619578    -0.705981809326    -1.772718037449     1.007825032230
         H            1.865194419578     1.685871490674    -1.152976537449     1.007825032230
         H            3.224999619578    -0.004051809326     1.053887962551     1.007825032230
         H            0.523408619578    -1.968010809326     1.640333962551     1.007825032230
         H            0.370622619578     2.961038190674     0.790300962551     1.007825032230
         H            3.190182619578    -2.444568809326     0.233793962551     1.007825032230
         H            3.478048619578     2.711710190674     0.274763962551     1.007825032230
         H            4.774741619578    -0.127719809326    -0.726767037449     1.007825032230
         H           -3.776545380422    -2.144902809326     0.988567962551     1.007825032230
         H           -4.236677380422     1.271264190674     0.398305962551     1.007825032230
         H           -2.524497380422     1.568705190674     0.819450962551     1.007825032230
         H           -3.529418380422     3.550315190674    -0.361046037449     1.007825032230
         H           -2.174870380422     2.829021190674    -1.253472037449     1.007825032230
         H           -3.852925380422     2.518496190674    -1.770774037449     1.007825032230

  Basis Set: AUG-CC-PVTZ
    Blend: AUG-CC-PVTZ
  Basis Set: (AUG-CC-PVTZ AUX)
    Blend: AUG-CC-PVTZ-JKFIT
	 Reference Energy          =   -1327.8586267376635988 [Eh]
	 Singles Energy            =      -0.0000000000000000 [Eh]
	 Same-Spin Energy          =      -1.0148409266663143 [Eh]
	 Opposite-Spin Energy      =      -3.0770563779859170 [Eh]
	 Correlation Energy        =      -4.0918973046522318 [Eh]
	 Total Energy              =   -1331.9505240423159194 [Eh]

	 ================> DF-SCS-MP2 Energies <==================
	-----------------------------------------------------------
	 SCS Same-Spin Scale       =       0.3333333333333333 [-]
	 SCS Opposite-Spin Scale   =       1.2000000000000000 [-]
	 SCS Same-Spin Energy      =      -0.3382803088887714 [Eh]
	 SCS Opposite-Spin Energy  =      -3.6924676535831003 [Eh]
	 SCS Correlation Energy    =      -4.0307479624718718 [Eh]
	 SCS Total Energy          =   -1331.8893747001354768 [Eh]
	-----------------------------------------------------------

  Dipole Moment: [D]
     X:    -0.8500      Y:     1.4240      Z:     1.9078     Total:     2.5279

*** Psi4 exiting successfully. Buy a developer a beer!
