                               Psi4 1.3.2 release

  ==> Input File <==

--------------------------------------------------------------------------
#psi4
#
memory 32 gb

molecule  {
0 1
  P       -2.2900960    -0.9400430     0.3446780
  O       -0.9821530    -0.2015620     0.9382890
  O        1.3422500    -1.6754830     1.2308510
  O        0.0787050     2.3596040     0.4621680
  O        3.0685150    -2.1870720    -0.8085900
  O        2.8473350     2.5031130     0.3715350
  O        4.1956880     0.4353970    -0.9728740
  O       -2.8268630     0.0333510    -0.8075310
  O       -3.2591210    -0.7232820     1.6216710
  O       -2.1189930    -2.3436440    -0.0996680
  C        0.1181620     0.0300090     0.0163190
  C        0.9532920    -1.2442050    -0.0757250
  C        0.8985890     1.2026440     0.5648510
  C        2.2596600    -1.0143070    -0.8180370
  C        2.1770750     1.3964720    -0.2280410
  C        3.0258420     0.1487050    -0.2103220
  C       -3.1242130     1.4315980    -0.4888860
  C       -3.5363170     2.0851650    -1.7841190
  H       -0.2830920     0.2988010    -0.9702380
  H        0.4765939    -1.8861759    -0.4815213
  H        1.1571200     0.9978770     1.6121560
  H        2.0609340    -0.7886600    -1.8727560
  H        1.9169870     1.6362870    -1.2735830
  H        3.2958550    -0.0945320     0.8276460
  H        0.5217750    -1.8880320     1.7115100
  H        0.6655400     3.1093110     0.6831840
  H        2.9735430    -2.5473740     0.0946540
  H        3.7214290     2.5491860    -0.0588690
  H        4.6397270    -0.4238340    -1.0970870
  H       -3.8083950    -1.5223380     1.7347280
  H       -3.9305460     1.4455410     0.2493860
  H       -2.2297620     1.8928800    -0.0590960
  H       -3.8005210     3.1308820    -1.6026710
  H       -2.7171960     2.0533230    -2.5048750
  H       -4.4009440     1.5743230    -2.2127240
units angstrom
no_reorient  #important for SAPT in psi4, default
symmetry c1  #important for SAPT in psi4, default
}

set PROPERTIES_ORIGIN ["COM"]
properties('MP2/aug-cc-pvtz', properties = ['dipole'])
--------------------------------------------------------------------------

    Molecular point group: c1
  Charge       = 0
  Multiplicity = 1
  Basis Set: AUG-CC-PVTZ
    Blend: AUG-CC-PVTZ
  Basis Set: (AUG-CC-PVTZ AUX)
    Blend: AUG-CC-PVTZ-JKFIT

    Orbital Energies [Eh]
    ---------------------

    Doubly Occupied:

       1A    -80.117184     2A    -20.614916     3A    -20.607324
       4A    -20.599126     5A    -20.581510     6A    -20.576652
       7A    -20.575214     8A    -20.573875     9A    -20.573172
      10A    -20.524110    11A    -11.320080    12A    -11.299491
      13A    -11.299181    14A    -11.298288    15A    -11.296500
      16A    -11.291154    17A    -11.281748    18A    -11.229955
      19A     -7.632644    20A     -5.531151    21A     -5.530775
      22A     -5.529576    23A     -1.460577    24A     -1.411285
      25A     -1.394763    26A     -1.393204    27A     -1.387033
      28A     -1.372639    29A     -1.363960    30A     -1.353814
      31A     -1.304163    32A     -1.121238    33A     -1.040573
      34A     -1.019272    35A     -1.008548    36A     -0.889618
      37A     -0.867921    38A     -0.862278    39A     -0.822772
      40A     -0.811281    41A     -0.754996    42A     -0.751366
      43A     -0.739587    44A     -0.728841    45A     -0.710229
      46A     -0.690666    47A     -0.680592    48A     -0.674388
      49A     -0.662416    50A     -0.661047    51A     -0.647913
      52A     -0.635247    53A     -0.627748    54A     -0.616960
      55A     -0.604171    56A     -0.598617    57A     -0.581996
      58A     -0.575746    59A     -0.571844    60A     -0.560084
      61A     -0.558704    62A     -0.549962    63A     -0.542262
      64A     -0.537143    65A     -0.530946    66A     -0.521808
      67A     -0.513195    68A     -0.505320    69A     -0.498110
      70A     -0.484775    71A     -0.480499    72A     -0.476667
      73A     -0.463192    74A     -0.455905    75A     -0.452637
      76A     -0.439886

  @DF-RHF Final Energy: -1327.82950453954140

   => Energetics <=

    Nuclear Repulsion Energy =           1773.7707920419859420
    One-Electron Energy =               -5359.4925250454498382
    Two-Electron Energy =                2257.8922284639220379
    Total Energy =                      -1327.8295045395416309
  Basis Set: (AUG-CC-PVTZ AUX)
    Blend: AUG-CC-PVTZ-RI
    Molecular point group: c1

    Geometry (in Angstrom), charge = 0, multiplicity = 1:

       Center              X                  Y                   Z               Mass
    ------------   -----------------  -----------------  -----------------  -----------------
         P           -2.290467960906    -0.940543947545     0.344361325400    30.973761998420
         O           -0.982524960906    -0.202062947545     0.937972325400    15.994914619570
         O            1.341878039094    -1.675983947545     1.230534325400    15.994914619570
         O            0.078333039094     2.359103052455     0.461851325400    15.994914619570
         O            3.068143039094    -2.187572947545    -0.808906674600    15.994914619570
         O            2.846963039094     2.502612052455     0.371218325400    15.994914619570
         O            4.195316039094     0.434896052455    -0.973190674600    15.994914619570
         O           -2.827234960906     0.032850052455    -0.807847674600    15.994914619570
         O           -3.259492960906    -0.723782947545     1.621354325400    15.994914619570
         O           -2.119364960906    -2.344144947545    -0.099984674600    15.994914619570
         C            0.117790039094     0.029508052455     0.016002325400    12.000000000000
         C            0.952920039094    -1.244705947545    -0.076041674600    12.000000000000
         C            0.898217039094     1.202143052455     0.564534325400    12.000000000000
         C            2.259288039094    -1.014807947545    -0.818353674600    12.000000000000
         C            2.176703039094     1.395971052455    -0.228357674600    12.000000000000
         C            3.025470039094     0.148204052455    -0.210638674600    12.000000000000
         C           -3.124584960906     1.431097052455    -0.489202674600    12.000000000000
         C           -3.536688960906     2.084664052455    -1.784435674600    12.000000000000
         H           -0.283463960906     0.298300052455    -0.970554674600     1.007825032230
         H            0.476221939094    -1.886676847545    -0.481837974600     1.007825032230
         H            1.156748039094     0.997376052455     1.611839325400     1.007825032230
         H            2.060562039094    -0.789160947545    -1.873072674600     1.007825032230
         H            1.916615039094     1.635786052455    -1.273899674600     1.007825032230
         H            3.295483039094    -0.095032947545     0.827329325400     1.007825032230
         H            0.521403039094    -1.888532947545     1.711193325400     1.007825032230
         H            0.665168039094     3.108810052455     0.682867325400     1.007825032230
         H            2.973171039094    -2.547874947545     0.094337325400     1.007825032230
         H            3.721057039094     2.548685052455    -0.059185674600     1.007825032230
         H            4.639355039094    -0.424334947545    -1.097403674600     1.007825032230
         H           -3.808766960906    -1.522838947545     1.734411325400     1.007825032230
         H           -3.930917960906     1.445040052455     0.249069325400     1.007825032230
         H           -2.230133960906     1.892379052455    -0.059412674600     1.007825032230
         H           -3.800892960906     3.130381052455    -1.602987674600     1.007825032230
         H           -2.717567960906     2.052822052455    -2.505191674600     1.007825032230
         H           -4.401315960906     1.573822052455    -2.213040674600     1.007825032230

  Basis Set: AUG-CC-PVTZ
    Blend: AUG-CC-PVTZ
  Basis Set: (AUG-CC-PVTZ AUX)
    Blend: AUG-CC-PVTZ-JKFIT
	 Reference Energy          =   -1327.8295045395414036 [Eh]
	 Singles Energy            =      -0.0000000000000000 [Eh]
	 Same-Spin Energy          =      -1.0140725056413877 [Eh]
	 Opposite-Spin Energy      =      -3.0748182822041397 [Eh]
	 Correlation Energy        =      -4.0888907878455276 [Eh]
	 Total Energy              =   -1331.9183953273868610 [Eh]

	 ================> DF-SCS-MP2 Energies <==================
	-----------------------------------------------------------
	 SCS Same-Spin Scale       =       0.3333333333333333 [-]
	 SCS Opposite-Spin Scale   =       1.2000000000000000 [-]
	 SCS Same-Spin Energy      =      -0.3380241685471292 [Eh]
	 SCS Opposite-Spin Energy  =      -3.6897819386449675 [Eh]
	 SCS Correlation Energy    =      -4.0278061071920970 [Eh]
	 SCS Total Energy          =   -1331.8573106467335947 [Eh]
	-----------------------------------------------------------

  Dipole Moment: [D]
     X:    -1.1164      Y:     1.8694      Z:     0.6910     Total:     2.2844

*** Psi4 exiting successfully. Buy a developer a beer!
