                               Psi4 1.3.2 release

  ==> Input File <==

--------------------------------------------------------------------------
#psi4
#
memory 32 gb

molecule  {
0 1
  P       -2.2900960    -0.9400430     0.3446780
  O       -0.9821530    -0.2015620     0.9382890
  O        1.3422500    -1.6754830     1.2308510
  O        0.0787050     2.3596040     0.4621680
  O        3.0689877    -2.1862823    -0.7837420
  O        2.8473350     2.5031130     0.3715350
  O        4.1956880     0.4353970    -0.9728740
  O       -2.8268630     0.0333510    -0.8075310
  O       -3.2591210    -0.7232820     1.6216710
  O       -2.1189930    -2.3436440    -0.0996680
  C        0.1181620     0.0300090     0.0163190
  C        0.9532920    -1.2442050    -0.0757250
  C        0.8985890     1.2026440     0.5648510
  C        2.2596600    -1.0143070    -0.8180370
  C        2.1770750     1.3964720    -0.2280410
  C        3.0258420     0.1487050    -0.2103220
  C       -3.1242130     1.4315980    -0.4888860
  C       -3.5363170     2.0851650    -1.7841190
  H       -0.2830920     0.2988010    -0.9702380
  H        0.3702690    -2.0293640    -0.5720320
  H        1.1571200     0.9978770     1.6121560
  H        2.0506553    -0.7734309    -1.8673875
  H        1.9169870     1.6362870    -1.2735830
  H        3.2958550    -0.0945320     0.8276460
  H        0.5217750    -1.8880320     1.7115100
  H        0.6655400     3.1093110     0.6831840
  H        2.9735430    -2.5473740     0.0946540
  H        3.7214290     2.5491860    -0.0588690
  H        4.6397270    -0.4238340    -1.0970870
  H       -3.8083950    -1.5223380     1.7347280
  H       -3.9305460     1.4455410     0.2493860
  H       -2.2297620     1.8928800    -0.0590960
  H       -3.8005210     3.1308820    -1.6026710
  H       -2.7171960     2.0533230    -2.5048750
  H       -4.4009440     1.5743230    -2.2127240
units angstrom
no_reorient  #important for SAPT in psi4, default
symmetry c1  #important for SAPT in psi4, default
}

set PROPERTIES_ORIGIN ["COM"]
properties('MP2/aug-cc-pvtz', properties = ['dipole'])
--------------------------------------------------------------------------

    Molecular point group: c1
  Charge       = 0
  Multiplicity = 1
  Basis Set: AUG-CC-PVTZ
    Blend: AUG-CC-PVTZ
  Basis Set: (AUG-CC-PVTZ AUX)
    Blend: AUG-CC-PVTZ-JKFIT

    Orbital Energies [Eh]
    ---------------------

    Doubly Occupied:

       1A    -80.116910     2A    -20.614700     3A    -20.606951
       4A    -20.598928     5A    -20.582662     6A    -20.576748
       7A    -20.574169     8A    -20.573436     9A    -20.572331
      10A    -20.523409    11A    -11.320667    12A    -11.303335
      13A    -11.300065    14A    -11.299381    15A    -11.298563
      16A    -11.296587    17A    -11.291174    18A    -11.229878
      19A     -7.632359    20A     -5.530866    21A     -5.530493
      22A     -5.529291    23A     -1.460242    24A     -1.411512
      25A     -1.394833    26A     -1.393958    27A     -1.386882
      28A     -1.372637    29A     -1.365183    30A     -1.354687
      31A     -1.303805    32A     -1.119435    33A     -1.040470
      34A     -1.012219    35A     -1.004239    36A     -0.880294
      37A     -0.864925    38A     -0.860281    39A     -0.822493
      40A     -0.810834    41A     -0.751908    42A     -0.745074
      43A     -0.731554    44A     -0.728633    45A     -0.708408
      46A     -0.687204    47A     -0.680594    48A     -0.673705
      49A     -0.662931    50A     -0.661982    51A     -0.643079
      52A     -0.635201    53A     -0.627284    54A     -0.615403
      55A     -0.603655    56A     -0.598804    57A     -0.581895
      58A     -0.575625    59A     -0.570943    60A     -0.559393
      61A     -0.557122    62A     -0.548471    63A     -0.541228
      64A     -0.537268    65A     -0.529992    66A     -0.521745
      67A     -0.512956    68A     -0.504282    69A     -0.496972
      70A     -0.484431    71A     -0.479816    72A     -0.476544
      73A     -0.462369    74A     -0.455715    75A     -0.450106
      76A     -0.436215

  @DF-RHF Final Energy: -1327.86239450122139

   => Energetics <=

    Nuclear Repulsion Energy =           1772.8147280168518591
    One-Electron Energy =               -5357.7535657697853821
    Two-Electron Energy =                2257.0764432517121350
    Total Energy =                      -1327.8623945012213881
  Basis Set: (AUG-CC-PVTZ AUX)
    Blend: AUG-CC-PVTZ-RI
    Molecular point group: c1

    Geometry (in Angstrom), charge = 0, multiplicity = 1:

       Center              X                  Y                   Z               Mass
    ------------   -----------------  -----------------  -----------------  -----------------
         P           -2.290086252783    -0.940140112623     0.343279494894    30.973761998420
         O           -0.982143252783    -0.201659112623     0.936890494894    15.994914619570
         O            1.342259747217    -1.675580112623     1.229452494894    15.994914619570
         O            0.078714747217     2.359506887377     0.460769494894    15.994914619570
         O            3.068997447217    -2.186379412623    -0.785140505106    15.994914619570
         O            2.847344747217     2.503015887377     0.370136494894    15.994914619570
         O            4.195697747217     0.435299887377    -0.974272505106    15.994914619570
         O           -2.826853252783     0.033253887377    -0.808929505106    15.994914619570
         O           -3.259111252783    -0.723379112623     1.620272494894    15.994914619570
         O           -2.118983252783    -2.343741112623    -0.101066505106    15.994914619570
         C            0.118171747217     0.029911887377     0.014920494894    12.000000000000
         C            0.953301747217    -1.244302112623    -0.077123505106    12.000000000000
         C            0.898598747217     1.202546887377     0.563452494894    12.000000000000
         C            2.259669747217    -1.014404112623    -0.819435505106    12.000000000000
         C            2.177084747217     1.396374887377    -0.229439505106    12.000000000000
         C            3.025851747217     0.148607887377    -0.211720505106    12.000000000000
         C           -3.124203252783     1.431500887377    -0.490284505106    12.000000000000
         C           -3.536307252783     2.085067887377    -1.785517505106    12.000000000000
         H           -0.283082252783     0.298703887377    -0.971636505106     1.007825032230
         H            0.370278747217    -2.029461112623    -0.573430505106     1.007825032230
         H            1.157129747217     0.997779887377     1.610757494894     1.007825032230
         H            2.050665047217    -0.773528012623    -1.868786005106     1.007825032230
         H            1.916996747217     1.636189887377    -1.274981505106     1.007825032230
         H            3.295864747217    -0.094629112623     0.826247494894     1.007825032230
         H            0.521784747217    -1.888129112623     1.710111494894     1.007825032230
         H            0.665549747217     3.109213887377     0.681785494894     1.007825032230
         H            2.973552747217    -2.547471112623     0.093255494894     1.007825032230
         H            3.721438747217     2.549088887377    -0.060267505106     1.007825032230
         H            4.639736747217    -0.423931112623    -1.098485505106     1.007825032230
         H           -3.808385252783    -1.522435112623     1.733329494894     1.007825032230
         H           -3.930536252783     1.445443887377     0.247987494894     1.007825032230
         H           -2.229752252783     1.892782887377    -0.060494505106     1.007825032230
         H           -3.800511252783     3.130784887377    -1.604069505106     1.007825032230
         H           -2.717186252783     2.053225887377    -2.506273505106     1.007825032230
         H           -4.400934252783     1.574225887377    -2.214122505106     1.007825032230

  Basis Set: AUG-CC-PVTZ
    Blend: AUG-CC-PVTZ
  Basis Set: (AUG-CC-PVTZ AUX)
    Blend: AUG-CC-PVTZ-JKFIT
	 Reference Energy          =   -1327.8623945012213881 [Eh]
	 Singles Energy            =      -0.0000000000000000 [Eh]
	 Same-Spin Energy          =      -1.0142770693043854 [Eh]
	 Opposite-Spin Energy      =      -3.0752854127764540 [Eh]
	 Correlation Energy        =      -4.0895624820808392 [Eh]
	 Total Energy              =   -1331.9519569833021251 [Eh]

	 ================> DF-SCS-MP2 Energies <==================
	-----------------------------------------------------------
	 SCS Same-Spin Scale       =       0.3333333333333333 [-]
	 SCS Opposite-Spin Scale   =       1.2000000000000000 [-]
	 SCS Same-Spin Energy      =      -0.3380923564347951 [Eh]
	 SCS Opposite-Spin Energy  =      -3.6903424953317447 [Eh]
	 SCS Correlation Energy    =      -4.0284348517665398 [Eh]
	 SCS Total Energy          =   -1331.8908293529880211 [Eh]
	-----------------------------------------------------------

  Dipole Moment: [D]
     X:    -1.1156      Y:     1.8633      Z:     0.6867     Total:     2.2778

*** Psi4 exiting successfully. Buy a developer a beer!
