                               Psi4 1.3.2 release

  ==> Input File <==

--------------------------------------------------------------------------
#psi4
#
memory 32 gb

molecule  {
0 1
  P       -2.2900960    -0.9400430     0.3446780
  O       -1.0045579    -0.2592252     0.8939240
  O        1.3422500    -1.6754830     1.2308510
  O        0.0787050     2.3596040     0.4621680
  O        3.0685150    -2.1870720    -0.8085900
  O        2.8473350     2.5031130     0.3715350
  O        4.1956880     0.4353970    -0.9728740
  O       -2.8268630     0.0333510    -0.8075310
  O       -3.2591210    -0.7232820     1.6216710
  O       -2.1189930    -2.3436440    -0.0996680
  C        0.1181620     0.0300090     0.0163190
  C        0.9532920    -1.2442050    -0.0757250
  C        0.9478540     1.1959906     0.5032735
  C        2.2596600    -1.0143070    -0.8180370
  C        2.1770750     1.3964720    -0.2280410
  C        3.0258420     0.1487050    -0.2103220
  C       -3.1242130     1.4315980    -0.4888860
  C       -3.5363170     2.0851650    -1.7841190
  H       -0.2830920     0.2988010    -0.9702380
  H        0.3702690    -2.0293640    -0.5720320
  H        1.1571200     0.9978770     1.6121560
  H        2.0609340    -0.7886600    -1.8727560
  H        1.9169870     1.6362870    -1.2735830
  H        3.2958550    -0.0945320     0.8276460
  H        0.5217750    -1.8880320     1.7115100
  H        0.6655400     3.1093110     0.6831840
  H        2.9735430    -2.5473740     0.0946540
  H        3.7214290     2.5491860    -0.0588690
  H        4.6397270    -0.4238340    -1.0970870
  H       -3.8083950    -1.5223380     1.7347280
  H       -3.9305460     1.4455410     0.2493860
  H       -2.2297620     1.8928800    -0.0590960
  H       -3.8005210     3.1308820    -1.6026710
  H       -2.7171960     2.0533230    -2.5048750
  H       -4.4009440     1.5743230    -2.2127240
units angstrom
no_reorient  #important for SAPT in psi4, default
symmetry c1  #important for SAPT in psi4, default
}

set PROPERTIES_ORIGIN ["COM"]
properties('MP2/aug-cc-pvtz', properties = ['dipole'])
--------------------------------------------------------------------------

    Molecular point group: c1
  Charge       = 0
  Multiplicity = 1
  Basis Set: AUG-CC-PVTZ
    Blend: AUG-CC-PVTZ
  Basis Set: (AUG-CC-PVTZ AUX)
    Blend: AUG-CC-PVTZ-JKFIT

    Orbital Energies [Eh]
    ---------------------

    Doubly Occupied:

       1A    -80.110077     2A    -20.612383     3A    -20.608811
       4A    -20.594870     5A    -20.584373     6A    -20.580806
       7A    -20.576579     8A    -20.576201     9A    -20.573493
      10A    -20.515756    11A    -11.327940    12A    -11.304630
      13A    -11.304573    14A    -11.301199    15A    -11.298997
      16A    -11.298023    17A    -11.295084    18A    -11.228827
      19A     -7.626666    20A     -5.525242    21A     -5.524919
      22A     -5.523511    23A     -1.469600    24A     -1.412284
      25A     -1.399225    26A     -1.393949    27A     -1.384271
      28A     -1.375217    29A     -1.362253    30A     -1.354498
      31A     -1.297773    32A     -1.130613    33A     -1.039285
      34A     -1.020421    35A     -1.011288    36A     -0.889343
      37A     -0.864878    38A     -0.858717    39A     -0.824924
      40A     -0.810112    41A     -0.753104    42A     -0.748378
      43A     -0.734538    44A     -0.731407    45A     -0.711020
      46A     -0.687196    47A     -0.678958    48A     -0.673877
      49A     -0.664179    50A     -0.661876    51A     -0.645839
      52A     -0.638031    53A     -0.629142    54A     -0.615752
      55A     -0.606144    56A     -0.599783    57A     -0.578803
      58A     -0.575244    59A     -0.573243    60A     -0.559311
      61A     -0.556149    62A     -0.550485    63A     -0.539442
      64A     -0.536430    65A     -0.532202    66A     -0.524821
      67A     -0.513457    68A     -0.505208    69A     -0.498385
      70A     -0.485519    71A     -0.478077    72A     -0.471770
      73A     -0.464616    74A     -0.460073    75A     -0.449041
      76A     -0.438095

  @DF-RHF Final Energy: -1327.85423595699922

   => Energetics <=

    Nuclear Repulsion Energy =           1774.8313064908052183
    One-Electron Energy =               -5361.6486636898316647
    Two-Electron Energy =                2258.9631212420272277
    Total Energy =                      -1327.8542359569992186
  Basis Set: (AUG-CC-PVTZ AUX)
    Blend: AUG-CC-PVTZ-RI
    Molecular point group: c1

    Geometry (in Angstrom), charge = 0, multiplicity = 1:

       Center              X                  Y                   Z               Mass
    ------------   -----------------  -----------------  -----------------  -----------------
         P           -2.290904183210    -0.936564001505     0.349706593361    30.973761998420
         O           -1.005366083210    -0.255746201505     0.898952593361    15.994914619570
         O            1.341441816790    -1.672004001505     1.235879593361    15.994914619570
         O            0.077896816790     2.363082998495     0.467196593361    15.994914619570
         O            3.067706816790    -2.183593001505    -0.803561406639    15.994914619570
         O            2.846526816790     2.506591998495     0.376563593361    15.994914619570
         O            4.194879816790     0.438875998495    -0.967845406639    15.994914619570
         O           -2.827671183210     0.036829998495    -0.802502406639    15.994914619570
         O           -3.259929183210    -0.719803001505     1.626699593361    15.994914619570
         O           -2.119801183210    -2.340165001505    -0.094639406639    15.994914619570
         C            0.117353816790     0.033487998495     0.021347593361    12.000000000000
         C            0.952483816790    -1.240726001505    -0.070696406639    12.000000000000
         C            0.947045816790     1.199469598495     0.508302093361    12.000000000000
         C            2.258851816790    -1.010828001505    -0.813008406639    12.000000000000
         C            2.176266816790     1.399950998495    -0.223012406639    12.000000000000
         C            3.025033816790     0.152183998495    -0.205293406639    12.000000000000
         C           -3.125021183210     1.435076998495    -0.483857406639    12.000000000000
         C           -3.537125183210     2.088643998495    -1.779090406639    12.000000000000
         H           -0.283900183210     0.302279998495    -0.965209406639     1.007825032230
         H            0.369460816790    -2.025885001505    -0.567003406639     1.007825032230
         H            1.156311816790     1.001355998495     1.617184593361     1.007825032230
         H            2.060125816790    -0.785181001505    -1.867727406639     1.007825032230
         H            1.916178816790     1.639765998495    -1.268554406639     1.007825032230
         H            3.295046816790    -0.091053001505     0.832674593361     1.007825032230
         H            0.520966816790    -1.884553001505     1.716538593361     1.007825032230
         H            0.664731816790     3.112789998495     0.688212593361     1.007825032230
         H            2.972734816790    -2.543895001505     0.099682593361     1.007825032230
         H            3.720620816790     2.552664998495    -0.053840406639     1.007825032230
         H            4.638918816790    -0.420355001505    -1.092058406639     1.007825032230
         H           -3.809203183210    -1.518859001505     1.739756593361     1.007825032230
         H           -3.931354183210     1.449019998495     0.254414593361     1.007825032230
         H           -2.230570183210     1.896358998495    -0.054067406639     1.007825032230
         H           -3.801329183210     3.134360998495    -1.597642406639     1.007825032230
         H           -2.718004183210     2.056801998495    -2.499846406639     1.007825032230
         H           -4.401752183210     1.577801998495    -2.207695406639     1.007825032230

  Basis Set: AUG-CC-PVTZ
    Blend: AUG-CC-PVTZ
  Basis Set: (AUG-CC-PVTZ AUX)
    Blend: AUG-CC-PVTZ-JKFIT
	 Reference Energy          =   -1327.8542359569992186 [Eh]
	 Singles Energy            =      -0.0000000000000000 [Eh]
	 Same-Spin Energy          =      -1.0143995425591217 [Eh]
	 Opposite-Spin Energy      =      -3.0748812640294081 [Eh]
	 Correlation Energy        =      -4.0892808065885298 [Eh]
	 Total Energy              =   -1331.9435167635876951 [Eh]

	 ================> DF-SCS-MP2 Energies <==================
	-----------------------------------------------------------
	 SCS Same-Spin Scale       =       0.3333333333333333 [-]
	 SCS Opposite-Spin Scale   =       1.2000000000000000 [-]
	 SCS Same-Spin Energy      =      -0.3381331808530406 [Eh]
	 SCS Opposite-Spin Energy  =      -3.6898575168352896 [Eh]
	 SCS Correlation Energy    =      -4.0279906976883302 [Eh]
	 SCS Total Energy          =   -1331.8822266546876563 [Eh]
	-----------------------------------------------------------

  Dipole Moment: [D]
     X:    -0.7012      Y:     1.9926      Z:     0.7538     Total:     2.2429

*** Psi4 exiting successfully. Buy a developer a beer!
