                               Psi4 1.3.2 release

  ==> Input File <==

--------------------------------------------------------------------------
#psi4
#
memory 32 gb

molecule  {
0 1
  P       -2.2900960    -0.9400430     0.3446780
  O       -0.9821530    -0.2015620     0.9382890
  O        1.3422500    -1.6754830     1.2308510
  O        0.0787050     2.3596040     0.4621680
  O        3.0685150    -2.1870720    -0.8085900
  O        2.8473350     2.5031130     0.3715350
  O        4.1956880     0.4353970    -0.9728740
  O       -2.8268630     0.0333510    -0.8075310
  O       -3.2591210    -0.7232820     1.6216710
  O       -2.1189930    -2.3436440    -0.0996680
  C        0.1181620     0.0300090     0.0163190
  C        1.0014754    -1.2376207    -0.0869423
  C        0.8985890     1.2026440     0.5648510
  C        2.2596600    -1.0143070    -0.8180370
  C        2.1770750     1.3964720    -0.2280410
  C        3.0258420     0.1487050    -0.2103220
  C       -3.1242130     1.4315980    -0.4888860
  C       -3.5363170     2.0851650    -1.7841190
  H       -0.2830920     0.2988010    -0.9702380
  H        0.3702690    -2.0293640    -0.5720320
  H        1.1571200     0.9978770     1.6121560
  H        2.0609340    -0.7886600    -1.8727560
  H        1.9169870     1.6362870    -1.2735830
  H        3.2958550    -0.0945320     0.8276460
  H        0.5405285    -1.8963848     1.7386250
  H        0.6655400     3.1093110     0.6831840
  H        2.9735430    -2.5473740     0.0946540
  H        3.7214290     2.5491860    -0.0588690
  H        4.6397270    -0.4238340    -1.0970870
  H       -3.8083950    -1.5223380     1.7347280
  H       -3.9305460     1.4455410     0.2493860
  H       -2.2297620     1.8928800    -0.0590960
  H       -3.8005210     3.1308820    -1.6026710
  H       -2.7171960     2.0533230    -2.5048750
  H       -4.4009440     1.5743230    -2.2127240
units angstrom
no_reorient  #important for SAPT in psi4, default
symmetry c1  #important for SAPT in psi4, default
}

set PROPERTIES_ORIGIN ["COM"]
properties('MP2/aug-cc-pvtz', properties = ['dipole'])
--------------------------------------------------------------------------

    Molecular point group: c1
  Charge       = 0
  Multiplicity = 1
  Basis Set: AUG-CC-PVTZ
    Blend: AUG-CC-PVTZ
  Basis Set: (AUG-CC-PVTZ AUX)
    Blend: AUG-CC-PVTZ-JKFIT

    Orbital Energies [Eh]
    ---------------------

    Doubly Occupied:

       1A    -80.116620     2A    -20.614535     3A    -20.607563
       4A    -20.598608     5A    -20.581096     6A    -20.576948
       7A    -20.575038     8A    -20.574494     9A    -20.572699
      10A    -20.522916    11A    -11.321220    12A    -11.305246
      13A    -11.299101    14A    -11.298350    15A    -11.297721
      16A    -11.296732    17A    -11.291933    18A    -11.229639
      19A     -7.632065    20A     -5.530570    21A     -5.530196
      22A     -5.528995    23A     -1.459765    24A     -1.410669
      25A     -1.394346    26A     -1.393184    27A     -1.386577
      28A     -1.372215    29A     -1.363461    30A     -1.353940
      31A     -1.303254    32A     -1.121490    33A     -1.040204
      34A     -1.011588    35A     -1.007383    36A     -0.880928
      37A     -0.865044    38A     -0.857202    39A     -0.822470
      40A     -0.812616    41A     -0.751200    42A     -0.745097
      43A     -0.730355    44A     -0.728246    45A     -0.707937
      46A     -0.687459    47A     -0.680967    48A     -0.672941
      49A     -0.663066    50A     -0.661289    51A     -0.641531
      52A     -0.634895    53A     -0.627913    54A     -0.615193
      55A     -0.603175    56A     -0.598242    57A     -0.581354
      58A     -0.575362    59A     -0.570008    60A     -0.558905
      61A     -0.555383    62A     -0.546050    63A     -0.540372
      64A     -0.537221    65A     -0.530853    66A     -0.521935
      67A     -0.514036    68A     -0.506503    69A     -0.496535
      70A     -0.485705    71A     -0.478967    72A     -0.476156
      73A     -0.462140    74A     -0.456055    75A     -0.448148
      76A     -0.433972

  @DF-RHF Final Energy: -1327.85847642052909

   => Energetics <=

    Nuclear Repulsion Energy =           1772.3485410985995259
    One-Electron Energy =               -5356.8464587472690255
    Two-Electron Energy =                2256.6394412281406403
    Total Energy =                      -1327.8584764205288593
  Basis Set: (AUG-CC-PVTZ AUX)
    Blend: AUG-CC-PVTZ-RI
    Molecular point group: c1

    Geometry (in Angstrom), charge = 0, multiplicity = 1:

       Center              X                  Y                   Z               Mass
    ------------   -----------------  -----------------  -----------------  -----------------
         P           -2.292168795515    -0.940288046512     0.345050413337    30.973761998420
         O           -0.984225795515    -0.201807046512     0.938661413337    15.994914619570
         O            1.340177204485    -1.675728046512     1.231223413337    15.994914619570
         O            0.076632204485     2.359358953488     0.462540413337    15.994914619570
         O            3.066442204485    -2.187317046512    -0.808217586663    15.994914619570
         O            2.845262204485     2.502867953488     0.371907413337    15.994914619570
         O            4.193615204485     0.435151953488    -0.972501586663    15.994914619570
         O           -2.828935795515     0.033105953488    -0.807158586663    15.994914619570
         O           -3.261193795515    -0.723527046512     1.622043413337    15.994914619570
         O           -2.121065795515    -2.343889046512    -0.099295586663    15.994914619570
         C            0.116089204485     0.029763953488     0.016691413337    12.000000000000
         C            0.999402604485    -1.237865746512    -0.086569886663    12.000000000000
         C            0.896516204485     1.202398953488     0.565223413337    12.000000000000
         C            2.257587204485    -1.014552046512    -0.817664586663    12.000000000000
         C            2.175002204485     1.396226953488    -0.227668586663    12.000000000000
         C            3.023769204485     0.148459953488    -0.209949586663    12.000000000000
         C           -3.126285795515     1.431352953488    -0.488513586663    12.000000000000
         C           -3.538389795515     2.084919953488    -1.783746586663    12.000000000000
         H           -0.285164795515     0.298555953488    -0.969865586663     1.007825032230
         H            0.368196204485    -2.029609046512    -0.571659586663     1.007825032230
         H            1.155047204485     0.997631953488     1.612528413337     1.007825032230
         H            2.058861204485    -0.788905046512    -1.872383586663     1.007825032230
         H            1.914914204485     1.636041953488    -1.273210586663     1.007825032230
         H            3.293782204485    -0.094777046512     0.828018413337     1.007825032230
         H            0.538455704485    -1.896629846512     1.738997413337     1.007825032230
         H            0.663467204485     3.109065953488     0.683556413337     1.007825032230
         H            2.971470204485    -2.547619046512     0.095026413337     1.007825032230
         H            3.719356204485     2.548940953488    -0.058496586663     1.007825032230
         H            4.637654204485    -0.424079046512    -1.096714586663     1.007825032230
         H           -3.810467795515    -1.522583046512     1.735100413337     1.007825032230
         H           -3.932618795515     1.445295953488     0.249758413337     1.007825032230
         H           -2.231834795515     1.892634953488    -0.058723586663     1.007825032230
         H           -3.802593795515     3.130636953488    -1.602298586663     1.007825032230
         H           -2.719268795515     2.053077953488    -2.504502586663     1.007825032230
         H           -4.403016795515     1.574077953488    -2.212351586663     1.007825032230

  Basis Set: AUG-CC-PVTZ
    Blend: AUG-CC-PVTZ
  Basis Set: (AUG-CC-PVTZ AUX)
    Blend: AUG-CC-PVTZ-JKFIT
	 Reference Energy          =   -1327.8584764205290867 [Eh]
	 Singles Energy            =      -0.0000000000000000 [Eh]
	 Same-Spin Energy          =      -1.0147561557590146 [Eh]
	 Opposite-Spin Energy      =      -3.0761114652657437 [Eh]
	 Correlation Energy        =      -4.0908676210247581 [Eh]
	 Total Energy              =   -1331.9493440415537862 [Eh]

	 ================> DF-SCS-MP2 Energies <==================
	-----------------------------------------------------------
	 SCS Same-Spin Scale       =       0.3333333333333333 [-]
	 SCS Opposite-Spin Scale   =       1.2000000000000000 [-]
	 SCS Same-Spin Energy      =      -0.3382520519196715 [Eh]
	 SCS Opposite-Spin Energy  =      -3.6913337583188923 [Eh]
	 SCS Correlation Energy    =      -4.0295858102385642 [Eh]
	 SCS Total Energy          =   -1331.8880622307676731 [Eh]
	-----------------------------------------------------------

  Dipole Moment: [D]
     X:    -1.0642      Y:     1.8511      Z:     0.7477     Total:     2.2623

*** Psi4 exiting successfully. Buy a developer a beer!
