                               Psi4 1.3.2 release

  ==> Input File <==

--------------------------------------------------------------------------
#psi4
#
memory 32 gb

molecule  {
0 1
  P       -2.2900960    -0.9400430     0.3446780
  O       -0.9821530    -0.2015620     0.9382890
  O        1.3422500    -1.6754830     1.2308510
  O        0.0787050     2.3596040     0.4621680
  O        3.0685150    -2.1870720    -0.8085900
  O        2.8509291     2.4769565     0.4137286
  O        4.1956880     0.4353970    -0.9728740
  O       -2.8268630     0.0333510    -0.8075310
  O       -3.2591210    -0.7232820     1.6216710
  O       -2.1189930    -2.3436440    -0.0996680
  C        0.1181620     0.0300090     0.0163190
  C        0.9532920    -1.2442050    -0.0757250
  C        0.8985890     1.2026440     0.5648510
  C        2.2596600    -1.0143070    -0.8180370
  C        2.1770750     1.3964720    -0.2280410
  C        3.0258420     0.1487050    -0.2103220
  C       -3.1242130     1.4315980    -0.4888860
  C       -3.5363170     2.0851650    -1.7841190
  H       -0.2830920     0.2988010    -0.9702380
  H        0.3702690    -2.0293640    -0.5720320
  H        1.1571200     0.9978770     1.6121560
  H        2.0609340    -0.7886600    -1.8727560
  H        1.9011752     1.6013169    -1.2769609
  H        3.2958550    -0.0945320     0.8276460
  H        0.5217750    -1.8880320     1.7115100
  H        0.6655400     3.1093110     0.6831840
  H        2.9735430    -2.5473740     0.0946540
  H        3.7214290     2.5491860    -0.0588690
  H        4.6397270    -0.4238340    -1.0970870
  H       -3.8083950    -1.5223380     1.7347280
  H       -3.9305460     1.4455410     0.2493860
  H       -2.2297620     1.8928800    -0.0590960
  H       -3.8005210     3.1308820    -1.6026710
  H       -2.7171960     2.0533230    -2.5048750
  H       -4.4009440     1.5743230    -2.2127240
units angstrom
no_reorient  #important for SAPT in psi4, default
symmetry c1  #important for SAPT in psi4, default
}

set PROPERTIES_ORIGIN ["COM"]
properties('MP2/aug-cc-pvtz', properties = ['dipole'])
--------------------------------------------------------------------------

    Molecular point group: c1
  Charge       = 0
  Multiplicity = 1
  Basis Set: AUG-CC-PVTZ
    Blend: AUG-CC-PVTZ
  Basis Set: (AUG-CC-PVTZ AUX)
    Blend: AUG-CC-PVTZ-JKFIT

    Orbital Energies [Eh]
    ---------------------

    Doubly Occupied:

       1A    -80.116768     2A    -20.614591     3A    -20.606749
       4A    -20.598851     5A    -20.582748     6A    -20.580391
       7A    -20.574178     8A    -20.573827     9A    -20.573485
      10A    -20.523276    11A    -11.320307    12A    -11.303191
      13A    -11.299359    14A    -11.298785    15A    -11.297857
      16A    -11.296819    17A    -11.290267    18A    -11.229897
      19A     -7.632220    20A     -5.530726    21A     -5.530353
      22A     -5.529152    23A     -1.460100    24A     -1.410496
      25A     -1.394143    26A     -1.392608    27A     -1.386747
      28A     -1.372478    29A     -1.363250    30A     -1.352967
      31A     -1.303674    32A     -1.118680    33A     -1.040449
      34A     -1.011572    35A     -1.002869    36A     -0.879720
      37A     -0.864682    38A     -0.858679    39A     -0.821535
      40A     -0.810468    41A     -0.751893    42A     -0.744788
      43A     -0.731442    44A     -0.728068    45A     -0.706684
      46A     -0.686900    47A     -0.677741    48A     -0.673539
      49A     -0.662451    50A     -0.659911    51A     -0.642560
      52A     -0.634747    53A     -0.627175    54A     -0.615027
      55A     -0.602129    56A     -0.598239    57A     -0.581175
      58A     -0.575429    59A     -0.570762    60A     -0.559574
      61A     -0.556629    62A     -0.548051    63A     -0.541226
      64A     -0.536901    65A     -0.529829    66A     -0.521262
      67A     -0.513889    68A     -0.504079    69A     -0.497060
      70A     -0.484395    71A     -0.479765    72A     -0.476453
      73A     -0.462986    74A     -0.455226    75A     -0.450110
      76A     -0.435430

  @DF-RHF Final Energy: -1327.85880745798158

   => Energetics <=

    Nuclear Repulsion Energy =           1772.7858274671771142
    One-Electron Energy =               -5357.7443885208049323
    Two-Electron Energy =                2257.0997535956462343
    Total Energy =                      -1327.8588074579815839
  Basis Set: (AUG-CC-PVTZ AUX)
    Blend: AUG-CC-PVTZ-RI
    Molecular point group: c1

    Geometry (in Angstrom), charge = 0, multiplicity = 1:

       Center              X                  Y                   Z               Mass
    ------------   -----------------  -----------------  -----------------  -----------------
         P           -2.290240213669    -0.938468264831     0.342346961395    30.973761998420
         O           -0.982297213669    -0.199987264831     0.935957961395    15.994914619570
         O            1.342105786331    -1.673908264831     1.228519961395    15.994914619570
         O            0.078560786331     2.361178735169     0.459836961395    15.994914619570
         O            3.068370786331    -2.185497264831    -0.810921038605    15.994914619570
         O            2.850784886331     2.478531235169     0.411397561395    15.994914619570
         O            4.195543786331     0.436971735169    -0.975205038605    15.994914619570
         O           -2.827007213669     0.034925735169    -0.809862038605    15.994914619570
         O           -3.259265213669    -0.721707264831     1.619339961395    15.994914619570
         O           -2.119137213669    -2.342069264831    -0.101999038605    15.994914619570
         C            0.118017786331     0.031583735169     0.013987961395    12.000000000000
         C            0.953147786331    -1.242630264831    -0.078056038605    12.000000000000
         C            0.898444786331     1.204218735169     0.562519961395    12.000000000000
         C            2.259515786331    -1.012732264831    -0.820368038605    12.000000000000
         C            2.176930786331     1.398046735169    -0.230372038605    12.000000000000
         C            3.025697786331     0.150279735169    -0.212653038605    12.000000000000
         C           -3.124357213669     1.433172735169    -0.491217038605    12.000000000000
         C           -3.536461213669     2.086739735169    -1.786450038605    12.000000000000
         H           -0.283236213669     0.300375735169    -0.972569038605     1.007825032230
         H            0.370124786331    -2.027789264831    -0.574363038605     1.007825032230
         H            1.156975786331     0.999451735169     1.609824961395     1.007825032230
         H            2.060789786331    -0.787085264831    -1.875087038605     1.007825032230
         H            1.901030986331     1.602891635169    -1.279291938605     1.007825032230
         H            3.295710786331    -0.092957264831     0.825314961395     1.007825032230
         H            0.521630786331    -1.886457264831     1.709178961395     1.007825032230
         H            0.665395786331     3.110885735169     0.680852961395     1.007825032230
         H            2.973398786331    -2.545799264831     0.092322961395     1.007825032230
         H            3.721284786331     2.550760735169    -0.061200038605     1.007825032230
         H            4.639582786331    -0.422259264831    -1.099418038605     1.007825032230
         H           -3.808539213669    -1.520763264831     1.732396961395     1.007825032230
         H           -3.930690213669     1.447115735169     0.247054961395     1.007825032230
         H           -2.229906213669     1.894454735169    -0.061427038605     1.007825032230
         H           -3.800665213669     3.132456735169    -1.605002038605     1.007825032230
         H           -2.717340213669     2.054897735169    -2.507206038605     1.007825032230
         H           -4.401088213669     1.575897735169    -2.215055038605     1.007825032230

  Basis Set: AUG-CC-PVTZ
    Blend: AUG-CC-PVTZ
  Basis Set: (AUG-CC-PVTZ AUX)
    Blend: AUG-CC-PVTZ-JKFIT
	 Reference Energy          =   -1327.8588074579815839 [Eh]
	 Singles Energy            =      -0.0000000000000000 [Eh]
	 Same-Spin Energy          =      -1.0150310125228192 [Eh]
	 Opposite-Spin Energy      =      -3.0770154377459518 [Eh]
	 Correlation Energy        =      -4.0920464502687715 [Eh]
	 Total Energy              =   -1331.9508539082503376 [Eh]

	 ================> DF-SCS-MP2 Energies <==================
	-----------------------------------------------------------
	 SCS Same-Spin Scale       =       0.3333333333333333 [-]
	 SCS Opposite-Spin Scale   =       1.2000000000000000 [-]
	 SCS Same-Spin Energy      =      -0.3383436708409397 [Eh]
	 SCS Opposite-Spin Energy  =      -3.6924185252951420 [Eh]
	 SCS Correlation Energy    =      -4.0307621961360818 [Eh]
	 SCS Total Energy          =   -1331.8895696541176221 [Eh]
	-----------------------------------------------------------

  Dipole Moment: [D]
     X:    -1.1116      Y:     1.9451      Z:     0.6583     Total:     2.3350

*** Psi4 exiting successfully. Buy a developer a beer!
