                               Psi4 1.3.2 release

  ==> Input File <==

--------------------------------------------------------------------------
#psi4
#
memory 32 gb

molecule  {
0 1
  P       -2.2900960    -0.9400430     0.3446780
  O       -0.9821530    -0.2015620     0.9382890
  O        1.3422500    -1.6754830     1.2308510
  O        0.0787050     2.3596040     0.4621680
  O        3.0685150    -2.1870720    -0.8085900
  O        2.8473350     2.5031130     0.3715350
  O        4.1956880     0.4353970    -0.9728740
  O       -2.8268630     0.0333510    -0.8075310
  O       -3.2591210    -0.7232820     1.6216710
  O       -2.1189930    -2.3436440    -0.0996680
  C        0.1181620     0.0300090     0.0163190
  C        0.9532920    -1.2442050    -0.0757250
  C        0.8914824     1.2274698     0.5590189
  C        2.2596600    -1.0143070    -0.8180370
  C        2.1770750     1.3964720    -0.2280410
  C        3.0437737     0.1609691    -0.2252162
  C       -3.1242130     1.4315980    -0.4888860
  C       -3.5363170     2.0851650    -1.7841190
  H       -0.2830920     0.2988010    -0.9702380
  H        0.3702690    -2.0293640    -0.5720320
  H        1.1571200     0.9978770     1.6121560
  H        2.0609340    -0.7886600    -1.8727560
  H        1.9169870     1.6362870    -1.2735830
  H        3.2958550    -0.0945320     0.8276460
  H        0.5217750    -1.8880320     1.7115100
  H        0.6655400     3.1093110     0.6831840
  H        2.9735430    -2.5473740     0.0946540
  H        3.7214290     2.5491860    -0.0588690
  H        4.6397270    -0.4238340    -1.0970870
  H       -3.8083950    -1.5223380     1.7347280
  H       -3.9305460     1.4455410     0.2493860
  H       -2.2297620     1.8928800    -0.0590960
  H       -3.8005210     3.1308820    -1.6026710
  H       -2.7171960     2.0533230    -2.5048750
  H       -4.4009440     1.5743230    -2.2127240
units angstrom
no_reorient  #important for SAPT in psi4, default
symmetry c1  #important for SAPT in psi4, default
}

set PROPERTIES_ORIGIN ["COM"]
properties('MP2/aug-cc-pvtz', properties = ['dipole'])
--------------------------------------------------------------------------

    Molecular point group: c1
  Charge       = 0
  Multiplicity = 1
  Basis Set: AUG-CC-PVTZ
    Blend: AUG-CC-PVTZ
  Basis Set: (AUG-CC-PVTZ AUX)
    Blend: AUG-CC-PVTZ-JKFIT

    Orbital Energies [Eh]
    ---------------------

    Doubly Occupied:

       1A    -80.116524     2A    -20.614430     3A    -20.606310
       4A    -20.598731     5A    -20.581990     6A    -20.576705
       7A    -20.576522     8A    -20.575924     9A    -20.573909
      10A    -20.523040    11A    -11.319896    12A    -11.303027
      13A    -11.299571    14A    -11.299102    15A    -11.298447
      16A    -11.295314    17A    -11.291804    18A    -11.229984
      19A     -7.631976    20A     -5.530482    21A     -5.530108
      22A     -5.528908    23A     -1.459821    24A     -1.412562
      25A     -1.397268    26A     -1.396344    27A     -1.386934
      28A     -1.377452    29A     -1.365864    30A     -1.356969
      31A     -1.303443    32A     -1.114947    33A     -1.040511
      34A     -1.009380    35A     -1.001250    36A     -0.879897
      37A     -0.864880    38A     -0.859000    39A     -0.821960
      40A     -0.808327    41A     -0.753727    42A     -0.745658
      43A     -0.732050    44A     -0.728260    45A     -0.707002
      46A     -0.689674    47A     -0.677813    48A     -0.674614
      49A     -0.665272    50A     -0.660634    51A     -0.643712
      52A     -0.636880    53A     -0.627168    54A     -0.615473
      55A     -0.604409    56A     -0.599487    57A     -0.583491
      58A     -0.575427    59A     -0.571052    60A     -0.560087
      61A     -0.557962    62A     -0.548621    63A     -0.541103
      64A     -0.537470    65A     -0.530081    66A     -0.520332
      67A     -0.513167    68A     -0.503718    69A     -0.496036
      70A     -0.483337    71A     -0.479537    72A     -0.476210
      73A     -0.460666    74A     -0.454114    75A     -0.447831
      76A     -0.432112

  @DF-RHF Final Energy: -1327.86105201653936

   => Energetics <=

    Nuclear Repulsion Energy =           1772.1149339543921997
    One-Electron Energy =               -5356.3645724652105855
    Two-Electron Energy =                2256.3885864942790249
    Total Energy =                      -1327.8610520165393609
  Basis Set: (AUG-CC-PVTZ AUX)
    Blend: AUG-CC-PVTZ-RI
    Molecular point group: c1

    Geometry (in Angstrom), charge = 0, multiplicity = 1:

       Center              X                  Y                   Z               Mass
    ------------   -----------------  -----------------  -----------------  -----------------
         P           -2.290546917455    -0.941588067466     0.345541403670    30.973761998420
         O           -0.982603917455    -0.203107067466     0.939152403670    15.994914619570
         O            1.341799082545    -1.677028067466     1.231714403670    15.994914619570
         O            0.078254082545     2.358058932534     0.463031403670    15.994914619570
         O            3.068064082545    -2.188617067466    -0.807726596330    15.994914619570
         O            2.846884082545     2.501567932534     0.372398403670    15.994914619570
         O            4.195237082545     0.433851932534    -0.972010596330    15.994914619570
         O           -2.827313917455     0.031805932534    -0.806667596330    15.994914619570
         O           -3.259571917455    -0.724827067466     1.622534403670    15.994914619570
         O           -2.119443917455    -2.345189067466    -0.098804596330    15.994914619570
         C            0.117711082545     0.028463932534     0.017182403670    12.000000000000
         C            0.952841082545    -1.245750067466    -0.074861596330    12.000000000000
         C            0.891031482545     1.225924732534     0.559882303670    12.000000000000
         C            2.259209082545    -1.015852067466    -0.817173596330    12.000000000000
         C            2.176624082545     1.394926932534    -0.227177596330    12.000000000000
         C            3.043322782545     0.159424032534    -0.224352796330    12.000000000000
         C           -3.124663917455     1.430052932534    -0.488022596330    12.000000000000
         C           -3.536767917455     2.083619932534    -1.783255596330    12.000000000000
         H           -0.283542917455     0.297255932534    -0.969374596330     1.007825032230
         H            0.369818082545    -2.030909067466    -0.571168596330     1.007825032230
         H            1.156669082545     0.996331932534     1.613019403670     1.007825032230
         H            2.060483082545    -0.790205067466    -1.871892596330     1.007825032230
         H            1.916536082545     1.634741932534    -1.272719596330     1.007825032230
         H            3.295404082545    -0.096077067466     0.828509403670     1.007825032230
         H            0.521324082545    -1.889577067466     1.712373403670     1.007825032230
         H            0.665089082545     3.107765932534     0.684047403670     1.007825032230
         H            2.973092082545    -2.548919067466     0.095517403670     1.007825032230
         H            3.720978082545     2.547640932534    -0.058005596330     1.007825032230
         H            4.639276082545    -0.425379067466    -1.096223596330     1.007825032230
         H           -3.808845917455    -1.523883067466     1.735591403670     1.007825032230
         H           -3.930996917455     1.443995932534     0.250249403670     1.007825032230
         H           -2.230212917455     1.891334932534    -0.058232596330     1.007825032230
         H           -3.800971917455     3.129336932534    -1.601807596330     1.007825032230
         H           -2.717646917455     2.051777932534    -2.504011596330     1.007825032230
         H           -4.401394917455     1.572777932534    -2.211860596330     1.007825032230

  Basis Set: AUG-CC-PVTZ
    Blend: AUG-CC-PVTZ
  Basis Set: (AUG-CC-PVTZ AUX)
    Blend: AUG-CC-PVTZ-JKFIT
	 Reference Energy          =   -1327.8610520165393609 [Eh]
	 Singles Energy            =      -0.0000000000000000 [Eh]
	 Same-Spin Energy          =      -1.0144384477358419 [Eh]
	 Opposite-Spin Energy      =      -3.0753040551883988 [Eh]
	 Correlation Energy        =      -4.0897425029242402 [Eh]
	 Total Energy              =   -1331.9507945194636704 [Eh]

	 ================> DF-SCS-MP2 Energies <==================
	-----------------------------------------------------------
	 SCS Same-Spin Scale       =       0.3333333333333333 [-]
	 SCS Opposite-Spin Scale   =       1.2000000000000000 [-]
	 SCS Same-Spin Energy      =      -0.3381461492452806 [Eh]
	 SCS Opposite-Spin Energy  =      -3.6903648662260782 [Eh]
	 SCS Correlation Energy    =      -4.0285110154713593 [Eh]
	 SCS Total Energy          =   -1331.8895630320107557 [Eh]
	-----------------------------------------------------------

  Dipole Moment: [D]
     X:    -1.0810      Y:     1.9552      Z:     0.6712     Total:     2.3328

*** Psi4 exiting successfully. Buy a developer a beer!
