                               Psi4 1.3.2 release

  ==> Input File <==

--------------------------------------------------------------------------
#psi4
#
memory 32 gb

molecule  {
0 1
  P       -2.2900960    -0.9400430     0.3446780
  O       -1.0303864    -0.1857684     0.8815494
  O        1.3422500    -1.6754830     1.2308510
  O        0.0787050     2.3596040     0.4621680
  O        3.0685150    -2.1870720    -0.8085900
  O        2.8473350     2.5031130     0.3715350
  O        4.1956880     0.4353970    -0.9728740
  O       -2.8268630     0.0333510    -0.8075310
  O       -3.2591210    -0.7232820     1.6216710
  O       -2.1189930    -2.3436440    -0.0996680
  C        0.1181620     0.0300090     0.0163190
  C        0.9532920    -1.2442050    -0.0757250
  C        0.8985890     1.2026440     0.5648510
  C        2.2596600    -1.0143070    -0.8180370
  C        2.1770750     1.3964720    -0.2280410
  C        3.0258420     0.1487050    -0.2103220
  C       -3.1242130     1.4315980    -0.4888860
  C       -3.5363170     2.0851650    -1.7841190
  H       -0.3360515     0.2936785    -0.9484178
  H        0.3702690    -2.0293640    -0.5720320
  H        1.1571200     0.9978770     1.6121560
  H        2.0609340    -0.7886600    -1.8727560
  H        1.9169870     1.6362870    -1.2735830
  H        3.2958550    -0.0945320     0.8276460
  H        0.5217750    -1.8880320     1.7115100
  H        0.6655400     3.1093110     0.6831840
  H        2.9735430    -2.5473740     0.0946540
  H        3.7214290     2.5491860    -0.0588690
  H        4.6397270    -0.4238340    -1.0970870
  H       -3.8083950    -1.5223380     1.7347280
  H       -3.9305460     1.4455410     0.2493860
  H       -2.2297620     1.8928800    -0.0590960
  H       -3.8005210     3.1308820    -1.6026710
  H       -2.7171960     2.0533230    -2.5048750
  H       -4.4009440     1.5743230    -2.2127240
units angstrom
no_reorient  #important for SAPT in psi4, default
symmetry c1  #important for SAPT in psi4, default
}

set PROPERTIES_ORIGIN ["COM"]
properties('MP2/aug-cc-pvtz', properties = ['dipole'])
--------------------------------------------------------------------------

    Molecular point group: c1
  Charge       = 0
  Multiplicity = 1
  Basis Set: AUG-CC-PVTZ
    Blend: AUG-CC-PVTZ
  Basis Set: (AUG-CC-PVTZ AUX)
    Blend: AUG-CC-PVTZ-JKFIT

    Orbital Energies [Eh]
    ---------------------

    Doubly Occupied:

       1A    -80.110116     2A    -20.612139     3A    -20.604581
       4A    -20.591880     5A    -20.586495     6A    -20.578406
       7A    -20.576468     8A    -20.575532     9A    -20.574845
      10A    -20.520205    11A    -11.324644    12A    -11.306755
      13A    -11.301739    14A    -11.301476    15A    -11.298847
      16A    -11.296429    17A    -11.293190    18A    -11.227784
      19A     -7.626603    20A     -5.525144    21A     -5.524849
      22A     -5.523495    23A     -1.467346    24A     -1.411901
      25A     -1.396718    26A     -1.395366    27A     -1.382897
      28A     -1.375794    29A     -1.365826    30A     -1.355739
      31A     -1.301108    32A     -1.122081    33A     -1.037992
      34A     -1.016452    35A     -1.005716    36A     -0.885151
      37A     -0.863144    38A     -0.861250    39A     -0.821134
      40A     -0.810777    41A     -0.753956    42A     -0.748137
      43A     -0.733907    44A     -0.728537    45A     -0.710587
      46A     -0.688666    47A     -0.679701    48A     -0.673200
      49A     -0.663396    50A     -0.660766    51A     -0.646052
      52A     -0.637166    53A     -0.628792    54A     -0.615015
      55A     -0.604639    56A     -0.600181    57A     -0.582003
      58A     -0.574777    59A     -0.572343    60A     -0.560080
      61A     -0.557360    62A     -0.547712    63A     -0.539642
      64A     -0.537887    65A     -0.527639    66A     -0.523702
      67A     -0.512837    68A     -0.505110    69A     -0.496043
      70A     -0.486061    71A     -0.476981    72A     -0.474282
      73A     -0.464306    74A     -0.457474    75A     -0.451969
      76A     -0.438073

  @DF-RHF Final Energy: -1327.86208294200105

   => Energetics <=

    Nuclear Repulsion Energy =           1774.2282212051313763
    One-Electron Energy =               -5360.5466295371252272
    Two-Electron Energy =                2258.4563253899927986
    Total Energy =                      -1327.8620829420010523
  Basis Set: (AUG-CC-PVTZ AUX)
    Blend: AUG-CC-PVTZ-RI
    Molecular point group: c1

    Geometry (in Angstrom), charge = 0, multiplicity = 1:

       Center              X                  Y                   Z               Mass
    ------------   -----------------  -----------------  -----------------  -----------------
         P           -2.287232466137    -0.940902018028     0.347752180108    30.973761998420
         O           -1.027522866137    -0.186627418028     0.884623580108    15.994914619570
         O            1.345113533863    -1.676342018028     1.233925180108    15.994914619570
         O            0.081568533863     2.358744981972     0.465242180108    15.994914619570
         O            3.071378533863    -2.187931018028    -0.805515819892    15.994914619570
         O            2.850198533863     2.502253981972     0.374609180108    15.994914619570
         O            4.198551533863     0.434537981972    -0.969799819892    15.994914619570
         O           -2.823999466137     0.032491981972    -0.804456819892    15.994914619570
         O           -3.256257466137    -0.724141018028     1.624745180108    15.994914619570
         O           -2.116129466137    -2.344503018028    -0.096593819892    15.994914619570
         C            0.121025533863     0.029149981972     0.019393180108    12.000000000000
         C            0.956155533863    -1.245064018028    -0.072650819892    12.000000000000
         C            0.901452533863     1.201784981972     0.567925180108    12.000000000000
         C            2.262523533863    -1.015166018028    -0.814962819892    12.000000000000
         C            2.179938533863     1.395612981972    -0.224966819892    12.000000000000
         C            3.028705533863     0.147845981972    -0.207247819892    12.000000000000
         C           -3.121349466137     1.430738981972    -0.485811819892    12.000000000000
         C           -3.533453466137     2.084305981972    -1.781044819892    12.000000000000
         H           -0.333187966137     0.292819481972    -0.945343619892     1.007825032230
         H            0.373132533863    -2.030223018028    -0.568957819892     1.007825032230
         H            1.159983533863     0.997017981972     1.615230180108     1.007825032230
         H            2.063797533863    -0.789519018028    -1.869681819892     1.007825032230
         H            1.919850533863     1.635427981972    -1.270508819892     1.007825032230
         H            3.298718533863    -0.095391018028     0.830720180108     1.007825032230
         H            0.524638533863    -1.888891018028     1.714584180108     1.007825032230
         H            0.668403533863     3.108451981972     0.686258180108     1.007825032230
         H            2.976406533863    -2.548233018028     0.097728180108     1.007825032230
         H            3.724292533863     2.548326981972    -0.055794819892     1.007825032230
         H            4.642590533863    -0.424693018028    -1.094012819892     1.007825032230
         H           -3.805531466137    -1.523197018028     1.737802180108     1.007825032230
         H           -3.927682466137     1.444681981972     0.252460180108     1.007825032230
         H           -2.226898466137     1.892020981972    -0.056021819892     1.007825032230
         H           -3.797657466137     3.130022981972    -1.599596819892     1.007825032230
         H           -2.714332466137     2.052463981972    -2.501800819892     1.007825032230
         H           -4.398080466137     1.573463981972    -2.209649819892     1.007825032230

  Basis Set: AUG-CC-PVTZ
    Blend: AUG-CC-PVTZ
  Basis Set: (AUG-CC-PVTZ AUX)
    Blend: AUG-CC-PVTZ-JKFIT
	 Reference Energy          =   -1327.8620829420010523 [Eh]
	 Singles Energy            =      -0.0000000000000000 [Eh]
	 Same-Spin Energy          =      -1.0137979939987853 [Eh]
	 Opposite-Spin Energy      =      -3.0739811758877709 [Eh]
	 Correlation Energy        =      -4.0877791698865558 [Eh]
	 Total Energy              =   -1331.9498621118875690 [Eh]

	 ================> DF-SCS-MP2 Energies <==================
	-----------------------------------------------------------
	 SCS Same-Spin Scale       =       0.3333333333333333 [-]
	 SCS Opposite-Spin Scale   =       1.2000000000000000 [-]
	 SCS Same-Spin Energy      =      -0.3379326646662618 [Eh]
	 SCS Opposite-Spin Energy  =      -3.6887774110653249 [Eh]
	 SCS Correlation Energy    =      -4.0267100757315868 [Eh]
	 SCS Total Energy          =   -1331.8887930177327235 [Eh]
	-----------------------------------------------------------

  Dipole Moment: [D]
     X:    -0.7292      Y:     1.8567      Z:     0.8574     Total:     2.1712

*** Psi4 exiting successfully. Buy a developer a beer!
