                               Psi4 1.3.2 release

  ==> Input File <==

--------------------------------------------------------------------------
#psi4
#
memory 32 gb

molecule  {
0 1
  P       -2.2900960    -0.9400430     0.3446780
  O       -0.9821530    -0.2015620     0.9382890
  O        1.3422500    -1.6754830     1.2308510
  O        0.1340561     2.3991192     0.4924182
  O        3.0685150    -2.1870720    -0.8085900
  O        2.8473350     2.5031130     0.3715350
  O        4.1956880     0.4353970    -0.9728740
  O       -2.8268630     0.0333510    -0.8075310
  O       -3.2591210    -0.7232820     1.6216710
  O       -2.1189930    -2.3436440    -0.0996680
  C        0.1803662    -0.0162169     0.0323470
  C        0.9532920    -1.2442050    -0.0757250
  C        0.8985890     1.2026440     0.5648510
  C        2.2596600    -1.0143070    -0.8180370
  C        2.1770750     1.3964720    -0.2280410
  C        3.0258420     0.1487050    -0.2103220
  C       -3.1242130     1.4315980    -0.4888860
  C       -3.5363170     2.0851650    -1.7841190
  H       -0.2830920     0.2988010    -0.9702380
  H        0.3702690    -2.0293640    -0.5720320
  H        1.1571200     0.9978770     1.6121560
  H        2.0609340    -0.7886600    -1.8727560
  H        1.9169870     1.6362870    -1.2735830
  H        3.2958550    -0.0945320     0.8276460
  H        0.5217750    -1.8880320     1.7115100
  H        0.6655400     3.1093110     0.6831840
  H        2.9735430    -2.5473740     0.0946540
  H        3.7214290     2.5491860    -0.0588690
  H        4.6397270    -0.4238340    -1.0970870
  H       -3.8083950    -1.5223380     1.7347280
  H       -3.9305460     1.4455410     0.2493860
  H       -2.2297620     1.8928800    -0.0590960
  H       -3.8005210     3.1308820    -1.6026710
  H       -2.7171960     2.0533230    -2.5048750
  H       -4.4009440     1.5743230    -2.2127240
units angstrom
no_reorient  #important for SAPT in psi4, default
symmetry c1  #important for SAPT in psi4, default
}

set PROPERTIES_ORIGIN ["COM"]
properties('MP2/aug-cc-pvtz', properties = ['dipole'])
--------------------------------------------------------------------------

    Molecular point group: c1
  Charge       = 0
  Multiplicity = 1
  Basis Set: AUG-CC-PVTZ
    Blend: AUG-CC-PVTZ
  Basis Set: (AUG-CC-PVTZ AUX)
    Blend: AUG-CC-PVTZ-JKFIT

    Orbital Energies [Eh]
    ---------------------

    Doubly Occupied:

       1A    -80.115564     2A    -20.613754     3A    -20.603716
       4A    -20.598082     5A    -20.584839     6A    -20.576809
       7A    -20.575757     8A    -20.575021     9A    -20.566491
      10A    -20.522600    11A    -11.327444    12A    -11.304611
      13A    -11.302333    14A    -11.301948    15A    -11.299382
      16A    -11.296495    17A    -11.292486    18A    -11.229698
      19A     -7.630961    20A     -5.529452    21A     -5.529084
      22A     -5.527938    23A     -1.456525    24A     -1.413458
      25A     -1.399536    26A     -1.392065    27A     -1.386183
      28A     -1.374075    29A     -1.367198    30A     -1.355447
      31A     -1.302870    32A     -1.129710    33A     -1.040195
      34A     -1.018090    35A     -1.010034    36A     -0.878511
      37A     -0.867477    38A     -0.864110    39A     -0.821500
      40A     -0.808233    41A     -0.758599    42A     -0.744833
      43A     -0.736036    44A     -0.725607    45A     -0.709157
      46A     -0.693808    47A     -0.681430    48A     -0.672973
      49A     -0.662735    50A     -0.660562    51A     -0.649546
      52A     -0.634728    53A     -0.626504    54A     -0.617014
      55A     -0.603587    56A     -0.600667    57A     -0.582719
      58A     -0.574958    59A     -0.570213    60A     -0.558630
      61A     -0.557295    62A     -0.548656    63A     -0.540890
      64A     -0.538351    65A     -0.525173    66A     -0.521033
      67A     -0.512590    68A     -0.504275    69A     -0.496536
      70A     -0.485264    71A     -0.479462    72A     -0.476623
      73A     -0.464700    74A     -0.456117    75A     -0.454582
      76A     -0.438598

  @DF-RHF Final Energy: -1327.85187326116261

   => Energetics <=

    Nuclear Repulsion Energy =           1771.9775462857153343
    One-Electron Energy =               -5355.9505633317339743
    Two-Electron Energy =                2256.1211437848560308
    Total Energy =                      -1327.8518732611628366
  Basis Set: (AUG-CC-PVTZ AUX)
    Blend: AUG-CC-PVTZ-RI
    Molecular point group: c1

    Geometry (in Angstrom), charge = 0, multiplicity = 1:

       Center              X                  Y                   Z               Mass
    ------------   -----------------  -----------------  -----------------  -----------------
         P           -2.295760692381    -0.940311437428     0.342330622256    30.973761998420
         O           -0.987817692381    -0.201830437428     0.935941622256    15.994914619570
         O            1.336585307619    -1.675751437428     1.228503622256    15.994914619570
         O            0.128391407619     2.398850762572     0.490070822256    15.994914619570
         O            3.062850307619    -2.187340437428    -0.810937377744    15.994914619570
         O            2.841670307619     2.502844562572     0.369187622256    15.994914619570
         O            4.190023307619     0.435128562572    -0.975221377744    15.994914619570
         O           -2.832527692381     0.033082562572    -0.809878377744    15.994914619570
         O           -3.264785692381    -0.723550437428     1.619323622256    15.994914619570
         O           -2.124657692381    -2.343912437428    -0.102015377744    15.994914619570
         C            0.174701507619    -0.016485337428     0.029999622256    12.000000000000
         C            0.947627307619    -1.244473437428    -0.078072377744    12.000000000000
         C            0.892924307619     1.202375562572     0.562503622256    12.000000000000
         C            2.253995307619    -1.014575437428    -0.820384377744    12.000000000000
         C            2.171410307619     1.396203562572    -0.230388377744    12.000000000000
         C            3.020177307619     0.148436562572    -0.212669377744    12.000000000000
         C           -3.129877692381     1.431329562572    -0.491233377744    12.000000000000
         C           -3.541981692381     2.084896562572    -1.786466377744    12.000000000000
         H           -0.288756692381     0.298532562572    -0.972585377744     1.007825032230
         H            0.364604307619    -2.029632437428    -0.574379377744     1.007825032230
         H            1.151455307619     0.997608562572     1.609808622256     1.007825032230
         H            2.055269307619    -0.788928437428    -1.875103377744     1.007825032230
         H            1.911322307619     1.636018562572    -1.275930377744     1.007825032230
         H            3.290190307619    -0.094800437428     0.825298622256     1.007825032230
         H            0.516110307619    -1.888300437428     1.709162622256     1.007825032230
         H            0.659875307619     3.109042562572     0.680836622256     1.007825032230
         H            2.967878307619    -2.547642437428     0.092306622256     1.007825032230
         H            3.715764307619     2.548917562572    -0.061216377744     1.007825032230
         H            4.634062307619    -0.424102437428    -1.099434377744     1.007825032230
         H           -3.814059692381    -1.522606437428     1.732380622256     1.007825032230
         H           -3.936210692381     1.445272562572     0.247038622256     1.007825032230
         H           -2.235426692381     1.892611562572    -0.061443377744     1.007825032230
         H           -3.806185692381     3.130613562572    -1.605018377744     1.007825032230
         H           -2.722860692381     2.053054562572    -2.507222377744     1.007825032230
         H           -4.406608692381     1.574054562572    -2.215071377744     1.007825032230

  Basis Set: AUG-CC-PVTZ
    Blend: AUG-CC-PVTZ
  Basis Set: (AUG-CC-PVTZ AUX)
    Blend: AUG-CC-PVTZ-JKFIT
	 Reference Energy          =   -1327.8518732611626092 [Eh]
	 Singles Energy            =      -0.0000000000000000 [Eh]
	 Same-Spin Energy          =      -1.0142404805745120 [Eh]
	 Opposite-Spin Energy      =      -3.0746301049995175 [Eh]
	 Correlation Energy        =      -4.0888705855740293 [Eh]
	 Total Energy              =   -1331.9407438467367228 [Eh]

	 ================> DF-SCS-MP2 Energies <==================
	-----------------------------------------------------------
	 SCS Same-Spin Scale       =       0.3333333333333333 [-]
	 SCS Opposite-Spin Scale   =       1.2000000000000000 [-]
	 SCS Same-Spin Energy      =      -0.3380801601915040 [Eh]
	 SCS Opposite-Spin Energy  =      -3.6895561259994207 [Eh]
	 SCS Correlation Energy    =      -4.0276362861909245 [Eh]
	 SCS Total Energy          =   -1331.8795095473535639 [Eh]
	-----------------------------------------------------------

  Dipole Moment: [D]
     X:    -1.0026      Y:     1.7234      Z:     0.6430     Total:     2.0949

*** Psi4 exiting successfully. Buy a developer a beer!
