                               Psi4 1.3.2 release

  ==> Input File <==

--------------------------------------------------------------------------
#psi4
#
memory 32 gb

molecule  {
0 1
  P       -2.2900960    -0.9400430     0.3446780
  O       -0.9821530    -0.2015620     0.9382890
  O        1.3422500    -1.6754830     1.2308510
  O        0.0787050     2.3596040     0.4621680
  O        3.0685150    -2.1870720    -0.8085900
  O        2.8473350     2.5031130     0.3715350
  O        4.1956880     0.4353970    -0.9728740
  O       -2.8268630     0.0333510    -0.8075310
  O       -3.2591210    -0.7232820     1.6216710
  O       -2.1189930    -2.3436440    -0.0996680
  C        0.1371003     0.0431101     0.0029287
  C        0.9532920    -1.2442050    -0.0757250
  C        0.8985890     1.2026440     0.5648510
  C        2.2529919    -0.9888527    -0.8214146
  C        2.1770750     1.3964720    -0.2280410
  C        3.0258420     0.1487050    -0.2103220
  C       -3.1242130     1.4315980    -0.4888860
  C       -3.5363170     2.0851650    -1.7841190
  H       -0.2830920     0.2988010    -0.9702380
  H        0.3702690    -2.0293640    -0.5720320
  H        1.1571200     0.9978770     1.6121560
  H        2.0609340    -0.7886600    -1.8727560
  H        1.9169870     1.6362870    -1.2735830
  H        3.2958550    -0.0945320     0.8276460
  H        0.5217750    -1.8880320     1.7115100
  H        0.6655400     3.1093110     0.6831840
  H        2.9735430    -2.5473740     0.0946540
  H        3.7214290     2.5491860    -0.0588690
  H        4.6397270    -0.4238340    -1.0970870
  H       -3.8083950    -1.5223380     1.7347280
  H       -3.9305460     1.4455410     0.2493860
  H       -2.2297620     1.8928800    -0.0590960
  H       -3.8005210     3.1308820    -1.6026710
  H       -2.7171960     2.0533230    -2.5048750
  H       -4.4009440     1.5743230    -2.2127240
units angstrom
no_reorient  #important for SAPT in psi4, default
symmetry c1  #important for SAPT in psi4, default
}

set PROPERTIES_ORIGIN ["COM"]
properties('MP2/aug-cc-pvtz', properties = ['dipole'])
--------------------------------------------------------------------------

    Molecular point group: c1
  Charge       = 0
  Multiplicity = 1
  Basis Set: AUG-CC-PVTZ
    Blend: AUG-CC-PVTZ
  Basis Set: (AUG-CC-PVTZ AUX)
    Blend: AUG-CC-PVTZ-JKFIT

    Orbital Energies [Eh]
    ---------------------

    Doubly Occupied:

       1A    -80.115260     2A    -20.613552     3A    -20.603645
       4A    -20.598076     5A    -20.584133     6A    -20.577753
       7A    -20.575252     8A    -20.574680     9A    -20.571930
      10A    -20.522289    11A    -11.321700    12A    -11.305702
      13A    -11.299711    14A    -11.299656    15A    -11.298962
      16A    -11.298019    17A    -11.292818    18A    -11.229686
      19A     -7.630689    20A     -5.529192    21A     -5.528826
      22A     -5.527637    23A     -1.456713    24A     -1.409332
      25A     -1.394457    26A     -1.389740    27A     -1.385773
      28A     -1.371389    29A     -1.362150    30A     -1.350792
      31A     -1.302552    32A     -1.124432    33A     -1.040120
      34A     -1.015309    35A     -1.005991    36A     -0.879454
      37A     -0.864790    38A     -0.859686    39A     -0.821479
      40A     -0.812453    41A     -0.751507    42A     -0.745052
      43A     -0.731739    44A     -0.725937    45A     -0.708170
      46A     -0.687650    47A     -0.676151    48A     -0.673471
      49A     -0.662824    50A     -0.659475    51A     -0.642650
      52A     -0.634980    53A     -0.625127    54A     -0.615243
      55A     -0.602259    56A     -0.597371    57A     -0.582691
      58A     -0.574262    59A     -0.570086    60A     -0.559786
      61A     -0.557306    62A     -0.548560    63A     -0.540741
      64A     -0.535744    65A     -0.530396    66A     -0.522595
      67A     -0.512852    68A     -0.505285    69A     -0.497503
      70A     -0.485398    71A     -0.479261    72A     -0.475897
      73A     -0.462944    74A     -0.456881    75A     -0.451638
      76A     -0.441278

  @DF-RHF Final Energy: -1327.85898451203661

   => Energetics <=

    Nuclear Repulsion Energy =           1772.4311101983464596
    One-Electron Energy =               -5357.0272159391033711
    Two-Electron Energy =                2256.7371212287202979
    Total Energy =                      -1327.8589845120363861
  Basis Set: (AUG-CC-PVTZ AUX)
    Blend: AUG-CC-PVTZ-RI
    Molecular point group: c1

    Geometry (in Angstrom), charge = 0, multiplicity = 1:

       Center              X                  Y                   Z               Mass
    ------------   -----------------  -----------------  -----------------  -----------------
         P           -2.290607117201    -0.941649117031     0.345376505274    30.973761998420
         O           -0.982664117201    -0.203168117031     0.938987505274    15.994914619570
         O            1.341738882799    -1.677089117031     1.231549505274    15.994914619570
         O            0.078193882799     2.357997882969     0.462866505274    15.994914619570
         O            3.068003882799    -2.188678117031    -0.807891494726    15.994914619570
         O            2.846823882799     2.501506882969     0.372233505274    15.994914619570
         O            4.195176882799     0.433790882969    -0.972175494726    15.994914619570
         O           -2.827374117201     0.031744882969    -0.806832494726    15.994914619570
         O           -3.259632117201    -0.724888117031     1.622369505274    15.994914619570
         O           -2.119504117201    -2.345250117031    -0.098969494726    15.994914619570
         C            0.136589182799     0.041503982969     0.003627205274    12.000000000000
         C            0.952780882799    -1.245811117031    -0.075026494726    12.000000000000
         C            0.898077882799     1.201037882969     0.565549505274    12.000000000000
         C            2.252480782799    -0.990458817031    -0.820716094726    12.000000000000
         C            2.176563882799     1.394865882969    -0.227342494726    12.000000000000
         C            3.025330882799     0.147098882969    -0.209623494726    12.000000000000
         C           -3.124724117201     1.429991882969    -0.488187494726    12.000000000000
         C           -3.536828117201     2.083558882969    -1.783420494726    12.000000000000
         H           -0.283603117201     0.297194882969    -0.969539494726     1.007825032230
         H            0.369757882799    -2.030970117031    -0.571333494726     1.007825032230
         H            1.156608882799     0.996270882969     1.612854505274     1.007825032230
         H            2.060422882799    -0.790266117031    -1.872057494726     1.007825032230
         H            1.916475882799     1.634680882969    -1.272884494726     1.007825032230
         H            3.295343882799    -0.096138117031     0.828344505274     1.007825032230
         H            0.521263882799    -1.889638117031     1.712208505274     1.007825032230
         H            0.665028882799     3.107704882969     0.683882505274     1.007825032230
         H            2.973031882799    -2.548980117031     0.095352505274     1.007825032230
         H            3.720917882799     2.547579882969    -0.058170494726     1.007825032230
         H            4.639215882799    -0.425440117031    -1.096388494726     1.007825032230
         H           -3.808906117201    -1.523944117031     1.735426505274     1.007825032230
         H           -3.931057117201     1.443934882969     0.250084505274     1.007825032230
         H           -2.230273117201     1.891273882969    -0.058397494726     1.007825032230
         H           -3.801032117201     3.129275882969    -1.601972494726     1.007825032230
         H           -2.717707117201     2.051716882969    -2.504176494726     1.007825032230
         H           -4.401455117201     1.572716882969    -2.212025494726     1.007825032230

  Basis Set: AUG-CC-PVTZ
    Blend: AUG-CC-PVTZ
  Basis Set: (AUG-CC-PVTZ AUX)
    Blend: AUG-CC-PVTZ-JKFIT
	 Reference Energy          =   -1327.8589845120366135 [Eh]
	 Singles Energy            =      -0.0000000000000000 [Eh]
	 Same-Spin Energy          =      -1.0148778409719670 [Eh]
	 Opposite-Spin Energy      =      -3.0768824976284743 [Eh]
	 Correlation Energy        =      -4.0917603386004409 [Eh]
	 Total Energy              =   -1331.9507448506369656 [Eh]

	 ================> DF-SCS-MP2 Energies <==================
	-----------------------------------------------------------
	 SCS Same-Spin Scale       =       0.3333333333333333 [-]
	 SCS Opposite-Spin Scale   =       1.2000000000000000 [-]
	 SCS Same-Spin Energy      =      -0.3382926136573223 [Eh]
	 SCS Opposite-Spin Energy  =      -3.6922589971541688 [Eh]
	 SCS Correlation Energy    =      -4.0305516108114912 [Eh]
	 SCS Total Energy          =   -1331.8895361228480851 [Eh]
	-----------------------------------------------------------

  Dipole Moment: [D]
     X:    -1.0313      Y:     1.9764      Z:     0.6964     Total:     2.3355

*** Psi4 exiting successfully. Buy a developer a beer!
