                               Psi4 1.3.2 release

  ==> Input File <==

--------------------------------------------------------------------------
#psi4
#
memory 32 gb

molecule  {
0 1
  P       -2.2900960    -0.9400430     0.3446780
  O       -0.9550373    -0.2131104     0.8902332
  O        1.3422500    -1.6754830     1.2308510
  O        0.0787050     2.3596040     0.4621680
  O        3.0685150    -2.1870720    -0.8085900
  O        2.8473350     2.5031130     0.3715350
  O        4.1956880     0.4353970    -0.9728740
  O       -2.8268630     0.0333510    -0.8075310
  O       -3.3001010    -0.7504820     1.5939428
  O       -2.1189930    -2.3436440    -0.0996680
  C        0.1181620     0.0300090     0.0163190
  C        0.9532920    -1.2442050    -0.0757250
  C        0.8985890     1.2026440     0.5648510
  C        2.2596600    -1.0143070    -0.8180370
  C        2.1770750     1.3964720    -0.2280410
  C        3.0258420     0.1487050    -0.2103220
  C       -3.1242130     1.4315980    -0.4888860
  C       -3.5363170     2.0851650    -1.7841190
  H       -0.2830920     0.2988010    -0.9702380
  H        0.3702690    -2.0293640    -0.5720320
  H        1.1571200     0.9978770     1.6121560
  H        2.0609340    -0.7886600    -1.8727560
  H        1.9169870     1.6362870    -1.2735830
  H        3.2958550    -0.0945320     0.8276460
  H        0.5217750    -1.8880320     1.7115100
  H        0.6655400     3.1093110     0.6831840
  H        2.9735430    -2.5473740     0.0946540
  H        3.7214290     2.5491860    -0.0588690
  H        4.6397270    -0.4238340    -1.0970870
  H       -3.8083950    -1.5223380     1.7347280
  H       -3.9305460     1.4455410     0.2493860
  H       -2.2297620     1.8928800    -0.0590960
  H       -3.8005210     3.1308820    -1.6026710
  H       -2.7171960     2.0533230    -2.5048750
  H       -4.4009440     1.5743230    -2.2127240
units angstrom
no_reorient  #important for SAPT in psi4, default
symmetry c1  #important for SAPT in psi4, default
}

set PROPERTIES_ORIGIN ["COM"]
properties('MP2/aug-cc-pvtz', properties = ['dipole'])
--------------------------------------------------------------------------

    Molecular point group: c1
  Charge       = 0
  Multiplicity = 1
  Basis Set: AUG-CC-PVTZ
    Blend: AUG-CC-PVTZ
  Basis Set: (AUG-CC-PVTZ AUX)
    Blend: AUG-CC-PVTZ-JKFIT

    Orbital Energies [Eh]
    ---------------------

    Doubly Occupied:

       1A    -80.121158     2A    -20.614866     3A    -20.608718
       4A    -20.598983     5A    -20.582745     6A    -20.576156
       7A    -20.573399     8A    -20.573338     9A    -20.573320
      10A    -20.521677    11A    -11.317133    12A    -11.301028
      13A    -11.300082    14A    -11.297678    15A    -11.297441
      16A    -11.295784    17A    -11.290527    18A    -11.230155
      19A     -7.636195    20A     -5.534598    21A     -5.534450
      22A     -5.533171    23A     -1.468587    24A     -1.418091
      25A     -1.400876    26A     -1.393079    27A     -1.390183
      28A     -1.374310    29A     -1.363347    30A     -1.353301
      31A     -1.303548    32A     -1.117631    33A     -1.041154
      34A     -1.012248    35A     -1.002524    36A     -0.886357
      37A     -0.865553    38A     -0.859604    39A     -0.828971
      40A     -0.810421    41A     -0.756530    42A     -0.749120
      43A     -0.737726    44A     -0.730779    45A     -0.712161
      46A     -0.687590    47A     -0.677520    48A     -0.674027
      49A     -0.663817    50A     -0.661068    51A     -0.646082
      52A     -0.637381    53A     -0.628697    54A     -0.615313
      55A     -0.606123    56A     -0.597573    57A     -0.581196
      58A     -0.579693    59A     -0.572413    60A     -0.559061
      61A     -0.555392    62A     -0.548800    63A     -0.541951
      64A     -0.535535    65A     -0.530490    66A     -0.521252
      67A     -0.513165    68A     -0.503416    69A     -0.497093
      70A     -0.482121    71A     -0.479718    72A     -0.475791
      73A     -0.460707    74A     -0.455169    75A     -0.447837
      76A     -0.435208

  @DF-RHF Final Energy: -1327.86303526559732

   => Energetics <=

    Nuclear Repulsion Energy =           1773.6059562203988662
    One-Electron Energy =               -5359.2181858095045754
    Two-Electron Energy =                2257.7491943235081635
    Total Energy =                      -1327.8630352655973184
  Basis Set: (AUG-CC-PVTZ AUX)
    Blend: AUG-CC-PVTZ-RI
    Molecular point group: c1

    Geometry (in Angstrom), charge = 0, multiplicity = 1:

       Center              X                  Y                   Z               Mass
    ------------   -----------------  -----------------  -----------------  -----------------
         P           -2.289326136192    -0.937891433492     0.348885983275    30.973761998420
         O           -0.954267436192    -0.210958833492     0.894441183275    15.994914619570
         O            1.343019863808    -1.673331433492     1.235058983275    15.994914619570
         O            0.079474863808     2.361755566508     0.466375983275    15.994914619570
         O            3.069284863808    -2.184920433492    -0.804382016725    15.994914619570
         O            2.848104863808     2.505264566508     0.375742983275    15.994914619570
         O            4.196457863808     0.437548566508    -0.968666016725    15.994914619570
         O           -2.826093136192     0.035502566508    -0.803323016725    15.994914619570
         O           -3.299331136192    -0.748330433492     1.598150783275    15.994914619570
         O           -2.118223136192    -2.341492433492    -0.095460016725    15.994914619570
         C            0.118931863808     0.032160566508     0.020526983275    12.000000000000
         C            0.954061863808    -1.242053433492    -0.071517016725    12.000000000000
         C            0.899358863808     1.204795566508     0.569058983275    12.000000000000
         C            2.260429863808    -1.012155433492    -0.813829016725    12.000000000000
         C            2.177844863808     1.398623566508    -0.223833016725    12.000000000000
         C            3.026611863808     0.150856566508    -0.206114016725    12.000000000000
         C           -3.123443136192     1.433749566508    -0.484678016725    12.000000000000
         C           -3.535547136192     2.087316566508    -1.779911016725    12.000000000000
         H           -0.282322136192     0.300952566508    -0.966030016725     1.007825032230
         H            0.371038863808    -2.027212433492    -0.567824016725     1.007825032230
         H            1.157889863808     1.000028566508     1.616363983275     1.007825032230
         H            2.061703863808    -0.786508433492    -1.868548016725     1.007825032230
         H            1.917756863808     1.638438566508    -1.269375016725     1.007825032230
         H            3.296624863808    -0.092380433492     0.831853983275     1.007825032230
         H            0.522544863808    -1.885880433492     1.715717983275     1.007825032230
         H            0.666309863808     3.111462566508     0.687391983275     1.007825032230
         H            2.974312863808    -2.545222433492     0.098861983275     1.007825032230
         H            3.722198863808     2.551337566508    -0.054661016725     1.007825032230
         H            4.640496863808    -0.421682433492    -1.092879016725     1.007825032230
         H           -3.807625136192    -1.520186433492     1.738935983275     1.007825032230
         H           -3.929776136192     1.447692566508     0.253593983275     1.007825032230
         H           -2.228992136192     1.895031566508    -0.054888016725     1.007825032230
         H           -3.799751136192     3.133033566508    -1.598463016725     1.007825032230
         H           -2.716426136192     2.055474566508    -2.500667016725     1.007825032230
         H           -4.400174136192     1.576474566508    -2.208516016725     1.007825032230

  Basis Set: AUG-CC-PVTZ
    Blend: AUG-CC-PVTZ
  Basis Set: (AUG-CC-PVTZ AUX)
    Blend: AUG-CC-PVTZ-JKFIT
	 Reference Energy          =   -1327.8630352655973184 [Eh]
	 Singles Energy            =      -0.0000000000000000 [Eh]
	 Same-Spin Energy          =      -1.0136457286798957 [Eh]
	 Opposite-Spin Energy      =      -3.0732771578367295 [Eh]
	 Correlation Energy        =      -4.0869228865166249 [Eh]
	 Total Energy              =   -1331.9499581521140499 [Eh]

	 ================> DF-SCS-MP2 Energies <==================
	-----------------------------------------------------------
	 SCS Same-Spin Scale       =       0.3333333333333333 [-]
	 SCS Opposite-Spin Scale   =       1.2000000000000000 [-]
	 SCS Same-Spin Energy      =      -0.3378819095599652 [Eh]
	 SCS Opposite-Spin Energy  =      -3.6879325894040753 [Eh]
	 SCS Correlation Energy    =      -4.0258144989640403 [Eh]
	 SCS Total Energy          =   -1331.8888497645614279 [Eh]
	-----------------------------------------------------------

  Dipole Moment: [D]
     X:    -1.2127      Y:     1.9185      Z:     0.8873     Total:     2.4369

*** Psi4 exiting successfully. Buy a developer a beer!
