                               Psi4 1.3.2 release

  ==> Input File <==

--------------------------------------------------------------------------
#psi4
#
memory 32 gb

molecule  {
0 1
  P       -2.2900960    -0.9400430     0.3446780
  O       -0.9821530    -0.2015620     0.9382890
  O        1.3422500    -1.6754830     1.2308510
  O        0.0787050     2.3596040     0.4621680
  O        3.0685150    -2.1870720    -0.8085900
  O        2.8473350     2.5031130     0.3715350
  O        4.1956880     0.4353970    -0.9728740
  O       -2.8268630     0.0333510    -0.8075310
  O       -3.2591210    -0.7232820     1.6216710
  O       -2.1189930    -2.3436440    -0.0996680
  C        0.1201957     0.0180041     0.0397238
  C        0.9532920    -1.2442050    -0.0757250
  C        0.8985890     1.2026440     0.5648510
  C        2.2596600    -1.0143070    -0.8180370
  C        2.1770750     1.3964720    -0.2280410
  C        3.0258420     0.1487050    -0.2103220
  C       -3.1242130     1.4315980    -0.4888860
  C       -3.5363170     2.0851650    -1.7841190
  H       -0.2830920     0.2988010    -0.9702380
  H        0.3702690    -2.0293640    -0.5720320
  H        1.1481668     0.9809811     1.6108873
  H        2.0609340    -0.7886600    -1.8727560
  H        1.9169870     1.6362870    -1.2735830
  H        3.2958550    -0.0945320     0.8276460
  H        0.5217750    -1.8880320     1.7115100
  H        0.6655400     3.1093110     0.6831840
  H        2.9735430    -2.5473740     0.0946540
  H        3.7214290     2.5491860    -0.0588690
  H        4.6397270    -0.4238340    -1.0970870
  H       -3.8083950    -1.5223380     1.7347280
  H       -3.9305460     1.4455410     0.2493860
  H       -2.2297620     1.8928800    -0.0590960
  H       -3.8005210     3.1308820    -1.6026710
  H       -2.7171960     2.0533230    -2.5048750
  H       -4.4009440     1.5743230    -2.2127240
units angstrom
no_reorient  #important for SAPT in psi4, default
symmetry c1  #important for SAPT in psi4, default
}

set PROPERTIES_ORIGIN ["COM"]
properties('MP2/aug-cc-pvtz', properties = ['dipole'])
--------------------------------------------------------------------------

    Molecular point group: c1
  Charge       = 0
  Multiplicity = 1
  Basis Set: AUG-CC-PVTZ
    Blend: AUG-CC-PVTZ
  Basis Set: (AUG-CC-PVTZ AUX)
    Blend: AUG-CC-PVTZ-JKFIT

    Orbital Energies [Eh]
    ---------------------

    Doubly Occupied:

       1A    -80.118090     2A    -20.615477     3A    -20.608484
       4A    -20.599270     5A    -20.582600     6A    -20.576583
       7A    -20.574851     8A    -20.574005     9A    -20.573768
      10A    -20.524102    11A    -11.320879    12A    -11.302839
      13A    -11.299556    14A    -11.299491    15A    -11.298226
      16A    -11.296718    17A    -11.291333    18A    -11.229849
      19A     -7.633499    20A     -5.532001    21A     -5.531639
      22A     -5.530430    23A     -1.462474    24A     -1.411788
      25A     -1.396078    26A     -1.393272    27A     -1.387327
      28A     -1.373545    29A     -1.363982    30A     -1.353892
      31A     -1.304571    32A     -1.118892    33A     -1.040561
      34A     -1.012191    35A     -1.003525    36A     -0.881515
      37A     -0.864955    38A     -0.859883    39A     -0.822756
      40A     -0.808524    41A     -0.752340    42A     -0.744972
      43A     -0.731830    44A     -0.729972    45A     -0.708205
      46A     -0.687360    47A     -0.678729    48A     -0.673539
      49A     -0.662503    50A     -0.661058    51A     -0.644334
      52A     -0.635350    53A     -0.628055    54A     -0.615515
      55A     -0.605045    56A     -0.598281    57A     -0.581542
      58A     -0.576387    59A     -0.571469    60A     -0.559313
      61A     -0.556472    62A     -0.548301    63A     -0.541317
      64A     -0.536450    65A     -0.528435    66A     -0.521335
      67A     -0.513190    68A     -0.503660    69A     -0.496971
      70A     -0.482660    71A     -0.480186    72A     -0.477027
      73A     -0.463214    74A     -0.455643    75A     -0.450224
      76A     -0.436231

  @DF-RHF Final Energy: -1327.86075439331762

   => Energetics <=

    Nuclear Repulsion Energy =           1772.7255138179386904
    One-Electron Energy =               -5357.5514594793194192
    Two-Electron Energy =                2256.9651912680628811
    Total Energy =                      -1327.8607543933176203
  Basis Set: (AUG-CC-PVTZ AUX)
    Blend: AUG-CC-PVTZ-RI
    Molecular point group: c1

    Geometry (in Angstrom), charge = 0, multiplicity = 1:

       Center              X                  Y                   Z               Mass
    ------------   -----------------  -----------------  -----------------  -----------------
         P           -2.290149362592    -0.939483771255     0.343707436082    30.973761998420
         O           -0.982206362592    -0.201002771255     0.937318436082    15.994914619570
         O            1.342196637408    -1.674923771255     1.229880436082    15.994914619570
         O            0.078651637408     2.360163228745     0.461197436082    15.994914619570
         O            3.068461637408    -2.186512771255    -0.809560563918    15.994914619570
         O            2.847281637408     2.503672228745     0.370564436082    15.994914619570
         O            4.195634637408     0.435956228745    -0.973844563918    15.994914619570
         O           -2.826916362592     0.033910228745    -0.808501563918    15.994914619570
         O           -3.259174362592    -0.722722771255     1.620700436082    15.994914619570
         O           -2.119046362592    -2.343084771255    -0.100638563918    15.994914619570
         C            0.120142337408     0.018563328745     0.038753236082    12.000000000000
         C            0.953238637408    -1.243645771255    -0.076695563918    12.000000000000
         C            0.898535637408     1.203203228745     0.563880436082    12.000000000000
         C            2.259606637408    -1.013747771255    -0.819007563918    12.000000000000
         C            2.177021637408     1.397031228745    -0.229011563918    12.000000000000
         C            3.025788637408     0.149264228745    -0.211292563918    12.000000000000
         C           -3.124266362592     1.432157228745    -0.489856563918    12.000000000000
         C           -3.536370362592     2.085724228745    -1.785089563918    12.000000000000
         H           -0.283145362592     0.299360228745    -0.971208563918     1.007825032230
         H            0.370215637408    -2.028804771255    -0.573002563918     1.007825032230
         H            1.148113437408     0.981540328745     1.609916736082     1.007825032230
         H            2.060880637408    -0.788100771255    -1.873726563918     1.007825032230
         H            1.916933637408     1.636846228745    -1.274553563918     1.007825032230
         H            3.295801637408    -0.093972771255     0.826675436082     1.007825032230
         H            0.521721637408    -1.887472771255     1.710539436082     1.007825032230
         H            0.665486637408     3.109870228745     0.682213436082     1.007825032230
         H            2.973489637408    -2.546814771255     0.093683436082     1.007825032230
         H            3.721375637408     2.549745228745    -0.059839563918     1.007825032230
         H            4.639673637408    -0.423274771255    -1.098057563918     1.007825032230
         H           -3.808448362592    -1.521778771255     1.733757436082     1.007825032230
         H           -3.930599362592     1.446100228745     0.248415436082     1.007825032230
         H           -2.229815362592     1.893439228745    -0.060066563918     1.007825032230
         H           -3.800574362592     3.131441228745    -1.603641563918     1.007825032230
         H           -2.717249362592     2.053882228745    -2.505845563918     1.007825032230
         H           -4.400997362592     1.574882228745    -2.213694563918     1.007825032230

  Basis Set: AUG-CC-PVTZ
    Blend: AUG-CC-PVTZ
  Basis Set: (AUG-CC-PVTZ AUX)
    Blend: AUG-CC-PVTZ-JKFIT
	 Reference Energy          =   -1327.8607543933176203 [Eh]
	 Singles Energy            =      -0.0000000000000000 [Eh]
	 Same-Spin Energy          =      -1.0146808066857940 [Eh]
	 Opposite-Spin Energy      =      -3.0760406915337950 [Eh]
	 Correlation Energy        =      -4.0907214982195885 [Eh]
	 Total Energy              =   -1331.9514758915372568 [Eh]

	 ================> DF-SCS-MP2 Energies <==================
	-----------------------------------------------------------
	 SCS Same-Spin Scale       =       0.3333333333333333 [-]
	 SCS Opposite-Spin Scale   =       1.2000000000000000 [-]
	 SCS Same-Spin Energy      =      -0.3382269355619313 [Eh]
	 SCS Opposite-Spin Energy  =      -3.6912488298405539 [Eh]
	 SCS Correlation Energy    =      -4.0294757654024851 [Eh]
	 SCS Total Energy          =   -1331.8902301587202146 [Eh]
	-----------------------------------------------------------

  Dipole Moment: [D]
     X:    -1.1560      Y:     1.8349      Z:     0.7442     Total:     2.2928

*** Psi4 exiting successfully. Buy a developer a beer!
