                               Psi4 1.3.2 release

  ==> Input File <==

--------------------------------------------------------------------------
#psi4
#
memory 32 gb

molecule  {
0 1
  P       -2.2900960    -0.9400430     0.3446780
  O       -0.9821530    -0.2015620     0.9382890
  O        1.3422500    -1.6754830     1.2308510
  O        0.0877781     2.3664131     0.4671924
  O        3.0685150    -2.1870720    -0.8085900
  O        2.8473350     2.5031130     0.3715350
  O        4.1956880     0.4353970    -0.9728740
  O       -2.8268630     0.0333510    -0.8075310
  O       -3.2591210    -0.7232820     1.6216710
  O       -2.1189930    -2.3436440    -0.0996680
  C        0.1283854     0.0220779     0.0188871
  C        0.9532920    -1.2442050    -0.0757250
  C        0.8985890     1.2026440     0.5648510
  C        2.2596600    -1.0143070    -0.8180370
  C        2.1770750     1.3964720    -0.2280410
  C        3.0258420     0.1487050    -0.2103220
  C       -3.1242130     1.4315980    -0.4888860
  C       -3.5363170     2.0851650    -1.7841190
  H       -0.2830920     0.2988010    -0.9702380
  H        0.3702690    -2.0293640    -0.5720320
  H        1.1571200     0.9978770     1.6121560
  H        2.0609340    -0.7886600    -1.8727560
  H        1.9169870     1.6362870    -1.2735830
  H        3.2958550    -0.0945320     0.8276460
  H        0.5217750    -1.8880320     1.7115100
  H        0.6655400     3.1093110     0.6831840
  H        2.9735430    -2.5473740     0.0946540
  H        3.7214290     2.5491860    -0.0588690
  H        4.6397270    -0.4238340    -1.0970870
  H       -3.8083950    -1.5223380     1.7347280
  H       -3.9305460     1.4455410     0.2493860
  H       -2.2297620     1.8928800    -0.0590960
  H       -3.8005210     3.1308820    -1.6026710
  H       -2.7171960     2.0533230    -2.5048750
  H       -4.4009440     1.5743230    -2.2127240
units angstrom
no_reorient  #important for SAPT in psi4, default
symmetry c1  #important for SAPT in psi4, default
}

set PROPERTIES_ORIGIN ["COM"]
properties('MP2/aug-cc-pvtz', properties = ['dipole'])
--------------------------------------------------------------------------

    Molecular point group: c1
  Charge       = 0
  Multiplicity = 1
  Basis Set: AUG-CC-PVTZ
    Blend: AUG-CC-PVTZ
  Basis Set: (AUG-CC-PVTZ AUX)
    Blend: AUG-CC-PVTZ-JKFIT

    Orbital Energies [Eh]
    ---------------------

    Doubly Occupied:

       1A    -80.116741     2A    -20.614594     3A    -20.606522
       4A    -20.598808     5A    -20.583428     6A    -20.576632
       7A    -20.574990     8A    -20.574258     9A    -20.572378
      10A    -20.523320    11A    -11.321783    12A    -11.303807
      13A    -11.299853    14A    -11.299391    15A    -11.299074
      16A    -11.296662    17A    -11.291620    18A    -11.229842
      19A     -7.632182    20A     -5.530686    21A     -5.530314
      22A     -5.529121    23A     -1.459653    24A     -1.411154
      25A     -1.394776    26A     -1.393262    27A     -1.386745
      28A     -1.373066    29A     -1.364659    30A     -1.354155
      31A     -1.303699    32A     -1.120730    33A     -1.040422
      34A     -1.012837    35A     -1.004637    36A     -0.880000
      37A     -0.864801    38A     -0.860377    39A     -0.822065
      40A     -0.810295    41A     -0.752782    42A     -0.745002
      43A     -0.732290    44A     -0.728076    45A     -0.708190
      46A     -0.688269    47A     -0.678681    48A     -0.673624
      49A     -0.662246    50A     -0.661021    51A     -0.643965
      52A     -0.635150    53A     -0.627190    54A     -0.615692
      55A     -0.603593    56A     -0.598911    57A     -0.581921
      58A     -0.575462    59A     -0.570966    60A     -0.559129
      61A     -0.556862    62A     -0.548597    63A     -0.541155
      64A     -0.536893    65A     -0.529192    66A     -0.521515
      67A     -0.513109    68A     -0.504323    69A     -0.496913
      70A     -0.484821    71A     -0.479981    72A     -0.476686
      73A     -0.462824    74A     -0.455934    75A     -0.451304
      76A     -0.436745

  @DF-RHF Final Energy: -1327.86181868208155

   => Energetics <=

    Nuclear Repulsion Energy =           1772.3542308688583944
    One-Electron Energy =               -5356.8273903133658678
    Two-Electron Energy =                2256.6113407624261527
    Total Energy =                      -1327.8618186820813207
  Basis Set: (AUG-CC-PVTZ AUX)
    Blend: AUG-CC-PVTZ-RI
    Molecular point group: c1

    Geometry (in Angstrom), charge = 0, multiplicity = 1:

       Center              X                  Y                   Z               Mass
    ------------   -----------------  -----------------  -----------------  -----------------
         P           -2.291025646095    -0.940090672823     0.344292023764    30.973761998420
         O           -0.983082646095    -0.201609672823     0.937903023764    15.994914619570
         O            1.341320353905    -1.675530672823     1.230465023764    15.994914619570
         O            0.086848453905     2.366365427177     0.466806423764    15.994914619570
         O            3.067585353905    -2.187119672823    -0.808975976236    15.994914619570
         O            2.846405353905     2.503065327177     0.371149023764    15.994914619570
         O            4.194758353905     0.435349327177    -0.973259976236    15.994914619570
         O           -2.827792646095     0.033303327177    -0.807916976236    15.994914619570
         O           -3.260050646095    -0.723329672823     1.621285023764    15.994914619570
         O           -2.119922646095    -2.343691672823    -0.100053976236    15.994914619570
         C            0.127455753905     0.022030227177     0.018501123764    12.000000000000
         C            0.952362353905    -1.244252672823    -0.076110976236    12.000000000000
         C            0.897659353905     1.202596327177     0.564465023764    12.000000000000
         C            2.258730353905    -1.014354672823    -0.818422976236    12.000000000000
         C            2.176145353905     1.396424327177    -0.228426976236    12.000000000000
         C            3.024912353905     0.148657327177    -0.210707976236    12.000000000000
         C           -3.125142646095     1.431550327177    -0.489271976236    12.000000000000
         C           -3.537246646095     2.085117327177    -1.784504976236    12.000000000000
         H           -0.284021646095     0.298753327177    -0.970623976236     1.007825032230
         H            0.369339353905    -2.029411672823    -0.572417976236     1.007825032230
         H            1.156190353905     0.997829327177     1.611770023764     1.007825032230
         H            2.060004353905    -0.788707672823    -1.873141976236     1.007825032230
         H            1.916057353905     1.636239327177    -1.273968976236     1.007825032230
         H            3.294925353905    -0.094579672823     0.827260023764     1.007825032230
         H            0.520845353905    -1.888079672823     1.711124023764     1.007825032230
         H            0.664610353905     3.109263327177     0.682798023764     1.007825032230
         H            2.972613353905    -2.547421672823     0.094268023764     1.007825032230
         H            3.720499353905     2.549138327177    -0.059254976236     1.007825032230
         H            4.638797353905    -0.423881672823    -1.097472976236     1.007825032230
         H           -3.809324646095    -1.522385672823     1.734342023764     1.007825032230
         H           -3.931475646095     1.445493327177     0.249000023764     1.007825032230
         H           -2.230691646095     1.892832327177    -0.059481976236     1.007825032230
         H           -3.801450646095     3.130834327177    -1.603056976236     1.007825032230
         H           -2.718125646095     2.053275327177    -2.505260976236     1.007825032230
         H           -4.401873646095     1.574275327177    -2.213109976236     1.007825032230

  Basis Set: AUG-CC-PVTZ
    Blend: AUG-CC-PVTZ
  Basis Set: (AUG-CC-PVTZ AUX)
    Blend: AUG-CC-PVTZ-JKFIT
	 Reference Energy          =   -1327.8618186820815481 [Eh]
	 Singles Energy            =      -0.0000000000000000 [Eh]
	 Same-Spin Energy          =      -1.0144817648315474 [Eh]
	 Opposite-Spin Energy      =      -3.0757251883029513 [Eh]
	 Correlation Energy        =      -4.0902069531344987 [Eh]
	 Total Energy              =   -1331.9520256352161596 [Eh]

	 ================> DF-SCS-MP2 Energies <==================
	-----------------------------------------------------------
	 SCS Same-Spin Scale       =       0.3333333333333333 [-]
	 SCS Opposite-Spin Scale   =       1.2000000000000000 [-]
	 SCS Same-Spin Energy      =      -0.3381605882771824 [Eh]
	 SCS Opposite-Spin Energy  =      -3.6908702259635415 [Eh]
	 SCS Correlation Energy    =      -4.0290308142407243 [Eh]
	 SCS Total Energy          =   -1331.8908494963222893 [Eh]
	-----------------------------------------------------------

  Dipole Moment: [D]
     X:    -1.0962      Y:     1.8400      Z:     0.7087     Total:     2.2560

*** Psi4 exiting successfully. Buy a developer a beer!
