                               Psi4 1.3.2 release

  ==> Input File <==

--------------------------------------------------------------------------
#psi4
#
memory 32 gb

molecule  {
0 1
  P       -2.2900960    -0.9400430     0.3446780
  O       -0.9821530    -0.2015620     0.9382890
  O        1.3422500    -1.6754830     1.2308510
  O        0.0787050     2.3596040     0.4621680
  O        3.0685150    -2.1870720    -0.8085900
  O        2.8473350     2.5031130     0.3715350
  O        4.1956880     0.4353970    -0.9728740
  O       -2.8268630     0.0333510    -0.8075310
  O       -3.2591210    -0.7232820     1.6216710
  O       -2.1189930    -2.3436440    -0.0996680
  C        0.1181620     0.0300090     0.0163190
  C        0.9532920    -1.2442050    -0.0757250
  C        0.8985890     1.2026440     0.5648510
  C        2.2596600    -1.0143070    -0.8180370
  C        2.1770750     1.3964720    -0.2280410
  C        3.0283207     0.1522486    -0.1578220
  C       -3.1242130     1.4315980    -0.4888860
  C       -3.5363170     2.0851650    -1.7841190
  H       -0.2830920     0.2988010    -0.9702380
  H        0.3702690    -2.0293640    -0.5720320
  H        1.1571200     0.9978770     1.6121560
  H        2.0609340    -0.7886600    -1.8727560
  H        1.8973527     1.6669375    -1.2609587
  H        3.2958550    -0.0945320     0.8276460
  H        0.5217750    -1.8880320     1.7115100
  H        0.6655400     3.1093110     0.6831840
  H        2.9735430    -2.5473740     0.0946540
  H        3.7214290     2.5491860    -0.0588690
  H        4.6397270    -0.4238340    -1.0970870
  H       -3.8083950    -1.5223380     1.7347280
  H       -3.9305460     1.4455410     0.2493860
  H       -2.2297620     1.8928800    -0.0590960
  H       -3.8005210     3.1308820    -1.6026710
  H       -2.7171960     2.0533230    -2.5048750
  H       -4.4009440     1.5743230    -2.2127240
units angstrom
no_reorient  #important for SAPT in psi4, default
symmetry c1  #important for SAPT in psi4, default
}

set PROPERTIES_ORIGIN ["COM"]
properties('MP2/aug-cc-pvtz', properties = ['dipole'])
--------------------------------------------------------------------------

    Molecular point group: c1
  Charge       = 0
  Multiplicity = 1
  Basis Set: AUG-CC-PVTZ
    Blend: AUG-CC-PVTZ
  Basis Set: (AUG-CC-PVTZ AUX)
    Blend: AUG-CC-PVTZ-JKFIT

    Orbital Energies [Eh]
    ---------------------

    Doubly Occupied:

       1A    -80.117008     2A    -20.614809     3A    -20.607128
       4A    -20.599024     5A    -20.583646     6A    -20.575363
       7A    -20.574390     8A    -20.573651     9A    -20.571149
      10A    -20.523456    11A    -11.320840    12A    -11.302792
      13A    -11.300653    14A    -11.299485    15A    -11.298328
      16A    -11.297042    17A    -11.290919    18A    -11.229964
      19A     -7.632458    20A     -5.530964    21A     -5.530591
      22A     -5.529388    23A     -1.460373    24A     -1.410120
      25A     -1.393364    26A     -1.392033    27A     -1.386745
      28A     -1.369751    29A     -1.363786    30A     -1.349469
      31A     -1.303857    32A     -1.118340    33A     -1.040541
      34A     -1.011442    35A     -1.002651    36A     -0.881112
      37A     -0.865385    38A     -0.856955    39A     -0.824190
      40A     -0.812480    41A     -0.751497    42A     -0.744120
      43A     -0.730644    44A     -0.728892    45A     -0.708255
      46A     -0.686890    47A     -0.677671    48A     -0.672610
      49A     -0.661183    50A     -0.659387    51A     -0.642870
      52A     -0.633993    53A     -0.627290    54A     -0.615560
      55A     -0.603374    56A     -0.600559    57A     -0.581310
      58A     -0.575665    59A     -0.570990    60A     -0.559520
      61A     -0.554664    62A     -0.548460    63A     -0.541207
      64A     -0.534874    65A     -0.529967    66A     -0.521477
      67A     -0.512346    68A     -0.505969    69A     -0.496883
      70A     -0.485539    71A     -0.479880    72A     -0.476824
      73A     -0.463843    74A     -0.459491    75A     -0.449626
      76A     -0.433200

  @DF-RHF Final Energy: -1327.85768232049645

   => Energetics <=

    Nuclear Repulsion Energy =           1772.1221275288626202
    One-Electron Energy =               -5356.4152780061285739
    Two-Electron Energy =                2256.4354681567692751
    Total Energy =                      -1327.8576823204966786
  Basis Set: (AUG-CC-PVTZ AUX)
    Blend: AUG-CC-PVTZ-RI
    Molecular point group: c1

    Geometry (in Angstrom), charge = 0, multiplicity = 1:

       Center              X                  Y                   Z               Mass
    ------------   -----------------  -----------------  -----------------  -----------------
         P           -2.290130530888    -0.940297836458     0.342446786119    30.973761998420
         O           -0.982187530888    -0.201816836458     0.936057786119    15.994914619570
         O            1.342215469112    -1.675737836458     1.228619786119    15.994914619570
         O            0.078670469112     2.359349163542     0.459936786119    15.994914619570
         O            3.068480469112    -2.187326836458    -0.810821213881    15.994914619570
         O            2.847300469112     2.502858163542     0.369303786119    15.994914619570
         O            4.195653469112     0.435142163542    -0.975105213881    15.994914619570
         O           -2.826897530888     0.033096163542    -0.809762213881    15.994914619570
         O           -3.259155530888    -0.723536836458     1.619439786119    15.994914619570
         O           -2.119027530888    -2.343898836458    -0.101899213881    15.994914619570
         C            0.118127469112     0.029754163542     0.014087786119    12.000000000000
         C            0.953257469112    -1.244459836458    -0.077956213881    12.000000000000
         C            0.898554469112     1.202389163542     0.562619786119    12.000000000000
         C            2.259625469112    -1.014561836458    -0.820268213881    12.000000000000
         C            2.177040469112     1.396217163542    -0.230272213881    12.000000000000
         C            3.028286169112     0.151993763542    -0.160053213881    12.000000000000
         C           -3.124247530888     1.431343163542    -0.491117213881    12.000000000000
         C           -3.536351530888     2.084910163542    -1.786350213881    12.000000000000
         H           -0.283126530888     0.298546163542    -0.972469213881     1.007825032230
         H            0.370234469112    -2.029618836458    -0.574263213881     1.007825032230
         H            1.157085469112     0.997622163542     1.609924786119     1.007825032230
         H            2.060899469112    -0.788914836458    -1.874987213881     1.007825032230
         H            1.897318169112     1.666682663542    -1.263189913881     1.007825032230
         H            3.295820469112    -0.094786836458     0.825414786119     1.007825032230
         H            0.521740469112    -1.888286836458     1.709278786119     1.007825032230
         H            0.665505469112     3.109056163542     0.680952786119     1.007825032230
         H            2.973508469112    -2.547628836458     0.092422786119     1.007825032230
         H            3.721394469112     2.548931163542    -0.061100213881     1.007825032230
         H            4.639692469112    -0.424088836458    -1.099318213881     1.007825032230
         H           -3.808429530888    -1.522592836458     1.732496786119     1.007825032230
         H           -3.930580530888     1.445286163542     0.247154786119     1.007825032230
         H           -2.229796530888     1.892625163542    -0.061327213881     1.007825032230
         H           -3.800555530888     3.130627163542    -1.604902213881     1.007825032230
         H           -2.717230530888     2.053068163542    -2.507106213881     1.007825032230
         H           -4.400978530888     1.574068163542    -2.214955213881     1.007825032230

  Basis Set: AUG-CC-PVTZ
    Blend: AUG-CC-PVTZ
  Basis Set: (AUG-CC-PVTZ AUX)
    Blend: AUG-CC-PVTZ-JKFIT
	 Reference Energy          =   -1327.8576823204964512 [Eh]
	 Singles Energy            =      -0.0000000000000000 [Eh]
	 Same-Spin Energy          =      -1.0145156339788495 [Eh]
	 Opposite-Spin Energy      =      -3.0765102495137322 [Eh]
	 Correlation Energy        =      -4.0910258834925814 [Eh]
	 Total Energy              =   -1331.9487082039890993 [Eh]

	 ================> DF-SCS-MP2 Energies <==================
	-----------------------------------------------------------
	 SCS Same-Spin Scale       =       0.3333333333333333 [-]
	 SCS Opposite-Spin Scale   =       1.2000000000000000 [-]
	 SCS Same-Spin Energy      =      -0.3381718779929498 [Eh]
	 SCS Opposite-Spin Energy  =      -3.6918122994164784 [Eh]
	 SCS Correlation Energy    =      -4.0299841774094283 [Eh]
	 SCS Total Energy          =   -1331.8876664979059115 [Eh]
	-----------------------------------------------------------

  Dipole Moment: [D]
     X:    -1.1686      Y:     1.8469      Z:     0.7858     Total:     2.3225

*** Psi4 exiting successfully. Buy a developer a beer!
