                               Psi4 1.3.2 release

  ==> Input File <==

--------------------------------------------------------------------------
#psi4
#
memory 32 gb

molecule  {
0 1
  P       -2.3246233    -1.0166735     0.3342933
  O       -0.9821530    -0.2015620     0.9382890
  O        1.3422500    -1.6754830     1.2308510
  O        0.0787050     2.3596040     0.4621680
  O        3.0685150    -2.1870720    -0.8085900
  O        2.8473350     2.5031130     0.3715350
  O        4.1956880     0.4353970    -0.9728740
  O       -2.8268630     0.0333510    -0.8075310
  O       -3.2591210    -0.7232820     1.6216710
  O       -2.1189930    -2.3436440    -0.0996680
  C        0.1181620     0.0300090     0.0163190
  C        0.9532920    -1.2442050    -0.0757250
  C        0.8985890     1.2026440     0.5648510
  C        2.2596600    -1.0143070    -0.8180370
  C        2.1770750     1.3964720    -0.2280410
  C        3.0258420     0.1487050    -0.2103220
  C       -3.1242130     1.4315980    -0.4888860
  C       -3.5363170     2.0851650    -1.7841190
  H       -0.2830920     0.2988010    -0.9702380
  H        0.3702690    -2.0293640    -0.5720320
  H        1.1571200     0.9978770     1.6121560
  H        2.0609340    -0.7886600    -1.8727560
  H        1.9169870     1.6362870    -1.2735830
  H        3.2958550    -0.0945320     0.8276460
  H        0.5217750    -1.8880320     1.7115100
  H        0.6655400     3.1093110     0.6831840
  H        2.9735430    -2.5473740     0.0946540
  H        3.7214290     2.5491860    -0.0588690
  H        4.6397270    -0.4238340    -1.0970870
  H       -3.7850210    -1.5425319     1.6940107
  H       -3.9305460     1.4455410     0.2493860
  H       -2.2297620     1.8928800    -0.0590960
  H       -3.8005210     3.1308820    -1.6026710
  H       -2.7171960     2.0533230    -2.5048750
  H       -4.4009440     1.5743230    -2.2127240
units angstrom
no_reorient  #important for SAPT in psi4, default
symmetry c1  #important for SAPT in psi4, default
}

set PROPERTIES_ORIGIN ["COM"]
properties('MP2/aug-cc-pvtz', properties = ['dipole'])
--------------------------------------------------------------------------

    Molecular point group: c1
  Charge       = 0
  Multiplicity = 1
  Basis Set: AUG-CC-PVTZ
    Blend: AUG-CC-PVTZ
  Basis Set: (AUG-CC-PVTZ AUX)
    Blend: AUG-CC-PVTZ-JKFIT

    Orbital Energies [Eh]
    ---------------------

    Doubly Occupied:

       1A    -80.116528     2A    -20.623737     3A    -20.592937
       4A    -20.592700     5A    -20.580673     6A    -20.573631
       7A    -20.572696     8A    -20.571916     9A    -20.568555
      10A    -20.542250    11A    -11.311424    12A    -11.300569
      13A    -11.296783    14A    -11.294999    15A    -11.293367
      16A    -11.292690    17A    -11.288811    18A    -11.226906
      19A     -7.634109    20A     -5.532284    21A     -5.531811
      22A     -5.531524    23A     -1.456216    24A     -1.407363
      25A     -1.390703    26A     -1.388880    27A     -1.379784
      28A     -1.362028    29A     -1.360813    30A     -1.351697
      31A     -1.346841    32A     -1.113333    33A     -1.035571
      34A     -1.004243    35A     -0.999607    36A     -0.873393
      37A     -0.859531    38A     -0.854632    39A     -0.816493
      40A     -0.805762    41A     -0.746973    42A     -0.739139
      43A     -0.725571    44A     -0.719168    45A     -0.704152
      46A     -0.686353    47A     -0.680304    48A     -0.673829
      49A     -0.660665    50A     -0.657226    51A     -0.639167
      52A     -0.630248    53A     -0.625625    54A     -0.611552
      55A     -0.599759    56A     -0.596318    57A     -0.591221
      58A     -0.576655    59A     -0.566785    60A     -0.560406
      61A     -0.554277    62A     -0.546383    63A     -0.539924
      64A     -0.535538    65A     -0.522892    66A     -0.521428
      67A     -0.511600    68A     -0.506921    69A     -0.504697
      70A     -0.498969    71A     -0.481252    72A     -0.473892
      73A     -0.459788    74A     -0.452707    75A     -0.446101
      76A     -0.434824

  @DF-RHF Final Energy: -1327.84909313679600

   => Energetics <=

    Nuclear Repulsion Energy =           1770.0563952005936699
    One-Electron Energy =               -5352.4907785757568490
    Two-Electron Energy =                2254.5852902383671790
    Total Energy =                      -1327.8490931367960002
  Basis Set: (AUG-CC-PVTZ AUX)
    Blend: AUG-CC-PVTZ-RI
    Molecular point group: c1

    Geometry (in Angstrom), charge = 0, multiplicity = 1:

       Center              X                  Y                   Z               Mass
    ------------   -----------------  -----------------  -----------------  -----------------
         P           -2.320992496597    -1.008363136157     0.335552361301    30.973761998420
         O           -0.978522196597    -0.193251636157     0.939548061301    15.994914619570
         O            1.345880803403    -1.667172636157     1.232110061301    15.994914619570
         O            0.082335803403     2.367914363843     0.463427061301    15.994914619570
         O            3.072145803403    -2.178761636157    -0.807330938699    15.994914619570
         O            2.850965803403     2.511423363843     0.372794061301    15.994914619570
         O            4.199318803403     0.443707363843    -0.971614938699    15.994914619570
         O           -2.823232196597     0.041661363843    -0.806271938699    15.994914619570
         O           -3.255490196597    -0.714971636157     1.622930061301    15.994914619570
         O           -2.115362196597    -2.335333636157    -0.098408938699    15.994914619570
         C            0.121792803403     0.038319363843     0.017578061301    12.000000000000
         C            0.956922803403    -1.235894636157    -0.074465938699    12.000000000000
         C            0.902219803403     1.210954363843     0.566110061301    12.000000000000
         C            2.263290803403    -1.005996636157    -0.816777938699    12.000000000000
         C            2.180705803403     1.404782363843    -0.226781938699    12.000000000000
         C            3.029472803403     0.157015363843    -0.209062938699    12.000000000000
         C           -3.120582196597     1.439908363843    -0.487626938699    12.000000000000
         C           -3.532686196597     2.093475363843    -1.782859938699    12.000000000000
         H           -0.279461196597     0.307111363843    -0.968978938699     1.007825032230
         H            0.373899803403    -2.021053636157    -0.570772938699     1.007825032230
         H            1.160750803403     1.006187363843     1.613415061301     1.007825032230
         H            2.064564803403    -0.780349636157    -1.871496938699     1.007825032230
         H            1.920617803403     1.644597363843    -1.272323938699     1.007825032230
         H            3.299485803403    -0.086221636157     0.828905061301     1.007825032230
         H            0.525405803403    -1.879721636157     1.712769061301     1.007825032230
         H            0.669170803403     3.117621363843     0.684443061301     1.007825032230
         H            2.977173803403    -2.539063636157     0.095913061301     1.007825032230
         H            3.725059803403     2.557496363843    -0.057609938699     1.007825032230
         H            4.643357803403    -0.415523636157    -1.095827938699     1.007825032230
         H           -3.781390196597    -1.534221536157     1.695269761301     1.007825032230
         H           -3.926915196597     1.453851363843     0.250645061301     1.007825032230
         H           -2.226131196597     1.901190363843    -0.057836938699     1.007825032230
         H           -3.796890196597     3.139192363843    -1.601411938699     1.007825032230
         H           -2.713565196597     2.061633363843    -2.503615938699     1.007825032230
         H           -4.397313196597     1.582633363843    -2.211464938699     1.007825032230

  Basis Set: AUG-CC-PVTZ
    Blend: AUG-CC-PVTZ
  Basis Set: (AUG-CC-PVTZ AUX)
    Blend: AUG-CC-PVTZ-JKFIT
	 Reference Energy          =   -1327.8490931367960002 [Eh]
	 Singles Energy            =      -0.0000000000000000 [Eh]
	 Same-Spin Energy          =      -1.0144146403697269 [Eh]
	 Opposite-Spin Energy      =      -3.0762877531988551 [Eh]
	 Correlation Energy        =      -4.0907023935685825 [Eh]
	 Total Energy              =   -1331.9397955303645631 [Eh]

	 ================> DF-SCS-MP2 Energies <==================
	-----------------------------------------------------------
	 SCS Same-Spin Scale       =       0.3333333333333333 [-]
	 SCS Opposite-Spin Scale   =       1.2000000000000000 [-]
	 SCS Same-Spin Energy      =      -0.3381382134565756 [Eh]
	 SCS Opposite-Spin Energy  =      -3.6915453038386259 [Eh]
	 SCS Correlation Energy    =      -4.0296835172952017 [Eh]
	 SCS Total Energy          =   -1331.8787766540910980 [Eh]
	-----------------------------------------------------------

  Dipole Moment: [D]
     X:    -1.6015      Y:     1.0370      Z:     0.6675     Total:     2.0213

*** Psi4 exiting successfully. Buy a developer a beer!
