                               Psi4 1.3.2 release

  ==> Input File <==

--------------------------------------------------------------------------
#psi4
#
memory 32 gb

molecule  {
0 1
  P       -2.2900960    -0.9400430     0.3446780
  O       -0.9821530    -0.2015620     0.9382890
  O        1.3422500    -1.6754830     1.2308510
  O        0.0787050     2.3596040     0.4621680
  O        3.0685150    -2.1870720    -0.8085900
  O        2.8473350     2.5031130     0.3715350
  O        4.1956880     0.4353970    -0.9728740
  O       -2.8268630     0.0333510    -0.8075310
  O       -3.2591210    -0.7232820     1.6216710
  O       -2.1189930    -2.3436440    -0.0996680
  C        0.1181620     0.0300090     0.0163190
  C        0.9532920    -1.2442050    -0.0757250
  C        0.8985890     1.2026440     0.5648510
  C        2.2596600    -1.0143070    -0.8180370
  C        2.1770750     1.3964720    -0.2280410
  C        3.0255247     0.1549489    -0.2220159
  C       -3.1242130     1.4315980    -0.4888860
  C       -3.5363170     2.0851650    -1.7841190
  H       -0.2830920     0.2988010    -0.9702380
  H        0.3702690    -2.0293640    -0.5720320
  H        1.1571200     0.9978770     1.6121560
  H        2.0654498    -0.7802792    -1.8717704
  H        1.9169870     1.6362870    -1.2735830
  H        3.2958550    -0.0945320     0.8276460
  H        0.5217750    -1.8880320     1.7115100
  H        0.6655400     3.1093110     0.6831840
  H        2.9735430    -2.5473740     0.0946540
  H        3.7214290     2.5491860    -0.0588690
  H        4.6397270    -0.4238340    -1.0970870
  H       -3.8083950    -1.5223380     1.7347280
  H       -3.9305460     1.4455410     0.2493860
  H       -2.2297620     1.8928800    -0.0590960
  H       -3.8005210     3.1308820    -1.6026710
  H       -2.7171960     2.0533230    -2.5048750
  H       -4.4009440     1.5743230    -2.2127240
units angstrom
no_reorient  #important for SAPT in psi4, default
symmetry c1  #important for SAPT in psi4, default
}

set PROPERTIES_ORIGIN ["COM"]
properties('MP2/aug-cc-pvtz', properties = ['dipole'])
--------------------------------------------------------------------------

    Molecular point group: c1
  Charge       = 0
  Multiplicity = 1
  Basis Set: AUG-CC-PVTZ
    Blend: AUG-CC-PVTZ
  Basis Set: (AUG-CC-PVTZ AUX)
    Blend: AUG-CC-PVTZ-JKFIT

    Orbital Energies [Eh]
    ---------------------

    Doubly Occupied:

       1A    -80.116937     2A    -20.614724     3A    -20.607027
       4A    -20.598934     5A    -20.583021     6A    -20.576927
       7A    -20.574917     8A    -20.574824     9A    -20.573601
      10A    -20.523428    11A    -11.320773    12A    -11.303705
      13A    -11.299388    14A    -11.299318    15A    -11.298823
      16A    -11.296516    17A    -11.291747    18A    -11.229864
      19A     -7.632387    20A     -5.530893    21A     -5.530520
      22A     -5.529318    23A     -1.460281    24A     -1.411140
      25A     -1.395535    26A     -1.393085    27A     -1.386897
      28A     -1.373643    29A     -1.364069    30A     -1.354745
      31A     -1.303823    32A     -1.119287    33A     -1.040466
      34A     -1.012406    35A     -1.003522    36A     -0.880122
      37A     -0.864856    38A     -0.859843    39A     -0.822041
      40A     -0.810132    41A     -0.751888    42A     -0.745565
      43A     -0.731728    44A     -0.728569    45A     -0.707945
      46A     -0.687209    47A     -0.678324    48A     -0.674021
      49A     -0.663232    50A     -0.661091    51A     -0.643255
      52A     -0.635543    53A     -0.627384    54A     -0.615496
      55A     -0.603747    56A     -0.598056    57A     -0.581808
      58A     -0.575540    59A     -0.571110    60A     -0.559360
      61A     -0.556925    62A     -0.548497    63A     -0.541189
      64A     -0.537167    65A     -0.530004    66A     -0.521837
      67A     -0.513264    68A     -0.503900    69A     -0.497121
      70A     -0.484731    71A     -0.479844    72A     -0.476553
      73A     -0.462473    74A     -0.455379    75A     -0.450149
      76A     -0.435472

  @DF-RHF Final Energy: -1327.86129675778193

   => Energetics <=

    Nuclear Repulsion Energy =           1772.5174155728693677
    One-Electron Energy =               -5357.1596965174094294
    Two-Electron Energy =                2256.7809841867583600
    Total Energy =                      -1327.8612967577819290
  Basis Set: (AUG-CC-PVTZ AUX)
    Blend: AUG-CC-PVTZ-RI
    Molecular point group: c1

    Geometry (in Angstrom), charge = 0, multiplicity = 1:

       Center              X                  Y                   Z               Mass
    ------------   -----------------  -----------------  -----------------  -----------------
         P           -2.290098548342    -0.940332411212     0.345161685121    30.973761998420
         O           -0.982155548342    -0.201851411212     0.938772685121    15.994914619570
         O            1.342247451658    -1.675772411212     1.231334685121    15.994914619570
         O            0.078702451658     2.359314588788     0.462651685121    15.994914619570
         O            3.068512451658    -2.187361411212    -0.808106314879    15.994914619570
         O            2.847332451658     2.502823588788     0.372018685121    15.994914619570
         O            4.195685451658     0.435107588788    -0.972390314879    15.994914619570
         O           -2.826865548342     0.033061588788    -0.807047314879    15.994914619570
         O           -3.259123548342    -0.723571411212     1.622154685121    15.994914619570
         O           -2.118995548342    -2.343933411212    -0.099184314879    15.994914619570
         C            0.118159451658     0.029719588788     0.016802685121    12.000000000000
         C            0.953289451658    -1.244494411212    -0.075241314879    12.000000000000
         C            0.898586451658     1.202354588788     0.565334685121    12.000000000000
         C            2.259657451658    -1.014596411212    -0.817553314879    12.000000000000
         C            2.177072451658     1.396182588788    -0.227557314879    12.000000000000
         C            3.025522151658     0.154659488788    -0.221532214879    12.000000000000
         C           -3.124215548342     1.431308588788    -0.488402314879    12.000000000000
         C           -3.536319548342     2.084875588788    -1.783635314879    12.000000000000
         H           -0.283094548342     0.298511588788    -0.969754314879     1.007825032230
         H            0.370266451658    -2.029653411212    -0.571548314879     1.007825032230
         H            1.157117451658     0.997587588788     1.612639685121     1.007825032230
         H            2.065447251658    -0.780568611212    -1.871286714879     1.007825032230
         H            1.916984451658     1.635997588788    -1.273099314879     1.007825032230
         H            3.295852451658    -0.094821411212     0.828129685121     1.007825032230
         H            0.521772451658    -1.888321411212     1.711993685121     1.007825032230
         H            0.665537451658     3.109021588788     0.683667685121     1.007825032230
         H            2.973540451658    -2.547663411212     0.095137685121     1.007825032230
         H            3.721426451658     2.548896588788    -0.058385314879     1.007825032230
         H            4.639724451658    -0.424123411212    -1.096603314879     1.007825032230
         H           -3.808397548342    -1.522627411212     1.735211685121     1.007825032230
         H           -3.930548548342     1.445251588788     0.249869685121     1.007825032230
         H           -2.229764548342     1.892590588788    -0.058612314879     1.007825032230
         H           -3.800523548342     3.130592588788    -1.602187314879     1.007825032230
         H           -2.717198548342     2.053033588788    -2.504391314879     1.007825032230
         H           -4.400946548342     1.574033588788    -2.212240314879     1.007825032230

  Basis Set: AUG-CC-PVTZ
    Blend: AUG-CC-PVTZ
  Basis Set: (AUG-CC-PVTZ AUX)
    Blend: AUG-CC-PVTZ-JKFIT
	 Reference Energy          =   -1327.8612967577819290 [Eh]
	 Singles Energy            =      -0.0000000000000000 [Eh]
	 Same-Spin Energy          =      -1.0146432717595355 [Eh]
	 Opposite-Spin Energy      =      -3.0760169306033598 [Eh]
	 Correlation Energy        =      -4.0906602023628951 [Eh]
	 Total Energy              =   -1331.9519569601447984 [Eh]

	 ================> DF-SCS-MP2 Energies <==================
	-----------------------------------------------------------
	 SCS Same-Spin Scale       =       0.3333333333333333 [-]
	 SCS Opposite-Spin Scale   =       1.2000000000000000 [-]
	 SCS Same-Spin Energy      =      -0.3382144239198451 [Eh]
	 SCS Opposite-Spin Energy  =      -3.6912203167240314 [Eh]
	 SCS Correlation Energy    =      -4.0294347406438762 [Eh]
	 SCS Total Energy          =   -1331.8907314984257937 [Eh]
	-----------------------------------------------------------

  Dipole Moment: [D]
     X:    -1.1003      Y:     1.8694      Z:     0.7045     Total:     2.2807

*** Psi4 exiting successfully. Buy a developer a beer!
