                               Psi4 1.4a3.dev225

  ==> Input File <==

--------------------------------------------------------------------------
#psi4
#
memory 32 gb

molecule  {
0 1
  P       -2.3219140    -1.0563120    -0.0968450
  O       -1.0285840    -0.5623410     0.7549430
  O        1.3695440    -1.8069540     1.2202350
  O       -0.1592450     2.1412630     0.5207450
  O        3.3269040    -2.0858120    -0.6453880
  O        2.5724350     2.5270130     0.6374560
  O        4.2203020     0.6406430    -0.6358120
  O       -2.8737010     0.2643620    -0.8096810
  O       -3.3065970    -1.3497020     1.1531960
  O       -2.1044560    -2.1814480    -1.0350500
  C        0.1200290    -0.1583450    -0.0432010
  C        1.0698050    -1.3527180    -0.1046720
  C        0.7441670     1.0454510     0.6308160
  C        2.4193320    -0.9866070    -0.7068450
  C        2.0603010     1.3853380    -0.0470020
  C        3.0180900     0.2181970     0.0056710
  C       -3.2473180     1.4231610     0.0025120
  C       -3.2076300     2.6262440    -0.9075720
  H       -0.2106474     0.1366461    -1.0698605
  H        0.5965010    -2.1549610    -0.6866410
  H        0.9371260     0.8063110     1.6860210
  H        2.3054700    -0.7437210    -1.7704410
  H        1.8633300     1.6367370    -1.1028410
  H        3.2142070    -0.0417910     1.0561650
  H        0.5126160    -2.0057500     1.6426110
  H        0.3598300     2.9232990     0.7925780
  H        3.1793900    -2.4823080     0.2360710
  H        3.4672560     2.6739710     0.2770410
  H        4.7639490    -0.1654590    -0.7244900
  H       -3.7873380    -2.1826420     0.9908450
  H       -4.2474700     1.2335250     0.4005830
  H       -2.5352900     1.5309660     0.8217280
  H       -3.5402110     3.5125760    -0.3587690
  H       -2.1856630     2.7912820    -1.2511950
  H       -3.8637180     2.4807570    -1.7684970
units angstrom
no_reorient  #important for SAPT in psi4, default
symmetry c1  #important for SAPT in psi4, default
}

set PROPERTIES_ORIGIN ["COM"]
properties('MP2/aug-cc-pvtz', properties = ['dipole'])
--------------------------------------------------------------------------

    Molecular point group: c1
  Charge       = 0
  Multiplicity = 1
  Basis Set: AUG-CC-PVTZ
    Blend: AUG-CC-PVTZ
  Basis Set: (AUG-CC-PVTZ AUX)
    Blend: AUG-CC-PVTZ-JKFIT

    Orbital Energies [Eh]
    ---------------------

    Doubly Occupied:

       1A    -80.116881     2A    -20.615048     3A    -20.608330
       4A    -20.596011     5A    -20.584224     6A    -20.578513
       7A    -20.575345     8A    -20.575183     9A    -20.574649
      10A    -20.522522    11A    -11.323588    12A    -11.305377
      13A    -11.300762    14A    -11.300301    15A    -11.298382
      16A    -11.296157    17A    -11.293020    18A    -11.222904
      19A     -7.632140    20A     -5.530674    21A     -5.530173
      22A     -5.529109    23A     -1.458548    24A     -1.410967
      25A     -1.395496    26A     -1.392734    27A     -1.385199
      28A     -1.372800    29A     -1.364261    30A     -1.354298
      31A     -1.302713    32A     -1.118493    33A     -1.035512
      34A     -1.010757    35A     -1.003618    36A     -0.877724
      37A     -0.862239    38A     -0.859526    39A     -0.822570
      40A     -0.808889    41A     -0.754464    42A     -0.745392
      43A     -0.729110    44A     -0.725912    45A     -0.705439
      46A     -0.686779    47A     -0.679149    48A     -0.674256
      49A     -0.662385    50A     -0.659354    51A     -0.642157
      52A     -0.637669    53A     -0.623734    54A     -0.613104
      55A     -0.604148    56A     -0.596990    57A     -0.580436
      58A     -0.577775    59A     -0.570212    60A     -0.559920
      61A     -0.555164    62A     -0.547813    63A     -0.538305
      64A     -0.537796    65A     -0.529854    66A     -0.517810
      67A     -0.508502    68A     -0.503371    69A     -0.494552
      70A     -0.487294    71A     -0.478585    72A     -0.475497
      73A     -0.462726    74A     -0.457245    75A     -0.451066
      76A     -0.436761

  @DF-RHF Final Energy: -1327.86027535579933

   => Energetics <=

    Nuclear Repulsion Energy =           1774.4963950088799720
    One-Electron Energy =               -5361.2006115532522017
    Two-Electron Energy =                2258.8439411885728987
    Total Energy =                      -1327.8602753557993310
  Basis Set: (AUG-CC-PVTZ AUX)
    Blend: AUG-CC-PVTZ-RI
    Molecular point group: c1

    Geometry (in Angstrom), charge = 0, multiplicity = 1:

       Center              X                  Y                   Z               Mass
    ------------   -----------------  -----------------  -----------------  -----------------
         P           -2.311131924657    -1.018551400380    -0.099225233665    30.973761998420
         O           -1.017801924657    -0.524580400380     0.752562766335    15.994914619570
         O            1.380326075343    -1.769193400380     1.217854766335    15.994914619570
         O           -0.148462924657     2.179023599620     0.518364766335    15.994914619570
         O            3.337686075343    -2.048051400380    -0.647768233665    15.994914619570
         O            2.583217075343     2.564773599620     0.635075766335    15.994914619570
         O            4.231084075343     0.678403599620    -0.638192233665    15.994914619570
         O           -2.862918924657     0.302122599620    -0.812061233665    15.994914619570
         O           -3.295814924657    -1.311941400380     1.150815766335    15.994914619570
         O           -2.093673924657    -2.143687400380    -1.037430233665    15.994914619570
         C            0.130811075343    -0.120584400380    -0.045581233665    12.000000000000
         C            1.080587075343    -1.314957400380    -0.107052233665    12.000000000000
         C            0.754949075343     1.083211599620     0.628435766335    12.000000000000
         C            2.430114075343    -0.948846400380    -0.709225233665    12.000000000000
         C            2.071083075343     1.423098599620    -0.049382233665    12.000000000000
         C            3.028872075343     0.255957599620     0.003290766335    12.000000000000
         C           -3.236535924657     1.460921599620     0.000131766335    12.000000000000
         C           -3.196847924657     2.664004599620    -0.909952233665    12.000000000000
         H           -0.199865324657     0.174406699620    -1.072240733665     1.007825032230
         H            0.607283075343    -2.117200400380    -0.689021233665     1.007825032230
         H            0.947908075343     0.844071599620     1.683640766335     1.007825032230
         H            2.316252075343    -0.705960400380    -1.772821233665     1.007825032230
         H            1.874112075343     1.674497599620    -1.105221233665     1.007825032230
         H            3.224989075343    -0.004030400380     1.053784766335     1.007825032230
         H            0.523398075343    -1.967989400380     1.640230766335     1.007825032230
         H            0.370612075343     2.961059599620     0.790197766335     1.007825032230
         H            3.190172075343    -2.444547400380     0.233690766335     1.007825032230
         H            3.478038075343     2.711731599620     0.274660766335     1.007825032230
         H            4.774731075343    -0.127698400380    -0.726870233665     1.007825032230
         H           -3.776555924657    -2.144881400380     0.988464766335     1.007825032230
         H           -4.236687924657     1.271285599620     0.398202766335     1.007825032230
         H           -2.524507924657     1.568726599620     0.819347766335     1.007825032230
         H           -3.529428924657     3.550336599620    -0.361149233665     1.007825032230
         H           -2.174880924657     2.829042599620    -1.253575233665     1.007825032230
         H           -3.852935924657     2.518517599620    -1.770877233665     1.007825032230

  Basis Set: AUG-CC-PVTZ
    Blend: AUG-CC-PVTZ
  Basis Set: (AUG-CC-PVTZ AUX)
    Blend: AUG-CC-PVTZ-JKFIT
	 Reference Energy          =   -1327.8602753557993310 [Eh]
	 Singles Energy            =      -0.0000000000000000 [Eh]
	 Same-Spin Energy          =      -1.0147896892274919 [Eh]
	 Opposite-Spin Energy      =      -3.0767968696007029 [Eh]
	 Correlation Energy        =      -4.0915865588281948 [Eh]
	 Total Energy              =   -1331.9518619146274432 [Eh]

	 ================> DF-SCS-MP2 Energies <==================
	-----------------------------------------------------------
	 SCS Same-Spin Scale       =       0.3333333333333333 [-]
	 SCS Opposite-Spin Scale   =       1.2000000000000000 [-]
	 SCS Same-Spin Energy      =      -0.3382632297424973 [Eh]
	 SCS Opposite-Spin Energy  =      -3.6921562435208433 [Eh]
	 SCS Correlation Energy    =      -4.0304194732633407 [Eh]
	 SCS Total Energy          =   -1331.8906948290625678 [Eh]
	-----------------------------------------------------------

  Dipole Moment: [D]
     X:    -0.8651      Y:     1.4181      Z:     1.8810     Total:     2.5095

*** Psi4 exiting successfully. Buy a developer a beer!
