                               Psi4 1.3.2 release

  ==> Input File <==

--------------------------------------------------------------------------
#psi4
#
memory 32 gb

molecule  {
0 1
  P       -2.2889552    -0.9609351     0.3261579
  O       -0.9821530    -0.2015620     0.9382890
  O        1.3422500    -1.6754830     1.2308510
  O        0.0787050     2.3596040     0.4621680
  O        3.0685150    -2.1870720    -0.8085900
  O        2.8473350     2.5031130     0.3715350
  O        4.1956880     0.4353970    -0.9728740
  O       -2.8268630     0.0333510    -0.8075310
  O       -3.2591210    -0.7232820     1.6216710
  O       -2.1189930    -2.3436440    -0.0996680
  C        0.1181620     0.0300090     0.0163190
  C        0.9532920    -1.2442050    -0.0757250
  C        0.8985890     1.2026440     0.5648510
  C        2.2596600    -1.0143070    -0.8180370
  C        2.1770750     1.3964720    -0.2280410
  C        3.0258420     0.1487050    -0.2103220
  C       -3.1310786     1.4354465    -0.5132058
  C       -3.5363170     2.0851650    -1.7841190
  H       -0.2830920     0.2988010    -0.9702380
  H        0.3702690    -2.0293640    -0.5720320
  H        1.1571200     0.9978770     1.6121560
  H        2.0609340    -0.7886600    -1.8727560
  H        1.9169870     1.6362870    -1.2735830
  H        3.2958550    -0.0945320     0.8276460
  H        0.5217750    -1.8880320     1.7115100
  H        0.6655400     3.1093110     0.6831840
  H        2.9735430    -2.5473740     0.0946540
  H        3.7214290     2.5491860    -0.0588690
  H        4.6397270    -0.4238340    -1.0970870
  H       -3.8083950    -1.5223380     1.7347280
  H       -3.9305460     1.4455410     0.2493860
  H       -2.2297620     1.8928800    -0.0590960
  H       -3.8005210     3.1308820    -1.6026710
  H       -2.7171960     2.0533230    -2.5048750
  H       -4.4009440     1.5743230    -2.2127240
units angstrom
no_reorient  #important for SAPT in psi4, default
symmetry c1  #important for SAPT in psi4, default
}

set PROPERTIES_ORIGIN ["COM"]
properties('MP2/aug-cc-pvtz', properties = ['dipole'])
--------------------------------------------------------------------------

    Molecular point group: c1
  Charge       = 0
  Multiplicity = 1
  Basis Set: AUG-CC-PVTZ
    Blend: AUG-CC-PVTZ
  Basis Set: (AUG-CC-PVTZ AUX)
    Blend: AUG-CC-PVTZ-JKFIT

    Orbital Energies [Eh]
    ---------------------

    Doubly Occupied:

       1A    -80.116476     2A    -20.610987     3A    -20.604360
       4A    -20.597829     5A    -20.582949     6A    -20.576244
       7A    -20.574498     8A    -20.573846     9A    -20.572431
      10A    -20.529208    11A    -11.318868    12A    -11.303423
      13A    -11.300221    14A    -11.299153    15A    -11.297590
      16A    -11.296018    17A    -11.291113    18A    -11.229075
      19A     -7.632320    20A     -5.530707    21A     -5.530358
      22A     -5.529455    23A     -1.455863    24A     -1.409506
      25A     -1.393368    26A     -1.390574    27A     -1.382831
      28A     -1.370793    29A     -1.363468    30A     -1.353282
      31A     -1.319383    32A     -1.118004    33A     -1.045766
      34A     -1.010396    35A     -1.002948    36A     -0.878487
      37A     -0.863179    38A     -0.858309    39A     -0.818155
      40A     -0.809745    41A     -0.750705    42A     -0.743267
      43A     -0.729303    44A     -0.726213    45A     -0.705364
      46A     -0.686070    47A     -0.677718    48A     -0.672309
      49A     -0.661532    50A     -0.658933    51A     -0.641466
      52A     -0.633894    53A     -0.626846    54A     -0.615309
      55A     -0.601760    56A     -0.598291    57A     -0.584747
      58A     -0.575793    59A     -0.570459    60A     -0.560810
      61A     -0.556936    62A     -0.548445    63A     -0.540834
      64A     -0.536606    65A     -0.527914    66A     -0.522732
      67A     -0.513818    68A     -0.503997    69A     -0.498992
      70A     -0.488953    71A     -0.483750    72A     -0.475537
      73A     -0.463002    74A     -0.455362    75A     -0.449842
      76A     -0.436478

  @DF-RHF Final Energy: -1327.85913608498186

   => Energetics <=

    Nuclear Repulsion Energy =           1771.9770153855699846
    One-Electron Energy =               -5356.1419508794933790
    Two-Electron Energy =                2256.3057994089417662
    Total Energy =                      -1327.8591360849818557
  Basis Set: (AUG-CC-PVTZ AUX)
    Blend: AUG-CC-PVTZ-RI
    Molecular point group: c1

    Geometry (in Angstrom), charge = 0, multiplicity = 1:

       Center              X                  Y                   Z               Mass
    ------------   -----------------  -----------------  -----------------  -----------------
         P           -2.288791825619    -0.958848979406     0.329162374932    30.973761998420
         O           -0.981989625619    -0.199475879406     0.941293474932    15.994914619570
         O            1.342413374381    -1.673396879406     1.233855474932    15.994914619570
         O            0.078868374381     2.361690120594     0.465172474932    15.994914619570
         O            3.068678374381    -2.184985879406    -0.805585525068    15.994914619570
         O            2.847498374381     2.505199120594     0.374539474932    15.994914619570
         O            4.195851374381     0.437483120594    -0.969869525068    15.994914619570
         O           -2.826699625619     0.035437120594    -0.804526525068    15.994914619570
         O           -3.258957625619    -0.721195879406     1.624675474932    15.994914619570
         O           -2.118829625619    -2.341557879406    -0.096663525068    15.994914619570
         C            0.118325374381     0.032095120594     0.019323474932    12.000000000000
         C            0.953455374381    -1.242118879406    -0.072720525068    12.000000000000
         C            0.898752374381     1.204730120594     0.567855474932    12.000000000000
         C            2.259823374381    -1.012220879406    -0.815032525068    12.000000000000
         C            2.177238374381     1.398558120594    -0.225036525068    12.000000000000
         C            3.026005374381     0.150791120594    -0.207317525068    12.000000000000
         C           -3.130915225619     1.437532620594    -0.510201325068    12.000000000000
         C           -3.536153625619     2.087251120594    -1.781114525068    12.000000000000
         H           -0.282928625619     0.300887120594    -0.967233525068     1.007825032230
         H            0.370432374381    -2.027277879406    -0.569027525068     1.007825032230
         H            1.157283374381     0.999963120594     1.615160474932     1.007825032230
         H            2.061097374381    -0.786573879406    -1.869751525068     1.007825032230
         H            1.917150374381     1.638373120594    -1.270578525068     1.007825032230
         H            3.296018374381    -0.092445879406     0.830650474932     1.007825032230
         H            0.521938374381    -1.885945879406     1.714514474932     1.007825032230
         H            0.665703374381     3.111397120594     0.686188474932     1.007825032230
         H            2.973706374381    -2.545287879406     0.097658474932     1.007825032230
         H            3.721592374381     2.551272120594    -0.055864525068     1.007825032230
         H            4.639890374381    -0.421747879406    -1.094082525068     1.007825032230
         H           -3.808231625619    -1.520251879406     1.737732474932     1.007825032230
         H           -3.930382625619     1.447627120594     0.252390474932     1.007825032230
         H           -2.229598625619     1.894966120594    -0.056091525068     1.007825032230
         H           -3.800357625619     3.132968120594    -1.599666525068     1.007825032230
         H           -2.717032625619     2.055409120594    -2.501870525068     1.007825032230
         H           -4.400780625619     1.576409120594    -2.209719525068     1.007825032230

  Basis Set: AUG-CC-PVTZ
    Blend: AUG-CC-PVTZ
  Basis Set: (AUG-CC-PVTZ AUX)
    Blend: AUG-CC-PVTZ-JKFIT
	 Reference Energy          =   -1327.8591360849818557 [Eh]
	 Singles Energy            =      -0.0000000000000000 [Eh]
	 Same-Spin Energy          =      -1.0146358359660450 [Eh]
	 Opposite-Spin Energy      =      -3.0761577420556447 [Eh]
	 Correlation Energy        =      -4.0907935780216897 [Eh]
	 Total Energy              =   -1331.9499296630035587 [Eh]

	 ================> DF-SCS-MP2 Energies <==================
	-----------------------------------------------------------
	 SCS Same-Spin Scale       =       0.3333333333333333 [-]
	 SCS Opposite-Spin Scale   =       1.2000000000000000 [-]
	 SCS Same-Spin Energy      =      -0.3382119453220150 [Eh]
	 SCS Opposite-Spin Energy  =      -3.6913892904667733 [Eh]
	 SCS Correlation Energy    =      -4.0296012357887880 [Eh]
	 SCS Total Energy          =   -1331.8887373207705878 [Eh]
	-----------------------------------------------------------

  Dipole Moment: [D]
     X:    -1.1513      Y:     1.6956      Z:     0.5358     Total:     2.1184

*** Psi4 exiting successfully. Buy a developer a beer!
