                               Psi4 1.3.2 release

  ==> Input File <==

--------------------------------------------------------------------------
#psi4
#
memory 32 gb

molecule  {
0 1
  P       -2.2900960    -0.9400430     0.3446780
  O       -0.9821530    -0.2015620     0.9382890
  O        1.3422500    -1.6754830     1.2308510
  O        0.0787050     2.3596040     0.4621680
  O        3.0685150    -2.1870720    -0.8085900
  O        2.8473350     2.5031130     0.3715350
  O        4.1956880     0.4353970    -0.9728740
  O       -2.8268630     0.0333510    -0.8075310
  O       -3.2591210    -0.7232820     1.6216710
  O       -2.1189930    -2.3436440    -0.0996680
  C        0.1181620     0.0300090     0.0163190
  C        0.9532920    -1.2442050    -0.0757250
  C        0.8985890     1.2026440     0.5648510
  C        2.2596600    -1.0143070    -0.8180370
  C        2.1770750     1.3964720    -0.2280410
  C        3.0258420     0.1487050    -0.2103220
  C       -3.0836080     1.2406586    -0.5323990
  C       -3.5363170     2.0851650    -1.7841190
  H       -0.2830920     0.2988010    -0.9702380
  H        0.3702690    -2.0293640    -0.5720320
  H        1.1571200     0.9978770     1.6121560
  H        2.0609340    -0.7886600    -1.8727560
  H        1.9169870     1.6362870    -1.2735830
  H        3.2958550    -0.0945320     0.8276460
  H        0.5217750    -1.8880320     1.7115100
  H        0.6655400     3.1093110     0.6831840
  H        2.9735430    -2.5473740     0.0946540
  H        3.7214290     2.5491860    -0.0588690
  H        4.6397270    -0.4238340    -1.0970870
  H       -3.8083950    -1.5223380     1.7347280
  H       -3.9305460     1.4455410     0.2493860
  H       -2.2297620     1.8928800    -0.0590960
  H       -3.8005210     3.1308820    -1.6026710
  H       -2.7171960     2.0533230    -2.5048750
  H       -4.4009440     1.5743230    -2.2127240
units angstrom
no_reorient  #important for SAPT in psi4, default
symmetry c1  #important for SAPT in psi4, default
}

set PROPERTIES_ORIGIN ["COM"]
properties('MP2/aug-cc-pvtz', properties = ['dipole'])
--------------------------------------------------------------------------

    Molecular point group: c1
  Charge       = 0
  Multiplicity = 1
  Basis Set: AUG-CC-PVTZ
    Blend: AUG-CC-PVTZ
  Basis Set: (AUG-CC-PVTZ AUX)
    Blend: AUG-CC-PVTZ-JKFIT

    Orbital Energies [Eh]
    ---------------------

    Doubly Occupied:

       1A    -80.131600     2A    -20.622768     3A    -20.621257
       4A    -20.614847     5A    -20.586311     6A    -20.577449
       7A    -20.576669     8A    -20.575333     9A    -20.572120
      10A    -20.534107    11A    -11.324977    12A    -11.306965
      13A    -11.301624    14A    -11.299930    15A    -11.298396
      16A    -11.297732    17A    -11.292891    18A    -11.223018
      19A     -7.647100    20A     -5.545474    21A     -5.545296
      22A     -5.544003    23A     -1.505152    24A     -1.436966
      25A     -1.411887    26A     -1.398619    27A     -1.394540
      28A     -1.375838    29A     -1.364969    30A     -1.355073
      31A     -1.315747    32A     -1.121535    33A     -1.022877
      34A     -1.012124    35A     -1.005354    36A     -0.896355
      37A     -0.872781    38A     -0.861131    39A     -0.826852
      40A     -0.813371    41A     -0.757688    42A     -0.752586
      43A     -0.748275    44A     -0.736728    45A     -0.711503
      46A     -0.694433    47A     -0.683557    48A     -0.681940
      49A     -0.665041    50A     -0.663609    51A     -0.661082
      52A     -0.644821    53A     -0.637410    54A     -0.624387
      55A     -0.605025    56A     -0.600198    57A     -0.589510
      58A     -0.580804    59A     -0.570890    60A     -0.563277
      61A     -0.558624    62A     -0.551296    63A     -0.547268
      64A     -0.538448    65A     -0.534817    66A     -0.522968
      67A     -0.507669    68A     -0.500792    69A     -0.494635
      70A     -0.487806    71A     -0.466908    72A     -0.457046
      73A     -0.456607    74A     -0.452316    75A     -0.438683
      76A     -0.436215

  @DF-RHF Final Energy: -1327.82323709111938

   => Energetics <=

    Nuclear Repulsion Energy =           1776.9497391577549479
    One-Electron Energy =               -5365.2341555664370389
    Two-Electron Energy =                2260.4611793175622552
    Total Energy =                      -1327.8232370911196085
  Basis Set: (AUG-CC-PVTZ AUX)
    Blend: AUG-CC-PVTZ-RI
    Molecular point group: c1

    Geometry (in Angstrom), charge = 0, multiplicity = 1:

       Center              X                  Y                   Z               Mass
    ------------   -----------------  -----------------  -----------------  -----------------
         P           -2.291787483781    -0.932088859248     0.346490648385    30.973761998420
         O           -0.983844483781    -0.193607859248     0.940101648385    15.994914619570
         O            1.340558516219    -1.667528859248     1.232663648385    15.994914619570
         O            0.077013516219     2.367558140752     0.463980648385    15.994914619570
         O            3.066823516219    -2.179117859248    -0.806777351615    15.994914619570
         O            2.845643516219     2.511067140752     0.373347648385    15.994914619570
         O            4.193996516219     0.443351140752    -0.971061351615    15.994914619570
         O           -2.828554483781     0.041305140752    -0.805718351615    15.994914619570
         O           -3.260812483781    -0.715327859248     1.623483648385    15.994914619570
         O           -2.120684483781    -2.335689859248    -0.097855351615    15.994914619570
         C            0.116470516219     0.037963140752     0.018131648385    12.000000000000
         C            0.951600516219    -1.236250859248    -0.073912351615    12.000000000000
         C            0.896897516219     1.210598140752     0.566663648385    12.000000000000
         C            2.257968516219    -1.006352859248    -0.816224351615    12.000000000000
         C            2.175383516219     1.404426140752    -0.226228351615    12.000000000000
         C            3.024150516219     0.156659140752    -0.208509351615    12.000000000000
         C           -3.085299483781     1.248612740752    -0.530586351615    12.000000000000
         C           -3.538008483781     2.093119140752    -1.782306351615    12.000000000000
         H           -0.284783483781     0.306755140752    -0.968425351615     1.007825032230
         H            0.368577516219    -2.021409859248    -0.570219351615     1.007825032230
         H            1.155428516219     1.005831140752     1.613968648385     1.007825032230
         H            2.059242516219    -0.780705859248    -1.870943351615     1.007825032230
         H            1.915295516219     1.644241140752    -1.271770351615     1.007825032230
         H            3.294163516219    -0.086577859248     0.829458648385     1.007825032230
         H            0.520083516219    -1.880077859248     1.713322648385     1.007825032230
         H            0.663848516219     3.117265140752     0.684996648385     1.007825032230
         H            2.971851516219    -2.539419859248     0.096466648385     1.007825032230
         H            3.719737516219     2.557140140752    -0.057056351615     1.007825032230
         H            4.638035516219    -0.415879859248    -1.095274351615     1.007825032230
         H           -3.810086483781    -1.514383859248     1.736540648385     1.007825032230
         H           -3.932237483781     1.453495140752     0.251198648385     1.007825032230
         H           -2.231453483781     1.900834140752    -0.057283351615     1.007825032230
         H           -3.802212483781     3.138836140752    -1.600858351615     1.007825032230
         H           -2.718887483781     2.061277140752    -2.503062351615     1.007825032230
         H           -4.402635483781     1.582277140752    -2.210911351615     1.007825032230

  Basis Set: AUG-CC-PVTZ
    Blend: AUG-CC-PVTZ
  Basis Set: (AUG-CC-PVTZ AUX)
    Blend: AUG-CC-PVTZ-JKFIT
	 Reference Energy          =   -1327.8232370911193811 [Eh]
	 Singles Energy            =      -0.0000000000000000 [Eh]
	 Same-Spin Energy          =      -1.0156113330970564 [Eh]
	 Opposite-Spin Energy      =      -3.0762120187748296 [Eh]
	 Correlation Energy        =      -4.0918233518718861 [Eh]
	 Total Energy              =   -1331.9150604429912619 [Eh]

	 ================> DF-SCS-MP2 Energies <==================
	-----------------------------------------------------------
	 SCS Same-Spin Scale       =       0.3333333333333333 [-]
	 SCS Opposite-Spin Scale   =       1.2000000000000000 [-]
	 SCS Same-Spin Energy      =      -0.3385371110323521 [Eh]
	 SCS Opposite-Spin Energy  =      -3.6914544225297954 [Eh]
	 SCS Correlation Energy    =      -4.0299915335621472 [Eh]
	 SCS Total Energy          =   -1331.8532286246816057 [Eh]
	-----------------------------------------------------------

  Dipole Moment: [D]
     X:    -0.6980      Y:     0.9661      Z:     0.8608     Total:     1.4702

*** Psi4 exiting successfully. Buy a developer a beer!
