                               Psi4 1.3.2 release

  ==> Input File <==

--------------------------------------------------------------------------
#psi4
#
memory 32 gb

molecule  {
0 1
  P       -2.2900960    -0.9400430     0.3446780
  O       -0.9821530    -0.2015620     0.9382890
  O        1.3422500    -1.6754830     1.2308510
  O        0.0787050     2.3596040     0.4621680
  O        3.0685150    -2.1870720    -0.8085900
  O        2.8473350     2.5031130     0.3715350
  O        4.1956880     0.4353970    -0.9728740
  O       -2.8268630     0.0333510    -0.8075310
  O       -3.2591210    -0.7232820     1.6216710
  O       -2.1189930    -2.3436440    -0.0996680
  C        0.1181620     0.0300090     0.0163190
  C        0.9532920    -1.2442050    -0.0757250
  C        0.8985890     1.2026440     0.5648510
  C        2.2596600    -1.0143070    -0.8180370
  C        2.1377553     1.4056344    -0.1989311
  C        3.0258420     0.1487050    -0.2103220
  C       -3.1242130     1.4315980    -0.4888860
  C       -3.5363170     2.0851650    -1.7841190
  H       -0.2830920     0.2988010    -0.9702380
  H        0.3702690    -2.0293640    -0.5720320
  H        1.1571200     0.9978770     1.6121560
  H        2.0609340    -0.7886600    -1.8727560
  H        1.9169870     1.6362870    -1.2735830
  H        3.2958550    -0.0945320     0.8276460
  H        0.5217750    -1.8880320     1.7115100
  H        0.6655400     3.1093110     0.6831840
  H        2.9735430    -2.5473740     0.0946540
  H        3.7288915     2.5761586    -0.0394798
  H        4.6397270    -0.4238340    -1.0970870
  H       -3.8083950    -1.5223380     1.7347280
  H       -3.9305460     1.4455410     0.2493860
  H       -2.2297620     1.8928800    -0.0590960
  H       -3.8005210     3.1308820    -1.6026710
  H       -2.7171960     2.0533230    -2.5048750
  H       -4.4009440     1.5743230    -2.2127240
units angstrom
no_reorient  #important for SAPT in psi4, default
symmetry c1  #important for SAPT in psi4, default
}

set PROPERTIES_ORIGIN ["COM"]
properties('MP2/aug-cc-pvtz', properties = ['dipole'])
--------------------------------------------------------------------------

    Molecular point group: c1
  Charge       = 0
  Multiplicity = 1
  Basis Set: AUG-CC-PVTZ
    Blend: AUG-CC-PVTZ
  Basis Set: (AUG-CC-PVTZ AUX)
    Blend: AUG-CC-PVTZ-JKFIT

    Orbital Energies [Eh]
    ---------------------

    Doubly Occupied:

       1A    -80.117395     2A    -20.615074     3A    -20.607853
       4A    -20.599244     5A    -20.583185     6A    -20.574959
       7A    -20.573927     8A    -20.573701     9A    -20.573508
      10A    -20.523751    11A    -11.322180    12A    -11.303600
      13A    -11.299594    14A    -11.298518    15A    -11.298326
      16A    -11.297404    17A    -11.292217    18A    -11.229982
      19A     -7.632838    20A     -5.531344    21A     -5.530975
      22A     -5.529767    23A     -1.460801    24A     -1.410777
      25A     -1.393683    26A     -1.393395    27A     -1.387141
      28A     -1.372903    29A     -1.363087    30A     -1.352857
      31A     -1.304147    32A     -1.121125    33A     -1.040605
      34A     -1.009053    35A     -1.008491    36A     -0.882835
      37A     -0.865725    38A     -0.856808    39A     -0.823186
      40A     -0.810054    41A     -0.751939    42A     -0.744128
      43A     -0.731309    44A     -0.729381    45A     -0.709682
      46A     -0.687353    47A     -0.677777    48A     -0.673783
      49A     -0.663072    50A     -0.660640    51A     -0.645141
      52A     -0.636140    53A     -0.627061    54A     -0.614528
      55A     -0.604693    56A     -0.597972    57A     -0.581594
      58A     -0.575788    59A     -0.571323    60A     -0.558394
      61A     -0.554257    62A     -0.549273    63A     -0.541168
      64A     -0.534094    65A     -0.530307    66A     -0.523741
      67A     -0.512384    68A     -0.503919    69A     -0.498079
      70A     -0.485460    71A     -0.480205    72A     -0.476855
      73A     -0.465953    74A     -0.452219    75A     -0.447500
      76A     -0.434943

  @DF-RHF Final Energy: -1327.85891188822416

   => Energetics <=

    Nuclear Repulsion Energy =           1772.7806381784530458
    One-Electron Energy =               -5357.6829596576244512
    Two-Electron Energy =                2257.0434095909472489
    Total Energy =                      -1327.8589118882241564
  Basis Set: (AUG-CC-PVTZ AUX)
    Blend: AUG-CC-PVTZ-RI
    Molecular point group: c1

    Geometry (in Angstrom), charge = 0, multiplicity = 1:

       Center              X                  Y                   Z               Mass
    ------------   -----------------  -----------------  -----------------  -----------------
         P           -2.288484102058    -0.940519035844     0.343397499150    30.973761998420
         O           -0.980541102058    -0.202038035844     0.937008499150    15.994914619570
         O            1.343861897942    -1.675959035844     1.229570499150    15.994914619570
         O            0.080316897942     2.359127964156     0.460887499150    15.994914619570
         O            3.070126897942    -2.187548035844    -0.809870500850    15.994914619570
         O            2.848946897942     2.502636964156     0.370254499150    15.994914619570
         O            4.197299897942     0.434920964156    -0.974154500850    15.994914619570
         O           -2.825251102058     0.032874964156    -0.808811500850    15.994914619570
         O           -3.257509102058    -0.723758035844     1.620390499150    15.994914619570
         O           -2.117381102058    -2.344120035844    -0.100948500850    15.994914619570
         C            0.119773897942     0.029532964156     0.015038499150    12.000000000000
         C            0.954903897942    -1.244681035844    -0.077005500850    12.000000000000
         C            0.900200897942     1.202167964156     0.563570499150    12.000000000000
         C            2.261271897942    -1.014783035844    -0.819317500850    12.000000000000
         C            2.139367197942     1.405158364156    -0.200211600850    12.000000000000
         C            3.027453897942     0.148228964156    -0.211602500850    12.000000000000
         C           -3.122601102058     1.431121964156    -0.490166500850    12.000000000000
         C           -3.534705102058     2.084688964156    -1.785399500850    12.000000000000
         H           -0.281480102058     0.298324964156    -0.971518500850     1.007825032230
         H            0.371880897942    -2.029840035844    -0.573312500850     1.007825032230
         H            1.158731897942     0.997400964156     1.610875499150     1.007825032230
         H            2.062545897942    -0.789136035844    -1.874036500850     1.007825032230
         H            1.918598897942     1.635810964156    -1.274863500850     1.007825032230
         H            3.297466897942    -0.095008035844     0.826365499150     1.007825032230
         H            0.523386897942    -1.888508035844     1.710229499150     1.007825032230
         H            0.667151897942     3.108834964156     0.681903499150     1.007825032230
         H            2.975154897942    -2.547850035844     0.093373499150     1.007825032230
         H            3.730503397942     2.575682564156    -0.040760300850     1.007825032230
         H            4.641338897942    -0.424310035844    -1.098367500850     1.007825032230
         H           -3.806783102058    -1.522814035844     1.733447499150     1.007825032230
         H           -3.928934102058     1.445064964156     0.248105499150     1.007825032230
         H           -2.228150102058     1.892403964156    -0.060376500850     1.007825032230
         H           -3.798909102058     3.130405964156    -1.603951500850     1.007825032230
         H           -2.715584102058     2.052846964156    -2.506155500850     1.007825032230
         H           -4.399332102058     1.573846964156    -2.214004500850     1.007825032230

  Basis Set: AUG-CC-PVTZ
    Blend: AUG-CC-PVTZ
  Basis Set: (AUG-CC-PVTZ AUX)
    Blend: AUG-CC-PVTZ-JKFIT
	 Reference Energy          =   -1327.8589118882241564 [Eh]
	 Singles Energy            =      -0.0000000000000000 [Eh]
	 Same-Spin Energy          =      -1.0146061237402528 [Eh]
	 Opposite-Spin Energy      =      -3.0759121371940239 [Eh]
	 Correlation Energy        =      -4.0905182609342763 [Eh]
	 Total Energy              =   -1331.9494301491583883 [Eh]

	 ================> DF-SCS-MP2 Energies <==================
	-----------------------------------------------------------
	 SCS Same-Spin Scale       =       0.3333333333333333 [-]
	 SCS Opposite-Spin Scale   =       1.2000000000000000 [-]
	 SCS Same-Spin Energy      =      -0.3382020412467509 [Eh]
	 SCS Opposite-Spin Energy  =      -3.6910945646328286 [Eh]
	 SCS Correlation Energy    =      -4.0292966058795798 [Eh]
	 SCS Total Energy          =   -1331.8882084941037647 [Eh]
	-----------------------------------------------------------

  Dipole Moment: [D]
     X:    -1.1411      Y:     1.8947      Z:     0.7614     Total:     2.3392

*** Psi4 exiting successfully. Buy a developer a beer!
