                               Psi4 1.3.2 release

  ==> Input File <==

--------------------------------------------------------------------------
#psi4
#
memory 32 gb

molecule  {
0 1
  P       -2.2900960    -0.9400430     0.3446780
  O       -0.9821530    -0.2015620     0.9382890
  O        1.3422500    -1.6754830     1.2308510
  O        0.0787050     2.3596040     0.4621680
  O        3.0685150    -2.1870720    -0.8085900
  O        2.8473350     2.5031130     0.3715350
  O        4.1956880     0.4353970    -0.9728740
  O       -2.8268630     0.0333510    -0.8075310
  O       -3.2591210    -0.7232820     1.6216710
  O       -2.1189930    -2.3436440    -0.0996680
  C        0.1181620     0.0300090     0.0163190
  C        0.9532920    -1.2442050    -0.0757250
  C        0.8985890     1.2026440     0.5648510
  C        2.2596600    -1.0143070    -0.8180370
  C        2.1770750     1.3964720    -0.2280410
  C        2.9249969    -0.0043710    -0.2903096
  C       -3.1242130     1.4315980    -0.4888860
  C       -3.5363170     2.0851650    -1.7841190
  H       -0.2830920     0.2988010    -0.9702380
  H        0.3702690    -2.0293640    -0.5720320
  H        1.1571200     0.9978770     1.6121560
  H        2.0609340    -0.7886600    -1.8727560
  H        1.9169870     1.6362870    -1.2735830
  H        3.2958550    -0.0945320     0.8276460
  H        0.5217750    -1.8880320     1.7115100
  H        0.6655400     3.1093110     0.6831840
  H        2.9735430    -2.5473740     0.0946540
  H        3.7214290     2.5491860    -0.0588690
  H        4.6397270    -0.4238340    -1.0970870
  H       -3.8083950    -1.5223380     1.7347280
  H       -3.9305460     1.4455410     0.2493860
  H       -2.2297620     1.8928800    -0.0590960
  H       -3.8005210     3.1308820    -1.6026710
  H       -2.7171960     2.0533230    -2.5048750
  H       -4.4009440     1.5743230    -2.2127240
units angstrom
no_reorient  #important for SAPT in psi4, default
symmetry c1  #important for SAPT in psi4, default
}

set PROPERTIES_ORIGIN ["COM"]
properties('MP2/aug-cc-pvtz', properties = ['dipole'])
--------------------------------------------------------------------------

    Molecular point group: c1
  Charge       = 0
  Multiplicity = 1
  Basis Set: AUG-CC-PVTZ
    Blend: AUG-CC-PVTZ
  Basis Set: (AUG-CC-PVTZ AUX)
    Blend: AUG-CC-PVTZ-JKFIT

    Orbital Energies [Eh]
    ---------------------

    Doubly Occupied:

       1A    -80.118047     2A    -20.615612     3A    -20.608576
       4A    -20.599745     5A    -20.585592     6A    -20.582951
       7A    -20.576033     8A    -20.571806     9A    -20.569299
      10A    -20.524698    11A    -11.322630    12A    -11.309675
      13A    -11.303850    14A    -11.299848    15A    -11.296939
      16A    -11.296889    17A    -11.293154    18A    -11.230236
      19A     -7.633502    20A     -5.532007    21A     -5.531634
      22A     -5.530435    23A     -1.461456    24A     -1.413795
      25A     -1.396021    26A     -1.391684    27A     -1.387556
      28A     -1.370790    29A     -1.363455    30A     -1.340527
      31A     -1.305074    32A     -1.137389    33A     -1.042458
      34A     -1.035776    35A     -1.000725    36A     -0.891399
      37A     -0.867645    38A     -0.852531    39A     -0.821221
      40A     -0.811417    41A     -0.752649    42A     -0.745213
      43A     -0.731261    44A     -0.728794    45A     -0.709249
      46A     -0.691814    47A     -0.683266    48A     -0.674481
      49A     -0.663735    50A     -0.653159    51A     -0.644276
      52A     -0.630553    53A     -0.625206    54A     -0.618105
      55A     -0.605040    56A     -0.594568    57A     -0.582555
      58A     -0.576176    59A     -0.572274    60A     -0.561144
      61A     -0.556633    62A     -0.549215    63A     -0.542790
      64A     -0.537015    65A     -0.528022    66A     -0.521025
      67A     -0.512672    68A     -0.499982    69A     -0.496383
      70A     -0.481190    71A     -0.479664    72A     -0.476061
      73A     -0.468002    74A     -0.460480    75A     -0.449053
      76A     -0.433392

  @DF-RHF Final Energy: -1327.80634350267019

   => Energetics <=

    Nuclear Repulsion Energy =           1774.4814144705389936
    One-Electron Energy =               -5360.8571711863951350
    Two-Electron Energy =                2258.5694132131861807
    Total Energy =                      -1327.8063435026701882
  Basis Set: (AUG-CC-PVTZ AUX)
    Blend: AUG-CC-PVTZ-RI
    Molecular point group: c1

    Geometry (in Angstrom), charge = 0, multiplicity = 1:

       Center              X                  Y                   Z               Mass
    ------------   -----------------  -----------------  -----------------  -----------------
         P           -2.285894978071    -0.933666166728     0.348010101456    30.973761998420
         O           -0.977951978071    -0.195185166728     0.941621101456    15.994914619570
         O            1.346451021929    -1.669106166728     1.234183101456    15.994914619570
         O            0.082906021929     2.365980833272     0.465500101456    15.994914619570
         O            3.072716021929    -2.180695166728    -0.805257898544    15.994914619570
         O            2.851536021929     2.509489833272     0.374867101456    15.994914619570
         O            4.199889021929     0.441773833272    -0.969541898544    15.994914619570
         O           -2.822661978071     0.039727833272    -0.804198898544    15.994914619570
         O           -3.254919978071    -0.716905166728     1.625003101456    15.994914619570
         O           -2.114791978071    -2.337267166728    -0.096335898544    15.994914619570
         C            0.122363021929     0.036385833272     0.019651101456    12.000000000000
         C            0.957493021929    -1.237828166728    -0.072392898544    12.000000000000
         C            0.902790021929     1.209020833272     0.568183101456    12.000000000000
         C            2.263861021929    -1.007930166728    -0.814704898544    12.000000000000
         C            2.181276021929     1.402848833272    -0.224708898544    12.000000000000
         C            2.929197921929     0.002005833272    -0.286977498544    12.000000000000
         C           -3.120011978071     1.437974833272    -0.485553898544    12.000000000000
         C           -3.532115978071     2.091541833272    -1.780786898544    12.000000000000
         H           -0.278890978071     0.305177833272    -0.966905898544     1.007825032230
         H            0.374470021929    -2.022987166728    -0.568699898544     1.007825032230
         H            1.161321021929     1.004253833272     1.615488101456     1.007825032230
         H            2.065135021929    -0.782283166728    -1.869423898544     1.007825032230
         H            1.921188021929     1.642663833272    -1.270250898544     1.007825032230
         H            3.300056021929    -0.088155166728     0.830978101456     1.007825032230
         H            0.525976021929    -1.881655166728     1.714842101456     1.007825032230
         H            0.669741021929     3.115687833272     0.686516101456     1.007825032230
         H            2.977744021929    -2.540997166728     0.097986101456     1.007825032230
         H            3.725630021929     2.555562833272    -0.055536898544     1.007825032230
         H            4.643928021929    -0.417457166728    -1.093754898544     1.007825032230
         H           -3.804193978071    -1.515961166728     1.738060101456     1.007825032230
         H           -3.926344978071     1.451917833272     0.252718101456     1.007825032230
         H           -2.225560978071     1.899256833272    -0.055763898544     1.007825032230
         H           -3.796319978071     3.137258833272    -1.599338898544     1.007825032230
         H           -2.712994978071     2.059699833272    -2.501542898544     1.007825032230
         H           -4.396742978071     1.580699833272    -2.209391898544     1.007825032230

  Basis Set: AUG-CC-PVTZ
    Blend: AUG-CC-PVTZ
  Basis Set: (AUG-CC-PVTZ AUX)
    Blend: AUG-CC-PVTZ-JKFIT
	 Reference Energy          =   -1327.8063435026701882 [Eh]
	 Singles Energy            =      -0.0000000000000000 [Eh]
	 Same-Spin Energy          =      -1.0183277678237084 [Eh]
	 Opposite-Spin Energy      =      -3.0827596083817737 [Eh]
	 Correlation Energy        =      -4.1010873762054825 [Eh]
	 Total Energy              =   -1331.9074308788756298 [Eh]

	 ================> DF-SCS-MP2 Energies <==================
	-----------------------------------------------------------
	 SCS Same-Spin Scale       =       0.3333333333333333 [-]
	 SCS Opposite-Spin Scale   =       1.2000000000000000 [-]
	 SCS Same-Spin Energy      =      -0.3394425892745694 [Eh]
	 SCS Opposite-Spin Energy  =      -3.6993115300581283 [Eh]
	 SCS Correlation Energy    =      -4.0387541193326975 [Eh]
	 SCS Total Energy          =   -1331.8450976220028679 [Eh]
	-----------------------------------------------------------

  Dipole Moment: [D]
     X:    -1.3655      Y:     1.8290      Z:     0.7524     Total:     2.4033

*** Psi4 exiting successfully. Buy a developer a beer!
