                               Psi4 1.3.2 release

  ==> Input File <==

--------------------------------------------------------------------------
#psi4
#
memory 32 gb

molecule  {
0 1
  P       -2.2900960    -0.9400430     0.3446780
  O       -0.9821530    -0.2015620     0.9382890
  O        1.3422500    -1.6754830     1.2308510
  O        0.0787050     2.3596040     0.4621680
  O        3.0685150    -2.1870720    -0.8085900
  O        2.8473350     2.5031130     0.3715350
  O        4.1956880     0.4353970    -0.9728740
  O       -2.8268630     0.0333510    -0.8075310
  O       -3.2591210    -0.7232820     1.6216710
  O       -2.1189930    -2.3436440    -0.0996680
  C        0.1181620     0.0300090     0.0163190
  C        0.9532920    -1.2442050    -0.0757250
  C        0.8985890     1.2026440     0.5648510
  C        2.2596600    -1.0143070    -0.8180370
  C        2.1770750     1.3964720    -0.2280410
  C        3.0198744     0.1728543    -0.2108036
  C       -3.1242130     1.4315980    -0.4888860
  C       -3.5363170     2.0851650    -1.7841190
  H       -0.2830920     0.2988010    -0.9702380
  H        0.3702690    -2.0293640    -0.5720320
  H        1.1571200     0.9978770     1.6121560
  H        2.0609340    -0.7886600    -1.8727560
  H        1.9169870     1.6362870    -1.2735830
  H        3.2958550    -0.0945320     0.8276460
  H        0.5217750    -1.8880320     1.7115100
  H        0.6655400     3.1093110     0.6831840
  H        2.9735430    -2.5473740     0.0946540
  H        3.7214290     2.5491860    -0.0588690
  H        4.6520148    -0.4160394    -1.1059131
  H       -3.8083950    -1.5223380     1.7347280
  H       -3.9305460     1.4455410     0.2493860
  H       -2.2297620     1.8928800    -0.0590960
  H       -3.8005210     3.1308820    -1.6026710
  H       -2.7171960     2.0533230    -2.5048750
  H       -4.4009440     1.5743230    -2.2127240
units angstrom
no_reorient  #important for SAPT in psi4, default
symmetry c1  #important for SAPT in psi4, default
}

set PROPERTIES_ORIGIN ["COM"]
properties('MP2/aug-cc-pvtz', properties = ['dipole'])
--------------------------------------------------------------------------

    Molecular point group: c1
  Charge       = 0
  Multiplicity = 1
  Basis Set: AUG-CC-PVTZ
    Blend: AUG-CC-PVTZ
  Basis Set: (AUG-CC-PVTZ AUX)
    Blend: AUG-CC-PVTZ-JKFIT

    Orbital Energies [Eh]
    ---------------------

    Doubly Occupied:

       1A    -80.116928     2A    -20.614721     3A    -20.607044
       4A    -20.598950     5A    -20.582821     6A    -20.576761
       7A    -20.574871     8A    -20.573972     9A    -20.573146
      10A    -20.523373    11A    -11.320803    12A    -11.303039
      13A    -11.299705    14A    -11.299434    15A    -11.299320
      16A    -11.296270    17A    -11.291893    18A    -11.229903
      19A     -7.632377    20A     -5.530883    21A     -5.530511
      22A     -5.529308    23A     -1.460286    24A     -1.410614
      25A     -1.394843    26A     -1.392800    27A     -1.386830
      28A     -1.372292    29A     -1.364054    30A     -1.353456
      31A     -1.303772    32A     -1.119905    33A     -1.040514
      34A     -1.013636    35A     -1.003051    36A     -0.879796
      37A     -0.864830    38A     -0.860151    39A     -0.822221
      40A     -0.810346    41A     -0.751882    42A     -0.745302
      43A     -0.731691    44A     -0.728647    45A     -0.708111
      46A     -0.686479    47A     -0.678148    48A     -0.673916
      49A     -0.663850    50A     -0.660868    51A     -0.643262
      52A     -0.635793    53A     -0.627119    54A     -0.615359
      55A     -0.603625    56A     -0.597751    57A     -0.581183
      58A     -0.575545    59A     -0.570679    60A     -0.559433
      61A     -0.555995    62A     -0.548328    63A     -0.541127
      64A     -0.536245    65A     -0.529741    66A     -0.521752
      67A     -0.513097    68A     -0.503875    69A     -0.497189
      70A     -0.484865    71A     -0.479836    72A     -0.476518
      73A     -0.462689    74A     -0.458835    75A     -0.450087
      76A     -0.432995

  @DF-RHF Final Energy: -1327.86088983608715

   => Energetics <=

    Nuclear Repulsion Energy =           1772.4986597277079454
    One-Electron Energy =               -5357.1366058321473247
    Two-Electron Energy =                2256.7770562683522257
    Total Energy =                      -1327.8608898360871535
  Basis Set: (AUG-CC-PVTZ AUX)
    Blend: AUG-CC-PVTZ-RI
    Molecular point group: c1

    Geometry (in Angstrom), charge = 0, multiplicity = 1:

       Center              X                  Y                   Z               Mass
    ------------   -----------------  -----------------  -----------------  -----------------
         P           -2.289890360563    -0.941076260601     0.344728932631    30.973761998420
         O           -0.981947360563    -0.202595260601     0.938339932631    15.994914619570
         O            1.342455639437    -1.676516260601     1.230901932631    15.994914619570
         O            0.078910639437     2.358570739399     0.462218932631    15.994914619570
         O            3.068720639437    -2.188105260601    -0.808539067369    15.994914619570
         O            2.847540639437     2.502079739399     0.371585932631    15.994914619570
         O            4.195893639437     0.434363739399    -0.972823067369    15.994914619570
         O           -2.826657360563     0.032317739399    -0.807480067369    15.994914619570
         O           -3.258915360563    -0.724315260601     1.621721932631    15.994914619570
         O           -2.118787360563    -2.344677260601    -0.099617067369    15.994914619570
         C            0.118367639437     0.028975739399     0.016369932631    12.000000000000
         C            0.953497639437    -1.245238260601    -0.075674067369    12.000000000000
         C            0.898794639437     1.201610739399     0.564901932631    12.000000000000
         C            2.259865639437    -1.015340260601    -0.817986067369    12.000000000000
         C            2.177280639437     1.395438739399    -0.227990067369    12.000000000000
         C            3.020080039437     0.171821039399    -0.210752667369    12.000000000000
         C           -3.124007360563     1.430564739399    -0.488835067369    12.000000000000
         C           -3.536111360563     2.084131739399    -1.784068067369    12.000000000000
         H           -0.282886360563     0.297767739399    -0.970187067369     1.007825032230
         H            0.370474639437    -2.030397260601    -0.571981067369     1.007825032230
         H            1.157325639437     0.996843739399     1.612206932631     1.007825032230
         H            2.061139639437    -0.789693260601    -1.872705067369     1.007825032230
         H            1.917192639437     1.635253739399    -1.273532067369     1.007825032230
         H            3.296060639437    -0.095565260601     0.827696932631     1.007825032230
         H            0.521980639437    -1.889065260601     1.711560932631     1.007825032230
         H            0.665745639437     3.108277739399     0.683234932631     1.007825032230
         H            2.973748639437    -2.548407260601     0.094704932631     1.007825032230
         H            3.721634639437     2.548152739399    -0.058818067369     1.007825032230
         H            4.652220439437    -0.417072660601    -1.105862167369     1.007825032230
         H           -3.808189360563    -1.523371260601     1.734778932631     1.007825032230
         H           -3.930340360563     1.444507739399     0.249436932631     1.007825032230
         H           -2.229556360563     1.891846739399    -0.059045067369     1.007825032230
         H           -3.800315360563     3.129848739399    -1.602620067369     1.007825032230
         H           -2.716990360563     2.052289739399    -2.504824067369     1.007825032230
         H           -4.400738360563     1.573289739399    -2.212673067369     1.007825032230

  Basis Set: AUG-CC-PVTZ
    Blend: AUG-CC-PVTZ
  Basis Set: (AUG-CC-PVTZ AUX)
    Blend: AUG-CC-PVTZ-JKFIT
	 Reference Energy          =   -1327.8608898360871535 [Eh]
	 Singles Energy            =      -0.0000000000000000 [Eh]
	 Same-Spin Energy          =      -1.0146176319003275 [Eh]
	 Opposite-Spin Energy      =      -3.0760098678282337 [Eh]
	 Correlation Energy        =      -4.0906274997285612 [Eh]
	 Total Energy              =   -1331.9515173358156517 [Eh]

	 ================> DF-SCS-MP2 Energies <==================
	-----------------------------------------------------------
	 SCS Same-Spin Scale       =       0.3333333333333333 [-]
	 SCS Opposite-Spin Scale   =       1.2000000000000000 [-]
	 SCS Same-Spin Energy      =      -0.3382058773001091 [Eh]
	 SCS Opposite-Spin Energy  =      -3.6912118413938804 [Eh]
	 SCS Correlation Energy    =      -4.0294177186939892 [Eh]
	 SCS Total Energy          =   -1331.8903075547812023 [Eh]
	-----------------------------------------------------------

  Dipole Moment: [D]
     X:    -1.1060      Y:     1.8763      Z:     0.7099     Total:     2.2908

*** Psi4 exiting successfully. Buy a developer a beer!
