                               Psi4 1.3.2 release

  ==> Input File <==

--------------------------------------------------------------------------
#psi4
#
memory 32 gb

molecule  {
0 1
  P       -2.2900960    -0.9400430     0.3446780
  O       -0.9821530    -0.2015620     0.9382890
  O        1.3422500    -1.6754830     1.2308510
  O        0.0787050     2.3596040     0.4621680
  O        3.0685150    -2.1870720    -0.8085900
  O        2.8473350     2.5031130     0.3715350
  O        4.1956880     0.4353970    -0.9728740
  O       -2.8268630     0.0333510    -0.8075310
  O       -3.2591210    -0.7232820     1.6216710
  O       -2.1189930    -2.3436440    -0.0996680
  C        0.1181620     0.0300090     0.0163190
  C        0.9532920    -1.2442050    -0.0757250
  C        0.8985890     1.2026440     0.5648510
  C        2.2596600    -1.0143070    -0.8180370
  C        2.1770750     1.3964720    -0.2280410
  C        3.0258420     0.1487050    -0.2103220
  C       -3.1242130     1.4315980    -0.4888860
  C       -3.5363170     2.0851650    -1.7841190
  H       -0.2830920     0.2988010    -0.9702380
  H        0.3702690    -2.0293640    -0.5720320
  H        1.1571200     0.9978770     1.6121560
  H        2.0609340    -0.7886600    -1.8727560
  H        1.9169870     1.6362870    -1.2735830
  H        3.2958550    -0.0945320     0.8276460
  H        0.5217750    -1.8880320     1.7115100
  H        0.6655400     3.1093110     0.6831840
  H        2.9832630    -2.5104986     0.0022109
  H        3.7214290     2.5491860    -0.0588690
  H        4.6397270    -0.4238340    -1.0970870
  H       -3.8083950    -1.5223380     1.7347280
  H       -3.9305460     1.4455410     0.2493860
  H       -2.2297620     1.8928800    -0.0590960
  H       -3.8005210     3.1308820    -1.6026710
  H       -2.7171960     2.0533230    -2.5048750
  H       -4.4009440     1.5743230    -2.2127240
units angstrom
no_reorient  #important for SAPT in psi4, default
symmetry c1  #important for SAPT in psi4, default
}

set PROPERTIES_ORIGIN ["COM"]
properties('MP2/aug-cc-pvtz', properties = ['dipole'])
--------------------------------------------------------------------------

    Molecular point group: c1
  Charge       = 0
  Multiplicity = 1
  Basis Set: AUG-CC-PVTZ
    Blend: AUG-CC-PVTZ
  Basis Set: (AUG-CC-PVTZ AUX)
    Blend: AUG-CC-PVTZ-JKFIT

    Orbital Energies [Eh]
    ---------------------

    Doubly Occupied:

       1A    -80.117010     2A    -20.614761     3A    -20.607193
       4A    -20.599023     5A    -20.582148     6A    -20.577239
       7A    -20.574864     8A    -20.573711     9A    -20.566930
      10A    -20.523473    11A    -11.321051    12A    -11.303985
      13A    -11.300737    14A    -11.299473    15A    -11.298913
      16A    -11.297235    17A    -11.292301    18A    -11.229955
      19A     -7.632460    20A     -5.530965    21A     -5.530593
      22A     -5.529390    23A     -1.460384    24A     -1.418808
      25A     -1.400497    26A     -1.394800    27A     -1.387102
      28A     -1.372887    29A     -1.372166    30A     -1.357044
      31A     -1.303869    32A     -1.120762    33A     -1.040579
      34A     -1.013630    35A     -1.006414    36A     -0.880725
      37A     -0.865164    38A     -0.864872    39A     -0.823802
      40A     -0.812789    41A     -0.753014    42A     -0.745998
      43A     -0.732983    44A     -0.728918    45A     -0.709800
      46A     -0.687815    47A     -0.687414    48A     -0.673948
      49A     -0.665644    50A     -0.662381    51A     -0.643401
      52A     -0.635566    53A     -0.628346    54A     -0.616215
      55A     -0.604147    56A     -0.600035    57A     -0.582237
      58A     -0.575732    59A     -0.570890    60A     -0.560158
      61A     -0.558799    62A     -0.548597    63A     -0.541811
      64A     -0.538136    65A     -0.530457    66A     -0.523479
      67A     -0.513984    68A     -0.505861    69A     -0.497525
      70A     -0.485331    71A     -0.479892    72A     -0.476690
      73A     -0.462888    74A     -0.456645    75A     -0.450596
      76A     -0.437758

  @DF-RHF Final Energy: -1327.85678931037228

   => Energetics <=

    Nuclear Repulsion Energy =           1773.0515890147134996
    One-Electron Energy =               -5358.0711732083300376
    Two-Electron Energy =                2257.1627948832442598
    Total Energy =                      -1327.8567893103722781
  Basis Set: (AUG-CC-PVTZ AUX)
    Blend: AUG-CC-PVTZ-RI
    Molecular point group: c1

    Geometry (in Angstrom), charge = 0, multiplicity = 1:

       Center              X                  Y                   Z               Mass
    ------------   -----------------  -----------------  -----------------  -----------------
         P           -2.290129974056    -0.940171996489     0.345001416933    30.973761998420
         O           -0.982186974056    -0.201690996489     0.938612416933    15.994914619570
         O            1.342216025944    -1.675611996489     1.231174416933    15.994914619570
         O            0.078671025944     2.359475003511     0.462491416933    15.994914619570
         O            3.068481025944    -2.187200996489    -0.808266583067    15.994914619570
         O            2.847301025944     2.502984003511     0.371858416933    15.994914619570
         O            4.195654025944     0.435268003511    -0.972550583067    15.994914619570
         O           -2.826896974056     0.033222003511    -0.807207583067    15.994914619570
         O           -3.259154974056    -0.723410996489     1.621994416933    15.994914619570
         O           -2.119026974056    -2.343772996489    -0.099344583067    15.994914619570
         C            0.118128025944     0.029880003511     0.016642416933    12.000000000000
         C            0.953258025944    -1.244333996489    -0.075401583067    12.000000000000
         C            0.898555025944     1.202515003511     0.565174416933    12.000000000000
         C            2.259626025944    -1.014435996489    -0.817713583067    12.000000000000
         C            2.177041025944     1.396343003511    -0.227717583067    12.000000000000
         C            3.025808025944     0.148576003511    -0.209998583067    12.000000000000
         C           -3.124246974056     1.431469003511    -0.488562583067    12.000000000000
         C           -3.536350974056     2.085036003511    -1.783795583067    12.000000000000
         H           -0.283125974056     0.298672003511    -0.969914583067     1.007825032230
         H            0.370235025944    -2.029492996489    -0.571708583067     1.007825032230
         H            1.157086025944     0.997748003511     1.612479416933     1.007825032230
         H            2.060900025944    -0.788788996489    -1.872432583067     1.007825032230
         H            1.916953025944     1.636158003511    -1.273259583067     1.007825032230
         H            3.295821025944    -0.094660996489     0.827969416933     1.007825032230
         H            0.521741025944    -1.888160996489     1.711833416933     1.007825032230
         H            0.665506025944     3.109182003511     0.683507416933     1.007825032230
         H            2.983229025944    -2.510627596489     0.002534316933     1.007825032230
         H            3.721395025944     2.549057003511    -0.058545583067     1.007825032230
         H            4.639693025944    -0.423962996489    -1.096763583067     1.007825032230
         H           -3.808428974056    -1.522466996489     1.735051416933     1.007825032230
         H           -3.930579974056     1.445412003511     0.249709416933     1.007825032230
         H           -2.229795974056     1.892751003511    -0.058772583067     1.007825032230
         H           -3.800554974056     3.130753003511    -1.602347583067     1.007825032230
         H           -2.717229974056     2.053194003511    -2.504551583067     1.007825032230
         H           -4.400977974056     1.574194003511    -2.212400583067     1.007825032230

  Basis Set: AUG-CC-PVTZ
    Blend: AUG-CC-PVTZ
  Basis Set: (AUG-CC-PVTZ AUX)
    Blend: AUG-CC-PVTZ-JKFIT
	 Reference Energy          =   -1327.8567893103722781 [Eh]
	 Singles Energy            =      -0.0000000000000000 [Eh]
	 Same-Spin Energy          =      -1.0132515567541769 [Eh]
	 Opposite-Spin Energy      =      -3.0730522512483027 [Eh]
	 Correlation Energy        =      -4.0863038080024801 [Eh]
	 Total Energy              =   -1331.9430931183746907 [Eh]

	 ================> DF-SCS-MP2 Energies <==================
	-----------------------------------------------------------
	 SCS Same-Spin Scale       =       0.3333333333333333 [-]
	 SCS Opposite-Spin Scale   =       1.2000000000000000 [-]
	 SCS Same-Spin Energy      =      -0.3377505189180590 [Eh]
	 SCS Opposite-Spin Energy  =      -3.6876627014979633 [Eh]
	 SCS Correlation Energy    =      -4.0254132204160218 [Eh]
	 SCS Total Energy          =   -1331.8822025307883905 [Eh]
	-----------------------------------------------------------

  Dipole Moment: [D]
     X:    -1.1025      Y:     1.9260      Z:     0.6313     Total:     2.3073

*** Psi4 exiting successfully. Buy a developer a beer!
