                               Psi4 1.3.2 release

  ==> Input File <==

--------------------------------------------------------------------------
#psi4
#
memory 32 gb

molecule  {
0 1
  P       -2.2900960    -0.9400430     0.3446780
  O       -0.9755809    -0.2443656     0.9743811
  O        1.3422500    -1.6754830     1.2308510
  O        0.0787050     2.3596040     0.4621680
  O        3.0685150    -2.1870720    -0.8085900
  O        2.8473350     2.5031130     0.3715350
  O        4.1956880     0.4353970    -0.9728740
  O       -2.8683679    -0.0027583    -0.8173458
  O       -3.2591210    -0.7232820     1.6216710
  O       -2.1189930    -2.3436440    -0.0996680
  C        0.1181620     0.0300090     0.0163190
  C        0.9532920    -1.2442050    -0.0757250
  C        0.8985890     1.2026440     0.5648510
  C        2.2596600    -1.0143070    -0.8180370
  C        2.1770750     1.3964720    -0.2280410
  C        3.0258420     0.1487050    -0.2103220
  C       -3.1242130     1.4315980    -0.4888860
  C       -3.5363170     2.0851650    -1.7841190
  H       -0.2830920     0.2988010    -0.9702380
  H        0.3702690    -2.0293640    -0.5720320
  H        1.1571200     0.9978770     1.6121560
  H        2.0609340    -0.7886600    -1.8727560
  H        1.9169870     1.6362870    -1.2735830
  H        3.2958550    -0.0945320     0.8276460
  H        0.5217750    -1.8880320     1.7115100
  H        0.6655400     3.1093110     0.6831840
  H        2.9735430    -2.5473740     0.0946540
  H        3.7214290     2.5491860    -0.0588690
  H        4.6397270    -0.4238340    -1.0970870
  H       -3.8083950    -1.5223380     1.7347280
  H       -3.9305460     1.4455410     0.2493860
  H       -2.2297620     1.8928800    -0.0590960
  H       -3.8005210     3.1308820    -1.6026710
  H       -2.7171960     2.0533230    -2.5048750
  H       -4.4009440     1.5743230    -2.2127240
units angstrom
no_reorient  #important for SAPT in psi4, default
symmetry c1  #important for SAPT in psi4, default
}

set PROPERTIES_ORIGIN ["COM"]
properties('MP2/aug-cc-pvtz', properties = ['dipole'])
--------------------------------------------------------------------------

    Molecular point group: c1
  Charge       = 0
  Multiplicity = 1
  Basis Set: AUG-CC-PVTZ
    Blend: AUG-CC-PVTZ
  Basis Set: (AUG-CC-PVTZ AUX)
    Blend: AUG-CC-PVTZ-JKFIT

    Orbital Energies [Eh]
    ---------------------

    Doubly Occupied:

       1A    -80.113519     2A    -20.610248     3A    -20.609403
       4A    -20.601557     5A    -20.582517     6A    -20.578107
       7A    -20.575483     8A    -20.574843     9A    -20.574778
      10A    -20.517452    11A    -11.324608    12A    -11.304072
      13A    -11.303917    14A    -11.300918    15A    -11.299777
      16A    -11.298330    17A    -11.292246    18A    -11.232129
      19A     -7.629175    20A     -5.527715    21A     -5.527144
      22A     -5.526143    23A     -1.455708    24A     -1.410245
      25A     -1.394912    26A     -1.391522    27A     -1.381782
      28A     -1.372096    29A     -1.364813    30A     -1.354499
      31A     -1.298366    32A     -1.120581    33A     -1.042190
      34A     -1.013076    35A     -1.004367    36A     -0.877323
      37A     -0.864654    38A     -0.859825    39A     -0.822457
      40A     -0.811592    41A     -0.751902    42A     -0.744279
      43A     -0.730383    44A     -0.726394    45A     -0.706443
      46A     -0.687483    47A     -0.677474    48A     -0.672486
      49A     -0.662535    50A     -0.659434    51A     -0.642002
      52A     -0.636069    53A     -0.624589    54A     -0.614188
      55A     -0.603945    56A     -0.599263    57A     -0.581554
      58A     -0.572450    59A     -0.571416    60A     -0.559935
      61A     -0.556439    62A     -0.549610    63A     -0.540128
      64A     -0.537157    65A     -0.531843    66A     -0.522831
      67A     -0.515857    68A     -0.505906    69A     -0.497405
      70A     -0.488312    71A     -0.480539    72A     -0.471639
      73A     -0.462301    74A     -0.457088    75A     -0.450991
      76A     -0.436598

  @DF-RHF Final Energy: -1327.85747936478901

   => Energetics <=

    Nuclear Repulsion Energy =           1770.4686563600268983
    One-Electron Energy =               -5353.1063561490600478
    Two-Electron Energy =                2254.7802204242439075
    Total Energy =                      -1327.8574793647890147
  Basis Set: (AUG-CC-PVTZ AUX)
    Blend: AUG-CC-PVTZ-RI
    Molecular point group: c1

    Geometry (in Angstrom), charge = 0, multiplicity = 1:

       Center              X                  Y                   Z               Mass
    ------------   -----------------  -----------------  -----------------  -----------------
         P           -2.288156283848    -0.935661254101     0.343218913901    30.973761998420
         O           -0.973641183848    -0.239983854101     0.972922013901    15.994914619570
         O            1.344189716152    -1.671101254101     1.229391913901    15.994914619570
         O            0.080644716152     2.363985745899     0.460708913901    15.994914619570
         O            3.070454716152    -2.182690254101    -0.810049086099    15.994914619570
         O            2.849274716152     2.507494745899     0.370075913901    15.994914619570
         O            4.197627716152     0.439778745899    -0.974333086099    15.994914619570
         O           -2.866428183848     0.001623445899    -0.818804886099    15.994914619570
         O           -3.257181283848    -0.718900254101     1.620211913901    15.994914619570
         O           -2.117053283848    -2.339262254101    -0.101127086099    15.994914619570
         C            0.120101716152     0.034390745899     0.014859913901    12.000000000000
         C            0.955231716152    -1.239823254101    -0.077184086099    12.000000000000
         C            0.900528716152     1.207025745899     0.563391913901    12.000000000000
         C            2.261599716152    -1.009925254101    -0.819496086099    12.000000000000
         C            2.179014716152     1.400853745899    -0.229500086099    12.000000000000
         C            3.027781716152     0.153086745899    -0.211781086099    12.000000000000
         C           -3.122273283848     1.435979745899    -0.490345086099    12.000000000000
         C           -3.534377283848     2.089546745899    -1.785578086099    12.000000000000
         H           -0.281152283848     0.303182745899    -0.971697086099     1.007825032230
         H            0.372208716152    -2.024982254101    -0.573491086099     1.007825032230
         H            1.159059716152     1.002258745899     1.610696913901     1.007825032230
         H            2.062873716152    -0.784278254101    -1.874215086099     1.007825032230
         H            1.918926716152     1.640668745899    -1.275042086099     1.007825032230
         H            3.297794716152    -0.090150254101     0.826186913901     1.007825032230
         H            0.523714716152    -1.883650254101     1.710050913901     1.007825032230
         H            0.667479716152     3.113692745899     0.681724913901     1.007825032230
         H            2.975482716152    -2.542992254101     0.093194913901     1.007825032230
         H            3.723368716152     2.553567745899    -0.060328086099     1.007825032230
         H            4.641666716152    -0.419452254101    -1.098546086099     1.007825032230
         H           -3.806455283848    -1.517956254101     1.733268913901     1.007825032230
         H           -3.928606283848     1.449922745899     0.247926913901     1.007825032230
         H           -2.227822283848     1.897261745899    -0.060555086099     1.007825032230
         H           -3.798581283848     3.135263745899    -1.604130086099     1.007825032230
         H           -2.715256283848     2.057704745899    -2.506334086099     1.007825032230
         H           -4.399004283848     1.578704745899    -2.214183086099     1.007825032230

  Basis Set: AUG-CC-PVTZ
    Blend: AUG-CC-PVTZ
  Basis Set: (AUG-CC-PVTZ AUX)
    Blend: AUG-CC-PVTZ-JKFIT
	 Reference Energy          =   -1327.8574793647890147 [Eh]
	 Singles Energy            =      -0.0000000000000000 [Eh]
	 Same-Spin Energy          =      -1.0148564361065562 [Eh]
	 Opposite-Spin Energy      =      -3.0773173363860060 [Eh]
	 Correlation Energy        =      -4.0921737724925622 [Eh]
	 Total Energy              =   -1331.9496531372815298 [Eh]

	 ================> DF-SCS-MP2 Energies <==================
	-----------------------------------------------------------
	 SCS Same-Spin Scale       =       0.3333333333333333 [-]
	 SCS Opposite-Spin Scale   =       1.2000000000000000 [-]
	 SCS Same-Spin Energy      =      -0.3382854787021854 [Eh]
	 SCS Opposite-Spin Energy  =      -3.6927808036632070 [Eh]
	 SCS Correlation Energy    =      -4.0310662823653924 [Eh]
	 SCS Total Energy          =   -1331.8885456471543876 [Eh]
	-----------------------------------------------------------

  Dipole Moment: [D]
     X:    -0.9769      Y:     2.1672      Z:     0.6210     Total:     2.4569

*** Psi4 exiting successfully. Buy a developer a beer!
