                               Psi4 1.3.2 release

  ==> Input File <==

--------------------------------------------------------------------------
#psi4
#
memory 32 gb

molecule  {
0 1
  P       -2.2900960    -0.9400430     0.3446780
  O       -0.9821530    -0.2015620     0.9382890
  O        1.3422500    -1.6754830     1.2308510
  O        0.0787050     2.3596040     0.4621680
  O        3.0685150    -2.1870720    -0.8085900
  O        2.8473350     2.5031130     0.3715350
  O        4.1956880     0.4353970    -0.9728740
  O       -2.8276470    -0.0101694    -0.8425770
  O       -3.2591210    -0.7232820     1.6216710
  O       -2.1354117    -2.3297926    -0.1467323
  C        0.1181620     0.0300090     0.0163190
  C        0.9532920    -1.2442050    -0.0757250
  C        0.8985890     1.2026440     0.5648510
  C        2.2596600    -1.0143070    -0.8180370
  C        2.1770750     1.3964720    -0.2280410
  C        3.0258420     0.1487050    -0.2103220
  C       -3.1242130     1.4315980    -0.4888860
  C       -3.5363170     2.0851650    -1.7841190
  H       -0.2830920     0.2988010    -0.9702380
  H        0.3702690    -2.0293640    -0.5720320
  H        1.1571200     0.9978770     1.6121560
  H        2.0609340    -0.7886600    -1.8727560
  H        1.9169870     1.6362870    -1.2735830
  H        3.2958550    -0.0945320     0.8276460
  H        0.5217750    -1.8880320     1.7115100
  H        0.6655400     3.1093110     0.6831840
  H        2.9735430    -2.5473740     0.0946540
  H        3.7214290     2.5491860    -0.0588690
  H        4.6397270    -0.4238340    -1.0970870
  H       -3.8083950    -1.5223380     1.7347280
  H       -3.9305460     1.4455410     0.2493860
  H       -2.2297620     1.8928800    -0.0590960
  H       -3.8005210     3.1308820    -1.6026710
  H       -2.7171960     2.0533230    -2.5048750
  H       -4.4009440     1.5743230    -2.2127240
units angstrom
no_reorient  #important for SAPT in psi4, default
symmetry c1  #important for SAPT in psi4, default
}

set PROPERTIES_ORIGIN ["COM"]
properties('MP2/aug-cc-pvtz', properties = ['dipole'])
--------------------------------------------------------------------------

    Molecular point group: c1
  Charge       = 0
  Multiplicity = 1
  Basis Set: AUG-CC-PVTZ
    Blend: AUG-CC-PVTZ
  Basis Set: (AUG-CC-PVTZ AUX)
    Blend: AUG-CC-PVTZ-JKFIT

    Orbital Energies [Eh]
    ---------------------

    Doubly Occupied:

       1A    -80.113949     2A    -20.616606     3A    -20.608888
       4A    -20.597273     5A    -20.583429     6A    -20.577080
       7A    -20.574614     8A    -20.574206     9A    -20.574198
      10A    -20.517893    11A    -11.320982    12A    -11.303859
      13A    -11.303531    14A    -11.299370    15A    -11.299079
      16A    -11.296993    17A    -11.291589    18A    -11.231315
      19A     -7.629600    20A     -5.528089    21A     -5.527576
      22A     -5.526608    23A     -1.458038    24A     -1.410765
      25A     -1.395198    26A     -1.393485    27A     -1.379434
      28A     -1.371589    29A     -1.364282    30A     -1.354014
      31A     -1.298411    32A     -1.119309    33A     -1.040830
      34A     -1.012422    35A     -1.003655    36A     -0.879046
      37A     -0.862262    38A     -0.859254    39A     -0.822468
      40A     -0.810756    41A     -0.751990    42A     -0.744837
      43A     -0.730852    44A     -0.724751    45A     -0.707922
      46A     -0.686704    47A     -0.677307    48A     -0.671451
      49A     -0.662402    50A     -0.659886    51A     -0.643360
      52A     -0.635235    53A     -0.625787    54A     -0.612495
      55A     -0.604130    56A     -0.598597    57A     -0.580607
      58A     -0.574125    59A     -0.570760    60A     -0.559242
      61A     -0.556216    62A     -0.547679    63A     -0.539583
      64A     -0.536316    65A     -0.530247    66A     -0.522488
      67A     -0.516006    68A     -0.504987    69A     -0.498705
      70A     -0.486702    71A     -0.479074    72A     -0.471552
      73A     -0.461771    74A     -0.456157    75A     -0.450066
      76A     -0.436175

  @DF-RHF Final Energy: -1327.85758759436658

   => Energetics <=

    Nuclear Repulsion Energy =           1771.3590616298138229
    One-Electron Energy =               -5354.9370812224069596
    Two-Electron Energy =                2255.7204319982265588
    Total Energy =                      -1327.8575875943665778
  Basis Set: (AUG-CC-PVTZ AUX)
    Blend: AUG-CC-PVTZ-RI
    Molecular point group: c1

    Geometry (in Angstrom), charge = 0, multiplicity = 1:

       Center              X                  Y                   Z               Mass
    ------------   -----------------  -----------------  -----------------  -----------------
         P           -2.289140767748    -0.938395577469     0.349237258254    30.973761998420
         O           -0.981197767748    -0.199914577469     0.942848258254    15.994914619570
         O            1.343205232252    -1.673835577469     1.235410258254    15.994914619570
         O            0.079660232252     2.361251422531     0.466727258254    15.994914619570
         O            3.069470232252    -2.185424577469    -0.804030741746    15.994914619570
         O            2.848290232252     2.504760422531     0.376094258254    15.994914619570
         O            4.196643232252     0.437044422531    -0.968314741746    15.994914619570
         O           -2.826691767748    -0.008521977469    -0.838017741746    15.994914619570
         O           -3.258165767748    -0.721634577469     1.626230258254    15.994914619570
         O           -2.134456467748    -2.328145177469    -0.142173041746    15.994914619570
         C            0.119117232252     0.031656422531     0.020878258254    12.000000000000
         C            0.954247232252    -1.242557577469    -0.071165741746    12.000000000000
         C            0.899544232252     1.204291422531     0.569410258254    12.000000000000
         C            2.260615232252    -1.012659577469    -0.813477741746    12.000000000000
         C            2.178030232252     1.398119422531    -0.223481741746    12.000000000000
         C            3.026797232252     0.150352422531    -0.205762741746    12.000000000000
         C           -3.123257767748     1.433245422531    -0.484326741746    12.000000000000
         C           -3.535361767748     2.086812422531    -1.779559741746    12.000000000000
         H           -0.282136767748     0.300448422531    -0.965678741746     1.007825032230
         H            0.371224232252    -2.027716577469    -0.567472741746     1.007825032230
         H            1.158075232252     0.999524422531     1.616715258254     1.007825032230
         H            2.061889232252    -0.787012577469    -1.868196741746     1.007825032230
         H            1.917942232252     1.637934422531    -1.269023741746     1.007825032230
         H            3.296810232252    -0.092884577469     0.832205258254     1.007825032230
         H            0.522730232252    -1.886384577469     1.716069258254     1.007825032230
         H            0.666495232252     3.110958422531     0.687743258254     1.007825032230
         H            2.974498232252    -2.545726577469     0.099213258254     1.007825032230
         H            3.722384232252     2.550833422531    -0.054309741746     1.007825032230
         H            4.640682232252    -0.422186577469    -1.092527741746     1.007825032230
         H           -3.807439767748    -1.520690577469     1.739287258254     1.007825032230
         H           -3.929590767748     1.447188422531     0.253945258254     1.007825032230
         H           -2.228806767748     1.894527422531    -0.054536741746     1.007825032230
         H           -3.799565767748     3.132529422531    -1.598111741746     1.007825032230
         H           -2.716240767748     2.054970422531    -2.500315741746     1.007825032230
         H           -4.399988767748     1.575970422531    -2.208164741746     1.007825032230

  Basis Set: AUG-CC-PVTZ
    Blend: AUG-CC-PVTZ
  Basis Set: (AUG-CC-PVTZ AUX)
    Blend: AUG-CC-PVTZ-JKFIT
	 Reference Energy          =   -1327.8575875943665778 [Eh]
	 Singles Energy            =      -0.0000000000000000 [Eh]
	 Same-Spin Energy          =      -1.0148823177924942 [Eh]
	 Opposite-Spin Energy      =      -3.0773336842842656 [Eh]
	 Correlation Energy        =      -4.0922160020767597 [Eh]
	 Total Energy              =   -1331.9498035964434166 [Eh]

	 ================> DF-SCS-MP2 Energies <==================
	-----------------------------------------------------------
	 SCS Same-Spin Scale       =       0.3333333333333333 [-]
	 SCS Opposite-Spin Scale   =       1.2000000000000000 [-]
	 SCS Same-Spin Energy      =      -0.3382941059308314 [Eh]
	 SCS Opposite-Spin Energy  =      -3.6928004211411185 [Eh]
	 SCS Correlation Energy    =      -4.0310945270719500 [Eh]
	 SCS Total Energy          =   -1331.8886821214384781 [Eh]
	-----------------------------------------------------------

  Dipole Moment: [D]
     X:    -1.0892      Y:     2.0381      Z:     0.8855     Total:     2.4748

*** Psi4 exiting successfully. Buy a developer a beer!
