                               Psi4 1.3.2 release

  ==> Input File <==

--------------------------------------------------------------------------
#psi4
#
memory 32 gb

molecule  {
0 1
  P       -2.2900960    -0.9400430     0.3446780
  O       -0.9821530    -0.2015620     0.9382890
  O        1.3422500    -1.6754830     1.2308510
  O        0.0787050     2.3596040     0.4621680
  O        3.0685150    -2.1870720    -0.8085900
  O        2.8473350     2.5031130     0.3715350
  O        4.1956880     0.4353970    -0.9728740
  O       -2.8268630     0.0333510    -0.8075310
  O       -3.2591210    -0.7232820     1.6216710
  O       -2.1189930    -2.3436440    -0.0996680
  C        0.1181620     0.0300090     0.0163190
  C        0.9532920    -1.2442050    -0.0757250
  C        0.8985890     1.2026440     0.5648510
  C        2.2421342    -1.0281932    -0.7468800
  C        2.1770750     1.3964720    -0.2280410
  C        3.0258420     0.1487050    -0.2103220
  C       -3.1242130     1.4315980    -0.4888860
  C       -3.5363170     2.0851650    -1.7841190
  H       -0.2830920     0.2988010    -0.9702380
  H        0.3702690    -2.0293640    -0.5720320
  H        1.1571200     0.9978770     1.6121560
  H        2.0609340    -0.7886600    -1.8727560
  H        1.9169870     1.6362870    -1.2735830
  H        3.2958550    -0.0945320     0.8276460
  H        0.5217750    -1.8880320     1.7115100
  H        0.6655400     3.1093110     0.6831840
  H        2.9423442    -2.5083150     0.1055056
  H        3.7214290     2.5491860    -0.0588690
  H        4.6397270    -0.4238340    -1.0970870
  H       -3.8083950    -1.5223380     1.7347280
  H       -3.9305460     1.4455410     0.2493860
  H       -2.2297620     1.8928800    -0.0590960
  H       -3.8005210     3.1308820    -1.6026710
  H       -2.7171960     2.0533230    -2.5048750
  H       -4.4009440     1.5743230    -2.2127240
units angstrom
no_reorient  #important for SAPT in psi4, default
symmetry c1  #important for SAPT in psi4, default
}

set PROPERTIES_ORIGIN ["COM"]
properties('MP2/aug-cc-pvtz', properties = ['dipole'])
--------------------------------------------------------------------------

    Molecular point group: c1
  Charge       = 0
  Multiplicity = 1
  Basis Set: AUG-CC-PVTZ
    Blend: AUG-CC-PVTZ
  Basis Set: (AUG-CC-PVTZ AUX)
    Blend: AUG-CC-PVTZ-JKFIT

    Orbital Energies [Eh]
    ---------------------

    Doubly Occupied:

       1A    -80.117901     2A    -20.615498     3A    -20.608656
       4A    -20.599605     5A    -20.584616     6A    -20.577791
       7A    -20.576790     8A    -20.576094     9A    -20.574105
      10A    -20.524418    11A    -11.322766    12A    -11.303706
      13A    -11.301209    14A    -11.299870    15A    -11.299481
      16A    -11.297029    17A    -11.292239    18A    -11.230156
      19A     -7.633356    20A     -5.531861    21A     -5.531489
      22A     -5.530286    23A     -1.461405    24A     -1.414257
      25A     -1.395833    26A     -1.395441    27A     -1.387592
      28A     -1.374145    29A     -1.366001    30A     -1.355267
      31A     -1.304799    32A     -1.123340    33A     -1.040895
      34A     -1.013523    35A     -1.008803    36A     -0.883562
      37A     -0.866205    38A     -0.856199    39A     -0.822521
      40A     -0.807880    41A     -0.755989    42A     -0.747349
      43A     -0.733489    44A     -0.729533    45A     -0.708984
      46A     -0.688204    47A     -0.677982    48A     -0.675206
      49A     -0.662854    50A     -0.658078    51A     -0.645171
      52A     -0.635136    53A     -0.628788    54A     -0.616220
      55A     -0.603878    56A     -0.599118    57A     -0.582040
      58A     -0.575562    59A     -0.573684    60A     -0.559838
      61A     -0.555652    62A     -0.549380    63A     -0.541981
      64A     -0.536035    65A     -0.528369    66A     -0.519430
      67A     -0.512520    68A     -0.506036    69A     -0.498047
      70A     -0.488216    71A     -0.480729    72A     -0.477604
      73A     -0.464182    74A     -0.456521    75A     -0.451538
      76A     -0.437216

  @DF-RHF Final Energy: -1327.85143347196640

   => Energetics <=

    Nuclear Repulsion Energy =           1773.7741175455480516
    One-Electron Energy =               -5359.5168077131538666
    Two-Electron Energy =                2257.8912566956391856
    Total Energy =                      -1327.8514334719666294
  Basis Set: (AUG-CC-PVTZ AUX)
    Blend: AUG-CC-PVTZ-RI
    Molecular point group: c1

    Geometry (in Angstrom), charge = 0, multiplicity = 1:

       Center              X                  Y                   Z               Mass
    ------------   -----------------  -----------------  -----------------  -----------------
         P           -2.289256726465    -0.939601167038     0.341675777847    30.973761998420
         O           -0.981313726465    -0.201120167038     0.935286777847    15.994914619570
         O            1.343089273535    -1.675041167038     1.227848777847    15.994914619570
         O            0.079544273535     2.360045832962     0.459165777847    15.994914619570
         O            3.069354273535    -2.186630167038    -0.811592222153    15.994914619570
         O            2.848174273535     2.503554832962     0.368532777847    15.994914619570
         O            4.196527273535     0.435838832962    -0.975876222153    15.994914619570
         O           -2.826023726465     0.033792832962    -0.810533222153    15.994914619570
         O           -3.258281726465    -0.722840167038     1.618668777847    15.994914619570
         O           -2.118153726465    -2.343202167038    -0.102670222153    15.994914619570
         C            0.119001273535     0.030450832962     0.013316777847    12.000000000000
         C            0.954131273535    -1.243763167038    -0.078727222153    12.000000000000
         C            0.899428273535     1.203085832962     0.561848777847    12.000000000000
         C            2.242973473535    -1.027751367038    -0.749882222153    12.000000000000
         C            2.177914273535     1.396913832962    -0.231043222153    12.000000000000
         C            3.026681273535     0.149146832962    -0.213324222153    12.000000000000
         C           -3.123373726465     1.432039832962    -0.491888222153    12.000000000000
         C           -3.535477726465     2.085606832962    -1.787121222153    12.000000000000
         H           -0.282252726465     0.299242832962    -0.973240222153     1.007825032230
         H            0.371108273535    -2.028922167038    -0.575034222153     1.007825032230
         H            1.157959273535     0.998318832962     1.609153777847     1.007825032230
         H            2.061773273535    -0.788218167038    -1.875758222153     1.007825032230
         H            1.917826273535     1.636728832962    -1.276585222153     1.007825032230
         H            3.296694273535    -0.094090167038     0.824643777847     1.007825032230
         H            0.522614273535    -1.887590167038     1.708507777847     1.007825032230
         H            0.666379273535     3.109752832962     0.680181777847     1.007825032230
         H            2.943183473535    -2.507873167038     0.102503377847     1.007825032230
         H            3.722268273535     2.549627832962    -0.061871222153     1.007825032230
         H            4.640566273535    -0.423392167038    -1.100089222153     1.007825032230
         H           -3.807555726465    -1.521896167038     1.731725777847     1.007825032230
         H           -3.929706726465     1.445982832962     0.246383777847     1.007825032230
         H           -2.228922726465     1.893321832962    -0.062098222153     1.007825032230
         H           -3.799681726465     3.131323832962    -1.605673222153     1.007825032230
         H           -2.716356726465     2.053764832962    -2.507877222153     1.007825032230
         H           -4.400104726465     1.574764832962    -2.215726222153     1.007825032230

  Basis Set: AUG-CC-PVTZ
    Blend: AUG-CC-PVTZ
  Basis Set: (AUG-CC-PVTZ AUX)
    Blend: AUG-CC-PVTZ-JKFIT
	 Reference Energy          =   -1327.8514334719664021 [Eh]
	 Singles Energy            =      -0.0000000000000000 [Eh]
	 Same-Spin Energy          =      -1.0157379543914451 [Eh]
	 Opposite-Spin Energy      =      -3.0778832052838832 [Eh]
	 Correlation Energy        =      -4.0936211596753278 [Eh]
	 Total Energy              =   -1331.9450546316418240 [Eh]

	 ================> DF-SCS-MP2 Energies <==================
	-----------------------------------------------------------
	 SCS Same-Spin Scale       =       0.3333333333333333 [-]
	 SCS Opposite-Spin Scale   =       1.2000000000000000 [-]
	 SCS Same-Spin Energy      =      -0.3385793181304817 [Eh]
	 SCS Opposite-Spin Energy  =      -3.6934598463406596 [Eh]
	 SCS Correlation Energy    =      -4.0320391644711417 [Eh]
	 SCS Total Energy          =   -1331.8834726364375456 [Eh]
	-----------------------------------------------------------

  Dipole Moment: [D]
     X:    -1.2102      Y:     1.9030      Z:     0.8028     Total:     2.3939

*** Psi4 exiting successfully. Buy a developer a beer!
