                               Psi4 1.3.2 release

  ==> Input File <==

--------------------------------------------------------------------------
#psi4
#
memory 32 gb

molecule  {
0 1
  P       -2.2900960    -0.9400430     0.3446780
  O       -0.9821530    -0.2015620     0.9382890
  O        1.3422500    -1.6754830     1.2308510
  O        0.0787050     2.3596040     0.4621680
  O        3.0685150    -2.1870720    -0.8085900
  O        2.8473350     2.5031130     0.3715350
  O        4.1956880     0.4353970    -0.9728740
  O       -2.8450428     0.0259836    -0.7911415
  O       -3.2591210    -0.7232820     1.6216710
  O       -2.1189930    -2.3436440    -0.0996680
  C        0.1181620     0.0300090     0.0163190
  C        0.9532920    -1.2442050    -0.0757250
  C        0.8985890     1.2026440     0.5648510
  C        2.2596600    -1.0143070    -0.8180370
  C        2.1770750     1.3964720    -0.2280410
  C        3.0258420     0.1487050    -0.2103220
  C       -3.1242130     1.4315980    -0.4888860
  C       -3.5363170     2.0851650    -1.7841190
  H       -0.2830920     0.2988010    -0.9702380
  H        0.3702690    -2.0293640    -0.5720320
  H        1.1571200     0.9978770     1.6121560
  H        2.0609340    -0.7886600    -1.8727560
  H        1.9169870     1.6362870    -1.2735830
  H        3.2958550    -0.0945320     0.8276460
  H        0.5217750    -1.8880320     1.7115100
  H        0.6655400     3.1093110     0.6831840
  H        2.9735430    -2.5473740     0.0946540
  H        3.7214290     2.5491860    -0.0588690
  H        4.6397270    -0.4238340    -1.0970870
  H       -3.8083950    -1.5223380     1.7347280
  H       -3.9309191     1.4264646     0.2490921
  H       -2.2297620     1.8928800    -0.0590960
  H       -3.8005210     3.1308820    -1.6026710
  H       -2.7171960     2.0533230    -2.5048750
  H       -4.4009440     1.5743230    -2.2127240
units angstrom
no_reorient  #important for SAPT in psi4, default
symmetry c1  #important for SAPT in psi4, default
}

set PROPERTIES_ORIGIN ["COM"]
properties('MP2/aug-cc-pvtz', properties = ['dipole'])
--------------------------------------------------------------------------

    Molecular point group: c1
  Charge       = 0
  Multiplicity = 1
  Basis Set: AUG-CC-PVTZ
    Blend: AUG-CC-PVTZ
  Basis Set: (AUG-CC-PVTZ AUX)
    Blend: AUG-CC-PVTZ-JKFIT

    Orbital Energies [Eh]
    ---------------------

    Doubly Occupied:

       1A    -80.115528     2A    -20.612736     3A    -20.607102
       4A    -20.598253     5A    -20.583220     6A    -20.576973
       7A    -20.574715     8A    -20.574231     9A    -20.573767
      10A    -20.522706    11A    -11.321135    12A    -11.303672
      13A    -11.300172    14A    -11.299489    15A    -11.298873
      16A    -11.296892    17A    -11.291589    18A    -11.230724
      19A     -7.631166    20A     -5.529670    21A     -5.529334
      22A     -5.528091    23A     -1.460831    24A     -1.411049
      25A     -1.394782    26A     -1.393064    27A     -1.387153
      28A     -1.372976    29A     -1.364133    30A     -1.354002
      31A     -1.303196    32A     -1.119257    33A     -1.041536
      34A     -1.012191    35A     -1.003634    36A     -0.880756
      37A     -0.866205    38A     -0.859233    39A     -0.821742
      40A     -0.810823    41A     -0.751885    42A     -0.745318
      43A     -0.731460    44A     -0.728994    45A     -0.707771
      46A     -0.687305    47A     -0.678287    48A     -0.674009
      49A     -0.662185    50A     -0.661065    51A     -0.643067
      52A     -0.635305    53A     -0.627474    54A     -0.615762
      55A     -0.603637    56A     -0.598672    57A     -0.581678
      58A     -0.575281    59A     -0.571810    60A     -0.559375
      61A     -0.556698    62A     -0.549302    63A     -0.541292
      64A     -0.536714    65A     -0.529764    66A     -0.522267
      67A     -0.513229    68A     -0.504382    69A     -0.496725
      70A     -0.485085    71A     -0.480772    72A     -0.475733
      73A     -0.462435    74A     -0.456068    75A     -0.450219
      76A     -0.436385

  @DF-RHF Final Energy: -1327.86207256284229

   => Energetics <=

    Nuclear Repulsion Energy =           1772.6124002771111918
    One-Electron Energy =               -5357.3609261128422077
    Two-Electron Energy =                2256.8864532728885024
    Total Energy =                      -1327.8620725628425134
  Basis Set: (AUG-CC-PVTZ AUX)
    Blend: AUG-CC-PVTZ-RI
    Molecular point group: c1

    Geometry (in Angstrom), charge = 0, multiplicity = 1:

       Center              X                  Y                   Z               Mass
    ------------   -----------------  -----------------  -----------------  -----------------
         P           -2.289085207816    -0.939567157420     0.343768973457    30.973761998420
         O           -0.981142207816    -0.201086157420     0.937379973457    15.994914619570
         O            1.343260792184    -1.675007157420     1.229941973457    15.994914619570
         O            0.079715792184     2.360079842580     0.461258973457    15.994914619570
         O            3.069525792184    -2.186596157420    -0.809499026543    15.994914619570
         O            2.848345792184     2.503588842580     0.370625973457    15.994914619570
         O            4.196698792184     0.435872842580    -0.973783026543    15.994914619570
         O           -2.844032007816     0.026459442580    -0.792050526543    15.994914619570
         O           -3.258110207816    -0.722806157420     1.620761973457    15.994914619570
         O           -2.117982207816    -2.343168157420    -0.100577026543    15.994914619570
         C            0.119172792184     0.030484842580     0.015409973457    12.000000000000
         C            0.954302792184    -1.243729157420    -0.076634026543    12.000000000000
         C            0.899599792184     1.203119842580     0.563941973457    12.000000000000
         C            2.260670792184    -1.013831157420    -0.818946026543    12.000000000000
         C            2.178085792184     1.396947842580    -0.228950026543    12.000000000000
         C            3.026852792184     0.149180842580    -0.211231026543    12.000000000000
         C           -3.123202207816     1.432073842580    -0.489795026543    12.000000000000
         C           -3.535306207816     2.085640842580    -1.785028026543    12.000000000000
         H           -0.282081207816     0.299276842580    -0.971147026543     1.007825032230
         H            0.371279792184    -2.028888157420    -0.572941026543     1.007825032230
         H            1.158130792184     0.998352842580     1.611246973457     1.007825032230
         H            2.061944792184    -0.788184157420    -1.873665026543     1.007825032230
         H            1.917997792184     1.636762842580    -1.274492026543     1.007825032230
         H            3.296865792184    -0.094056157420     0.826736973457     1.007825032230
         H            0.522785792184    -1.887556157420     1.710600973457     1.007825032230
         H            0.666550792184     3.109786842580     0.682274973457     1.007825032230
         H            2.974553792184    -2.546898157420     0.093744973457     1.007825032230
         H            3.722439792184     2.549661842580    -0.059778026543     1.007825032230
         H            4.640737792184    -0.423358157420    -1.097996026543     1.007825032230
         H           -3.807384207816    -1.521862157420     1.733818973457     1.007825032230
         H           -3.929908307816     1.426940442580     0.248183073457     1.007825032230
         H           -2.228751207816     1.893355842580    -0.060005026543     1.007825032230
         H           -3.799510207816     3.131357842580    -1.603580026543     1.007825032230
         H           -2.716185207816     2.053798842580    -2.505784026543     1.007825032230
         H           -4.399933207816     1.574798842580    -2.213633026543     1.007825032230

  Basis Set: AUG-CC-PVTZ
    Blend: AUG-CC-PVTZ
  Basis Set: (AUG-CC-PVTZ AUX)
    Blend: AUG-CC-PVTZ-JKFIT
	 Reference Energy          =   -1327.8620725628422861 [Eh]
	 Singles Energy            =      -0.0000000000000000 [Eh]
	 Same-Spin Energy          =      -1.0144432001294761 [Eh]
	 Opposite-Spin Energy      =      -3.0756593297851271 [Eh]
	 Correlation Energy        =      -4.0901025299146028 [Eh]
	 Total Energy              =   -1331.9521750927569883 [Eh]

	 ================> DF-SCS-MP2 Energies <==================
	-----------------------------------------------------------
	 SCS Same-Spin Scale       =       0.3333333333333333 [-]
	 SCS Opposite-Spin Scale   =       1.2000000000000000 [-]
	 SCS Same-Spin Energy      =      -0.3381477333764920 [Eh]
	 SCS Opposite-Spin Energy  =      -3.6907911957421522 [Eh]
	 SCS Correlation Energy    =      -4.0289389291186444 [Eh]
	 SCS Total Energy          =   -1331.8910114919608532 [Eh]
	-----------------------------------------------------------

  Dipole Moment: [D]
     X:    -1.0806      Y:     1.9127      Z:     0.6614     Total:     2.2942

*** Psi4 exiting successfully. Buy a developer a beer!
