                               Psi4 1.3.2 release

  ==> Input File <==

--------------------------------------------------------------------------
#psi4
#
memory 32 gb

molecule  {
0 1
  P       -2.2900960    -0.9400430     0.3446780
  O       -0.9821530    -0.2015620     0.9382890
  O        1.3422500    -1.6754830     1.2308510
  O        0.0787050     2.3596040     0.4621680
  O        3.0685150    -2.1870720    -0.8085900
  O        2.8473350     2.5031130     0.3715350
  O        4.1956880     0.4353970    -0.9728740
  O       -2.8268630     0.0333510    -0.8075310
  O       -3.2591210    -0.7232820     1.6216710
  O       -2.1189930    -2.3436440    -0.0996680
  C        0.1163661     0.0423711    -0.0069188
  C        0.9532920    -1.2442050    -0.0757250
  C        0.8985890     1.2026440     0.5648510
  C        2.2596600    -1.0143070    -0.8180370
  C        2.1770750     1.3964720    -0.2280410
  C        3.0258420     0.1487050    -0.2103220
  C       -3.1242130     1.4315980    -0.4888860
  C       -3.5363170     2.0851650    -1.7841190
  H       -0.2830920     0.2988010    -0.9702380
  H        0.3702690    -2.0293640    -0.5720320
  H        1.1659944     1.0148353     1.6131056
  H        2.0609340    -0.7886600    -1.8727560
  H        1.9169870     1.6362870    -1.2735830
  H        3.2958550    -0.0945320     0.8276460
  H        0.5217750    -1.8880320     1.7115100
  H        0.6655400     3.1093110     0.6831840
  H        2.9735430    -2.5473740     0.0946540
  H        3.7214290     2.5491860    -0.0588690
  H        4.6397270    -0.4238340    -1.0970870
  H       -3.8083950    -1.5223380     1.7347280
  H       -3.9305460     1.4455410     0.2493860
  H       -2.2297620     1.8928800    -0.0590960
  H       -3.8005210     3.1308820    -1.6026710
  H       -2.7171960     2.0533230    -2.5048750
  H       -4.4009440     1.5743230    -2.2127240
units angstrom
no_reorient  #important for SAPT in psi4, default
symmetry c1  #important for SAPT in psi4, default
}

set PROPERTIES_ORIGIN ["COM"]
properties('MP2/aug-cc-pvtz', properties = ['dipole'])
--------------------------------------------------------------------------

    Molecular point group: c1
  Charge       = 0
  Multiplicity = 1
  Basis Set: AUG-CC-PVTZ
    Blend: AUG-CC-PVTZ
  Basis Set: (AUG-CC-PVTZ AUX)
    Blend: AUG-CC-PVTZ-JKFIT

    Orbital Energies [Eh]
    ---------------------

    Doubly Occupied:

       1A    -80.115819     2A    -20.613998     3A    -20.605590
       4A    -20.598611     5A    -20.583750     6A    -20.577080
       7A    -20.574430     8A    -20.574253     9A    -20.573235
      10A    -20.522781    11A    -11.320887    12A    -11.304405
      13A    -11.299280    14A    -11.299215    15A    -11.299193
      16A    -11.296743    17A    -11.291618    18A    -11.229876
      19A     -7.631308    20A     -5.529819    21A     -5.529433
      22A     -5.528239    23A     -1.458269    24A     -1.410130
      25A     -1.394082    26A     -1.392078    27A     -1.386387
      28A     -1.371809    29A     -1.364018    30A     -1.353846
      31A     -1.303096    32A     -1.119338    33A     -1.040362
      34A     -1.012040    35A     -1.003469    36A     -0.879296
      37A     -0.864999    38A     -0.858403    39A     -0.822164
      40A     -0.812715    41A     -0.751220    42A     -0.745693
      43A     -0.731349    44A     -0.727219    45A     -0.707645
      46A     -0.687049    47A     -0.677613    48A     -0.673897
      49A     -0.662249    50A     -0.660830    51A     -0.642012
      52A     -0.634751    53A     -0.626547    54A     -0.615285
      55A     -0.602301    56A     -0.598666    57A     -0.582076
      58A     -0.574710    59A     -0.570790    60A     -0.559503
      61A     -0.556864    62A     -0.548805    63A     -0.541112
      64A     -0.536918    65A     -0.531370    66A     -0.521971
      67A     -0.513059    68A     -0.505088    69A     -0.497193
      70A     -0.486054    71A     -0.479429    72A     -0.476168
      73A     -0.461588    74A     -0.456134    75A     -0.449870
      76A     -0.436397

  @DF-RHF Final Energy: -1327.86036667674853

   => Energetics <=

    Nuclear Repulsion Energy =           1772.1598687271664403
    One-Electron Energy =               -5356.4895010610443933
    Two-Electron Energy =                2256.4692656571296538
    Total Energy =                      -1327.8603666767485265
  Basis Set: (AUG-CC-PVTZ AUX)
    Blend: AUG-CC-PVTZ-RI
    Molecular point group: c1

    Geometry (in Angstrom), charge = 0, multiplicity = 1:

       Center              X                  Y                   Z               Mass
    ------------   -----------------  -----------------  -----------------  -----------------
         P           -2.290052202280    -0.940617291893     0.345642705017    30.973761998420
         O           -0.982109202280    -0.202136291893     0.939253705017    15.994914619570
         O            1.342293797720    -1.676057291893     1.231815705017    15.994914619570
         O            0.078748797720     2.359029708107     0.463132705017    15.994914619570
         O            3.068558797720    -2.187646291893    -0.807625294983    15.994914619570
         O            2.847378797720     2.502538708107     0.372499705017    15.994914619570
         O            4.195731797720     0.434822708107    -0.971909294983    15.994914619570
         O           -2.826819202280     0.032776708107    -0.806566294983    15.994914619570
         O           -3.259077202280    -0.723856291893     1.622635705017    15.994914619570
         O           -2.118949202280    -2.344218291893    -0.098703294983    15.994914619570
         C            0.116409897720     0.041796808107    -0.005954094983    12.000000000000
         C            0.953335797720    -1.244779291893    -0.074760294983    12.000000000000
         C            0.898632797720     1.202069708107     0.565815705017    12.000000000000
         C            2.259703797720    -1.014881291893    -0.817072294983    12.000000000000
         C            2.177118797720     1.395897708107    -0.227076294983    12.000000000000
         C            3.025885797720     0.148130708107    -0.209357294983    12.000000000000
         C           -3.124169202280     1.431023708107    -0.487921294983    12.000000000000
         C           -3.536273202280     2.084590708107    -1.783154294983    12.000000000000
         H           -0.283048202280     0.298226708107    -0.969273294983     1.007825032230
         H            0.370312797720    -2.029938291893    -0.571067294983     1.007825032230
         H            1.166038197720     1.014261008107     1.614070305017     1.007825032230
         H            2.060977797720    -0.789234291893    -1.871791294983     1.007825032230
         H            1.917030797720     1.635712708107    -1.272618294983     1.007825032230
         H            3.295898797720    -0.095106291893     0.828610705017     1.007825032230
         H            0.521818797720    -1.888606291893     1.712474705017     1.007825032230
         H            0.665583797720     3.108736708107     0.684148705017     1.007825032230
         H            2.973586797720    -2.547948291893     0.095618705017     1.007825032230
         H            3.721472797720     2.548611708107    -0.057904294983     1.007825032230
         H            4.639770797720    -0.424408291893    -1.096122294983     1.007825032230
         H           -3.808351202280    -1.522912291893     1.735692705017     1.007825032230
         H           -3.930502202280     1.444966708107     0.250350705017     1.007825032230
         H           -2.229718202280     1.892305708107    -0.058131294983     1.007825032230
         H           -3.800477202280     3.130307708107    -1.601706294983     1.007825032230
         H           -2.717152202280     2.052748708107    -2.503910294983     1.007825032230
         H           -4.400900202280     1.573748708107    -2.211759294983     1.007825032230

  Basis Set: AUG-CC-PVTZ
    Blend: AUG-CC-PVTZ
  Basis Set: (AUG-CC-PVTZ AUX)
    Blend: AUG-CC-PVTZ-JKFIT
	 Reference Energy          =   -1327.8603666767485265 [Eh]
	 Singles Energy            =      -0.0000000000000000 [Eh]
	 Same-Spin Energy          =      -1.0145787251816765 [Eh]
	 Opposite-Spin Energy      =      -3.0762616342763844 [Eh]
	 Correlation Energy        =      -4.0908403594580607 [Eh]
	 Total Energy              =   -1331.9512070362065970 [Eh]

	 ================> DF-SCS-MP2 Energies <==================
	-----------------------------------------------------------
	 SCS Same-Spin Scale       =       0.3333333333333333 [-]
	 SCS Opposite-Spin Scale   =       1.2000000000000000 [-]
	 SCS Same-Spin Energy      =      -0.3381929083938922 [Eh]
	 SCS Opposite-Spin Energy  =      -3.6915139611316610 [Eh]
	 SCS Correlation Energy    =      -4.0297068695255529 [Eh]
	 SCS Total Energy          =   -1331.8900735462741522 [Eh]
	-----------------------------------------------------------

  Dipole Moment: [D]
     X:    -1.0691      Y:     1.8897      Z:     0.7011     Total:     2.2815

*** Psi4 exiting successfully. Buy a developer a beer!
