                               Psi4 1.3.2 release

  ==> Input File <==

--------------------------------------------------------------------------
#psi4
#
memory 32 gb

molecule  {
0 1
  P       -2.2838791    -0.9407686     0.3320500
  O       -0.9821530    -0.2015620     0.9382890
  O        1.3422500    -1.6754830     1.2308510
  O        0.0787050     2.3596040     0.4621680
  O        3.0685150    -2.1870720    -0.8085900
  O        2.8473350     2.5031130     0.3715350
  O        4.1956880     0.4353970    -0.9728740
  O       -2.8268630     0.0333510    -0.8075310
  O       -3.2591210    -0.7232820     1.6216710
  O       -2.1189930    -2.3436440    -0.0996680
  C        0.1114696     0.0245193     0.0070405
  C        0.9532920    -1.2442050    -0.0757250
  C        0.8985890     1.2026440     0.5648510
  C        2.2596600    -1.0143070    -0.8180370
  C        2.1770750     1.3964720    -0.2280410
  C        3.0258420     0.1487050    -0.2103220
  C       -3.1242130     1.4315980    -0.4888860
  C       -3.5363170     2.0851650    -1.7841190
  H       -0.2830920     0.2988010    -0.9702380
  H        0.3702690    -2.0293640    -0.5720320
  H        1.1571200     0.9978770     1.6121560
  H        2.0609340    -0.7886600    -1.8727560
  H        1.9169870     1.6362870    -1.2735830
  H        3.2958550    -0.0945320     0.8276460
  H        0.5217750    -1.8880320     1.7115100
  H        0.6655400     3.1093110     0.6831840
  H        2.9735430    -2.5473740     0.0946540
  H        3.7214290     2.5491860    -0.0588690
  H        4.6397270    -0.4238340    -1.0970870
  H       -3.8083950    -1.5223380     1.7347280
  H       -3.9305460     1.4455410     0.2493860
  H       -2.2297620     1.8928800    -0.0590960
  H       -3.8005210     3.1308820    -1.6026710
  H       -2.7171960     2.0533230    -2.5048750
  H       -4.4009440     1.5743230    -2.2127240
units angstrom
no_reorient  #important for SAPT in psi4, default
symmetry c1  #important for SAPT in psi4, default
}

set PROPERTIES_ORIGIN ["COM"]
properties('MP2/aug-cc-pvtz', properties = ['dipole'])
--------------------------------------------------------------------------

    Molecular point group: c1
  Charge       = 0
  Multiplicity = 1
  Basis Set: AUG-CC-PVTZ
    Blend: AUG-CC-PVTZ
  Basis Set: (AUG-CC-PVTZ AUX)
    Blend: AUG-CC-PVTZ-JKFIT

    Orbital Energies [Eh]
    ---------------------

    Doubly Occupied:

       1A    -80.116520     2A    -20.610706     3A    -20.608027
       4A    -20.600449     5A    -20.583676     6A    -20.576829
       7A    -20.574844     8A    -20.574233     9A    -20.573531
      10A    -20.524458    11A    -11.320767    12A    -11.303840
      13A    -11.300409    14A    -11.299703    15A    -11.299187
      16A    -11.296629    17A    -11.291582    18A    -11.230515
      19A     -7.632108    20A     -5.530574    21A     -5.530225
      22A     -5.529073    23A     -1.459703    24A     -1.410563
      25A     -1.394521    26A     -1.392717    27A     -1.385268
      28A     -1.372935    29A     -1.364089    30A     -1.353982
      31A     -1.306800    32A     -1.118575    33A     -1.041704
      34A     -1.012114    35A     -1.003079    36A     -0.880019
      37A     -0.866031    38A     -0.858992    39A     -0.820641
      40A     -0.811675    41A     -0.751710    42A     -0.745368
      43A     -0.731001    44A     -0.729154    45A     -0.706819
      46A     -0.687426    47A     -0.678251    48A     -0.673532
      49A     -0.661892    50A     -0.659886    51A     -0.642724
      52A     -0.635187    53A     -0.627566    54A     -0.616089
      55A     -0.603434    56A     -0.598486    57A     -0.581769
      58A     -0.573952    59A     -0.571725    60A     -0.559729
      61A     -0.556856    62A     -0.549326    63A     -0.541333
      64A     -0.536702    65A     -0.530699    66A     -0.521784
      67A     -0.513747    68A     -0.504942    69A     -0.497457
      70A     -0.486194    71A     -0.481239    72A     -0.478102
      73A     -0.462622    74A     -0.456005    75A     -0.450213
      76A     -0.436366

  @DF-RHF Final Energy: -1327.86099526000112

   => Energetics <=

    Nuclear Repulsion Energy =           1772.6010120039411504
    One-Electron Energy =               -5357.3228504490189152
    Two-Electron Energy =                2256.8608431850766465
    Total Energy =                      -1327.8609952600013457
  Basis Set: (AUG-CC-PVTZ AUX)
    Blend: AUG-CC-PVTZ-RI
    Molecular point group: c1

    Geometry (in Angstrom), charge = 0, multiplicity = 1:

       Center              X                  Y                   Z               Mass
    ------------   -----------------  -----------------  -----------------  -----------------
         P           -2.284268748426    -0.940461873136     0.333794338783    30.973761998420
         O           -0.982542648426    -0.201255273136     0.940033338783    15.994914619570
         O            1.341860351574    -1.675176273136     1.232595338783    15.994914619570
         O            0.078315351574     2.359910726864     0.463912338783    15.994914619570
         O            3.068125351574    -2.186765273136    -0.806845661217    15.994914619570
         O            2.846945351574     2.503419726864     0.373279338783    15.994914619570
         O            4.195298351574     0.435703726864    -0.971129661217    15.994914619570
         O           -2.827252648426     0.033657726864    -0.805786661217    15.994914619570
         O           -3.259510648426    -0.722975273136     1.623415338783    15.994914619570
         O           -2.119382648426    -2.343337273136    -0.097923661217    15.994914619570
         C            0.111079951574     0.024826026864     0.008784838783    12.000000000000
         C            0.952902351574    -1.243898273136    -0.073980661217    12.000000000000
         C            0.898199351574     1.202950726864     0.566595338783    12.000000000000
         C            2.259270351574    -1.014000273136    -0.816292661217    12.000000000000
         C            2.176685351574     1.396778726864    -0.226296661217    12.000000000000
         C            3.025452351574     0.149011726864    -0.208577661217    12.000000000000
         C           -3.124602648426     1.431904726864    -0.487141661217    12.000000000000
         C           -3.536706648426     2.085471726864    -1.782374661217    12.000000000000
         H           -0.283481648426     0.299107726864    -0.968493661217     1.007825032230
         H            0.369879351574    -2.029057273136    -0.570287661217     1.007825032230
         H            1.156730351574     0.998183726864     1.613900338783     1.007825032230
         H            2.060544351574    -0.788353273136    -1.871011661217     1.007825032230
         H            1.916597351574     1.636593726864    -1.271838661217     1.007825032230
         H            3.295465351574    -0.094225273136     0.829390338783     1.007825032230
         H            0.521385351574    -1.887725273136     1.713254338783     1.007825032230
         H            0.665150351574     3.109617726864     0.684928338783     1.007825032230
         H            2.973153351574    -2.547067273136     0.096398338783     1.007825032230
         H            3.721039351574     2.549492726864    -0.057124661217     1.007825032230
         H            4.639337351574    -0.423527273136    -1.095342661217     1.007825032230
         H           -3.808784648426    -1.522031273136     1.736472338783     1.007825032230
         H           -3.930935648426     1.445847726864     0.251130338783     1.007825032230
         H           -2.230151648426     1.893186726864    -0.057351661217     1.007825032230
         H           -3.800910648426     3.131188726864    -1.600926661217     1.007825032230
         H           -2.717585648426     2.053629726864    -2.503130661217     1.007825032230
         H           -4.401333648426     1.574629726864    -2.210979661217     1.007825032230

  Basis Set: AUG-CC-PVTZ
    Blend: AUG-CC-PVTZ
  Basis Set: (AUG-CC-PVTZ AUX)
    Blend: AUG-CC-PVTZ-JKFIT
	 Reference Energy          =   -1327.8609952600011184 [Eh]
	 Singles Energy            =      -0.0000000000000000 [Eh]
	 Same-Spin Energy          =      -1.0145483339091483 [Eh]
	 Opposite-Spin Energy      =      -3.0761270568754182 [Eh]
	 Correlation Energy        =      -4.0906753907845665 [Eh]
	 Total Energy              =   -1331.9516706507856725 [Eh]

	 ================> DF-SCS-MP2 Energies <==================
	-----------------------------------------------------------
	 SCS Same-Spin Scale       =       0.3333333333333333 [-]
	 SCS Opposite-Spin Scale   =       1.2000000000000000 [-]
	 SCS Same-Spin Energy      =      -0.3381827779697161 [Eh]
	 SCS Opposite-Spin Energy  =      -3.6913524682505017 [Eh]
	 SCS Correlation Energy    =      -4.0295352462202176 [Eh]
	 SCS Total Energy          =   -1331.8905305062212392 [Eh]
	-----------------------------------------------------------

  Dipole Moment: [D]
     X:    -1.0625      Y:     1.8761      Z:     0.5965     Total:     2.2370

*** Psi4 exiting successfully. Buy a developer a beer!
