                               Psi4 1.3.2 release

  ==> Input File <==

--------------------------------------------------------------------------
#psi4
#
memory 32 gb

molecule  {
0 1
  P       -2.2900960    -0.9400430     0.3446780
  O       -0.9821530    -0.2015620     0.9382890
  O        1.3422500    -1.6754830     1.2308510
  O        0.0451536     2.3373374     0.4911707
  O        3.0685150    -2.1870720    -0.8085900
  O        2.8473350     2.5031130     0.3715350
  O        4.1956880     0.4353970    -0.9728740
  O       -2.8268630     0.0333510    -0.8075310
  O       -3.2591210    -0.7232820     1.6216710
  O       -2.1189930    -2.3436440    -0.0996680
  C        0.1181620     0.0300090     0.0163190
  C        0.9532920    -1.2442050    -0.0757250
  C        0.8985890     1.2026440     0.5648510
  C        2.2596600    -1.0143070    -0.8180370
  C        2.1924482     1.3479890    -0.2133371
  C        3.0258420     0.1487050    -0.2103220
  C       -3.1242130     1.4315980    -0.4888860
  C       -3.5363170     2.0851650    -1.7841190
  H       -0.2830920     0.2988010    -0.9702380
  H        0.3702690    -2.0293640    -0.5720320
  H        1.1571200     0.9978770     1.6121560
  H        2.0609340    -0.7886600    -1.8727560
  H        1.9169870     1.6362870    -1.2735830
  H        3.2958550    -0.0945320     0.8276460
  H        0.5217750    -1.8880320     1.7115100
  H        0.6655400     3.1093110     0.6831840
  H        2.9735430    -2.5473740     0.0946540
  H        3.7214290     2.5491860    -0.0588690
  H        4.6397270    -0.4238340    -1.0970870
  H       -3.8083950    -1.5223380     1.7347280
  H       -3.9305460     1.4455410     0.2493860
  H       -2.2297620     1.8928800    -0.0590960
  H       -3.8005210     3.1308820    -1.6026710
  H       -2.7171960     2.0533230    -2.5048750
  H       -4.4009440     1.5743230    -2.2127240
units angstrom
no_reorient  #important for SAPT in psi4, default
symmetry c1  #important for SAPT in psi4, default
}

set PROPERTIES_ORIGIN ["COM"]
properties('MP2/aug-cc-pvtz', properties = ['dipole'])
--------------------------------------------------------------------------

    Molecular point group: c1
  Charge       = 0
  Multiplicity = 1
  Basis Set: AUG-CC-PVTZ
    Blend: AUG-CC-PVTZ
  Basis Set: (AUG-CC-PVTZ AUX)
    Blend: AUG-CC-PVTZ-JKFIT

    Orbital Energies [Eh]
    ---------------------

    Doubly Occupied:

       1A    -80.116557     2A    -20.614404     3A    -20.606363
       4A    -20.598605     5A    -20.583400     6A    -20.578792
       7A    -20.576120     8A    -20.575727     9A    -20.575625
      10A    -20.523180    11A    -11.319944    12A    -11.303778
      13A    -11.300985    14A    -11.299950    15A    -11.299203
      16A    -11.298928    17A    -11.292099    18A    -11.229690
      19A     -7.632010    20A     -5.530516    21A     -5.530142
      22A     -5.528944    23A     -1.459886    24A     -1.410766
      25A     -1.394611    26A     -1.389866    27A     -1.386495
      28A     -1.371580    29A     -1.362572    30A     -1.351171
      31A     -1.303561    32A     -1.123863    33A     -1.040309
      34A     -1.018257    35A     -1.003466    36A     -0.880416
      37A     -0.864801    38A     -0.860887    39A     -0.821159
      40A     -0.810185    41A     -0.749628    42A     -0.746000
      43A     -0.731055    44A     -0.727175    45A     -0.706667
      46A     -0.683676    47A     -0.678886    48A     -0.673696
      49A     -0.665633    50A     -0.660522    51A     -0.640464
      52A     -0.635144    53A     -0.627119    54A     -0.615161
      55A     -0.599704    56A     -0.598904    57A     -0.581451
      58A     -0.575350    59A     -0.570926    60A     -0.558296
      61A     -0.556179    62A     -0.547949    63A     -0.540979
      64A     -0.538338    65A     -0.529657    66A     -0.521811
      67A     -0.512441    68A     -0.504751    69A     -0.497478
      70A     -0.485527    71A     -0.479494    72A     -0.476343
      73A     -0.465595    74A     -0.459337    75A     -0.448586
      76A     -0.437576

  @DF-RHF Final Energy: -1327.85300102481733

   => Energetics <=

    Nuclear Repulsion Energy =           1773.2207400836662146
    One-Electron Energy =               -5358.5548618018792695
    Two-Electron Energy =                2257.4811206933959511
    Total Energy =                      -1327.8530010248173312
  Basis Set: (AUG-CC-PVTZ AUX)
    Blend: AUG-CC-PVTZ-RI
    Molecular point group: c1

    Geometry (in Angstrom), charge = 0, multiplicity = 1:

       Center              X                  Y                   Z               Mass
    ------------   -----------------  -----------------  -----------------  -----------------
         P           -2.288873401963    -0.936786907038     0.342455050255    30.973761998420
         O           -0.980930401963    -0.198305907038     0.936066050255    15.994914619570
         O            1.343472598037    -1.672226907038     1.228628050255    15.994914619570
         O            0.046376198037     2.340593492962     0.488947750255    15.994914619570
         O            3.069737598037    -2.183815907038    -0.810812949745    15.994914619570
         O            2.848557598037     2.506369092962     0.369312050255    15.994914619570
         O            4.196910598037     0.438653092962    -0.975096949745    15.994914619570
         O           -2.825640401963     0.036607092962    -0.809753949745    15.994914619570
         O           -3.257898401963    -0.720025907038     1.619448050255    15.994914619570
         O           -2.117770401963    -2.340387907038    -0.101890949745    15.994914619570
         C            0.119384598037     0.033265092962     0.014096050255    12.000000000000
         C            0.954514598037    -1.240948907038    -0.077947949745    12.000000000000
         C            0.899811598037     1.205900092962     0.562628050255    12.000000000000
         C            2.260882598037    -1.011050907038    -0.820259949745    12.000000000000
         C            2.193670798037     1.351245092962    -0.215560049745    12.000000000000
         C            3.027064598037     0.151961092962    -0.212544949745    12.000000000000
         C           -3.122990401963     1.434854092962    -0.491108949745    12.000000000000
         C           -3.535094401963     2.088421092962    -1.786341949745    12.000000000000
         H           -0.281869401963     0.302057092962    -0.972460949745     1.007825032230
         H            0.371491598037    -2.026107907038    -0.574254949745     1.007825032230
         H            1.158342598037     1.001133092962     1.609933050255     1.007825032230
         H            2.062156598037    -0.785403907038    -1.874978949745     1.007825032230
         H            1.918209598037     1.639543092962    -1.275805949745     1.007825032230
         H            3.297077598037    -0.091275907038     0.825423050255     1.007825032230
         H            0.522997598037    -1.884775907038     1.709287050255     1.007825032230
         H            0.666762598037     3.112567092962     0.680961050255     1.007825032230
         H            2.974765598037    -2.544117907038     0.092431050255     1.007825032230
         H            3.722651598037     2.552442092962    -0.061091949745     1.007825032230
         H            4.640949598037    -0.420577907038    -1.099309949745     1.007825032230
         H           -3.807172401963    -1.519081907038     1.732505050255     1.007825032230
         H           -3.929323401963     1.448797092962     0.247163050255     1.007825032230
         H           -2.228539401963     1.896136092962    -0.061318949745     1.007825032230
         H           -3.799298401963     3.134138092962    -1.604893949745     1.007825032230
         H           -2.715973401963     2.056579092962    -2.507097949745     1.007825032230
         H           -4.399721401963     1.577579092962    -2.214946949745     1.007825032230

  Basis Set: AUG-CC-PVTZ
    Blend: AUG-CC-PVTZ
  Basis Set: (AUG-CC-PVTZ AUX)
    Blend: AUG-CC-PVTZ-JKFIT
	 Reference Energy          =   -1327.8530010248173312 [Eh]
	 Singles Energy            =      -0.0000000000000000 [Eh]
	 Same-Spin Energy          =      -1.0158207353112081 [Eh]
	 Opposite-Spin Energy      =      -3.0784853479172867 [Eh]
	 Correlation Energy        =      -4.0943060832284948 [Eh]
	 Total Energy              =   -1331.9473071080458340 [Eh]

	 ================> DF-SCS-MP2 Energies <==================
	-----------------------------------------------------------
	 SCS Same-Spin Scale       =       0.3333333333333333 [-]
	 SCS Opposite-Spin Scale   =       1.2000000000000000 [-]
	 SCS Same-Spin Energy      =      -0.3386069117704027 [Eh]
	 SCS Opposite-Spin Energy  =      -3.6941824175007438 [Eh]
	 SCS Correlation Energy    =      -4.0327893292711465 [Eh]
	 SCS Total Energy          =   -1331.8857903540883854 [Eh]
	-----------------------------------------------------------

  Dipole Moment: [D]
     X:    -1.0572      Y:     1.8135      Z:     0.6710     Total:     2.2037

*** Psi4 exiting successfully. Buy a developer a beer!
