                               Psi4 1.3.2 release

  ==> Input File <==

--------------------------------------------------------------------------
#psi4
#
memory 32 gb

molecule  {
0 1
  P       -2.2900960    -0.9400430     0.3446780
  O       -0.9821530    -0.2015620     0.9382890
  O        1.3422500    -1.6754830     1.2308510
  O        0.0787050     2.3596040     0.4621680
  O        3.0685150    -2.1870720    -0.8085900
  O        2.8473350     2.5031130     0.3715350
  O        4.1956880     0.4353970    -0.9728740
  O       -2.8268630     0.0333510    -0.8075310
  O       -3.2591210    -0.7232820     1.6216710
  O       -2.1189930    -2.3436440    -0.0996680
  C        0.0424911     0.0140834     0.0797248
  C        0.9532920    -1.2442050    -0.0757250
  C        0.8985890     1.2026440     0.5648510
  C        2.2596600    -1.0143070    -0.8180370
  C        2.1770750     1.3964720    -0.2280410
  C        3.0258420     0.1487050    -0.2103220
  C       -3.1242130     1.4315980    -0.4888860
  C       -3.5363170     2.0851650    -1.7841190
  H       -0.2830920     0.2988010    -0.9702380
  H        0.3702690    -2.0293640    -0.5720320
  H        1.1571200     0.9978770     1.6121560
  H        2.0609340    -0.7886600    -1.8727560
  H        1.9169870     1.6362870    -1.2735830
  H        3.2958550    -0.0945320     0.8276460
  H        0.5217750    -1.8880320     1.7115100
  H        0.6655400     3.1093110     0.6831840
  H        2.9735430    -2.5473740     0.0946540
  H        3.7214290     2.5491860    -0.0588690
  H        4.6397270    -0.4238340    -1.0970870
  H       -3.8083950    -1.5223380     1.7347280
  H       -3.9305460     1.4455410     0.2493860
  H       -2.2297620     1.8928800    -0.0590960
  H       -3.8005210     3.1308820    -1.6026710
  H       -2.7171960     2.0533230    -2.5048750
  H       -4.4009440     1.5743230    -2.2127240
units angstrom
no_reorient  #important for SAPT in psi4, default
symmetry c1  #important for SAPT in psi4, default
}

set PROPERTIES_ORIGIN ["COM"]
properties('MP2/aug-cc-pvtz', properties = ['dipole'])
--------------------------------------------------------------------------

    Molecular point group: c1
  Charge       = 0
  Multiplicity = 1
  Basis Set: AUG-CC-PVTZ
    Blend: AUG-CC-PVTZ
  Basis Set: (AUG-CC-PVTZ AUX)
    Blend: AUG-CC-PVTZ-JKFIT

    Orbital Energies [Eh]
    ---------------------

    Doubly Occupied:

       1A    -80.124170     2A    -20.619638     3A    -20.618503
       4A    -20.602831     5A    -20.579886     6A    -20.575205
       7A    -20.573344     8A    -20.571907     9A    -20.570494
      10A    -20.528434    11A    -11.318941    12A    -11.301594
      13A    -11.299583    14A    -11.297467    15A    -11.295544
      16A    -11.294671    17A    -11.288881    18A    -11.231049
      19A     -7.639639    20A     -5.538181    21A     -5.537750
      22A     -5.536497    23A     -1.481368    24A     -1.420151
      25A     -1.401026    26A     -1.391451    27A     -1.390844
      28A     -1.374072    29A     -1.361838    30A     -1.352299
      31A     -1.309169    32A     -1.107728    33A     -1.042511
      34A     -1.007766    35A     -0.997023    36A     -0.889491
      37A     -0.867225    38A     -0.856067    39A     -0.825407
      40A     -0.806223    41A     -0.752070    42A     -0.748477
      43A     -0.742683    44A     -0.729582    45A     -0.708069
      46A     -0.686909    47A     -0.678144    48A     -0.674153
      49A     -0.664980    50A     -0.660071    51A     -0.650064
      52A     -0.638419    53A     -0.630589    54A     -0.616097
      55A     -0.607180    56A     -0.594662    57A     -0.580672
      58A     -0.580526    59A     -0.574340    60A     -0.559692
      61A     -0.553714    62A     -0.549156    63A     -0.543651
      64A     -0.533254    65A     -0.530165    66A     -0.519625
      67A     -0.513457    68A     -0.501560    69A     -0.498480
      70A     -0.483077    71A     -0.480118    72A     -0.475140
      73A     -0.459152    74A     -0.453114    75A     -0.441972
      76A     -0.430643

  @DF-RHF Final Energy: -1327.85402989588033

   => Energetics <=

    Nuclear Repulsion Energy =           1773.2118500454114383
    One-Electron Energy =               -5358.3927081957517657
    Two-Electron Energy =                2257.3268282544595422
    Total Energy =                      -1327.8540298958805579
  Basis Set: (AUG-CC-PVTZ AUX)
    Blend: AUG-CC-PVTZ-RI
    Molecular point group: c1

    Geometry (in Angstrom), charge = 0, multiplicity = 1:

       Center              X                  Y                   Z               Mass
    ------------   -----------------  -----------------  -----------------  -----------------
         P           -2.286943680880    -0.939379556221     0.342036642064    30.973761998420
         O           -0.979000680880    -0.200898556221     0.935647642064    15.994914619570
         O            1.345402319120    -1.674819556221     1.228209642064    15.994914619570
         O            0.081857319120     2.360267443779     0.459526642064    15.994914619570
         O            3.071667319120    -2.186408556221    -0.811231357936    15.994914619570
         O            2.850487319120     2.503776443779     0.368893642064    15.994914619570
         O            4.198840319120     0.436060443779    -0.975515357936    15.994914619570
         O           -2.823710680880     0.034014443779    -0.810172357936    15.994914619570
         O           -3.255968680880    -0.722618556221     1.619029642064    15.994914619570
         O           -2.115840680880    -2.342980556221    -0.102309357936    15.994914619570
         C            0.045643419120     0.014746843779     0.077083442064    12.000000000000
         C            0.956444319120    -1.243541556221    -0.078366357936    12.000000000000
         C            0.901741319120     1.203307443779     0.562209642064    12.000000000000
         C            2.262812319120    -1.013643556221    -0.820678357936    12.000000000000
         C            2.180227319120     1.397135443779    -0.230682357936    12.000000000000
         C            3.028994319120     0.149368443779    -0.212963357936    12.000000000000
         C           -3.121060680880     1.432261443779    -0.491527357936    12.000000000000
         C           -3.533164680880     2.085828443779    -1.786760357936    12.000000000000
         H           -0.279939680880     0.299464443779    -0.972879357936     1.007825032230
         H            0.373421319120    -2.028700556221    -0.574673357936     1.007825032230
         H            1.160272319120     0.998540443779     1.609514642064     1.007825032230
         H            2.064086319120    -0.787996556221    -1.875397357936     1.007825032230
         H            1.920139319120     1.636950443779    -1.276224357936     1.007825032230
         H            3.299007319120    -0.093868556221     0.825004642064     1.007825032230
         H            0.524927319120    -1.887368556221     1.708868642064     1.007825032230
         H            0.668692319120     3.109974443779     0.680542642064     1.007825032230
         H            2.976695319120    -2.546710556221     0.092012642064     1.007825032230
         H            3.724581319120     2.549849443779    -0.061510357936     1.007825032230
         H            4.642879319120    -0.423170556221    -1.099728357936     1.007825032230
         H           -3.805242680880    -1.521674556221     1.732086642064     1.007825032230
         H           -3.927393680880     1.446204443779     0.246744642064     1.007825032230
         H           -2.226609680880     1.893543443779    -0.061737357936     1.007825032230
         H           -3.797368680880     3.131545443779    -1.605312357936     1.007825032230
         H           -2.714043680880     2.053986443779    -2.507516357936     1.007825032230
         H           -4.397791680880     1.574986443779    -2.215365357936     1.007825032230

  Basis Set: AUG-CC-PVTZ
    Blend: AUG-CC-PVTZ
  Basis Set: (AUG-CC-PVTZ AUX)
    Blend: AUG-CC-PVTZ-JKFIT
	 Reference Energy          =   -1327.8540298958803305 [Eh]
	 Singles Energy            =      -0.0000000000000000 [Eh]
	 Same-Spin Energy          =      -1.0145722561949733 [Eh]
	 Opposite-Spin Energy      =      -3.0755267067524206 [Eh]
	 Correlation Energy        =      -4.0900989629473941 [Eh]
	 Total Energy              =   -1331.9441288588277530 [Eh]

	 ================> DF-SCS-MP2 Energies <==================
	-----------------------------------------------------------
	 SCS Same-Spin Scale       =       0.3333333333333333 [-]
	 SCS Opposite-Spin Scale   =       1.2000000000000000 [-]
	 SCS Same-Spin Energy      =      -0.3381907520649911 [Eh]
	 SCS Opposite-Spin Energy  =      -3.6906320481029047 [Eh]
	 SCS Correlation Energy    =      -4.0288228001678954 [Eh]
	 SCS Total Energy          =   -1331.8828526960483032 [Eh]
	-----------------------------------------------------------

  Dipole Moment: [D]
     X:    -1.5774      Y:     1.7636      Z:     0.8446     Total:     2.5123

*** Psi4 exiting successfully. Buy a developer a beer!
