                               Psi4 1.3.2 release

  ==> Input File <==

--------------------------------------------------------------------------
#psi4
#
memory 32 gb

molecule  {
0 1
  P       -2.2900960    -0.9400430     0.3446780
  O       -0.9821530    -0.2015620     0.9382890
  O        1.3422500    -1.6754830     1.2308510
  O        0.0787050     2.3596040     0.4621680
  O        3.0685150    -2.1870720    -0.8085900
  O        2.8565437     2.5019568     0.3632456
  O        4.1956880     0.4353970    -0.9728740
  O       -2.8268630     0.0333510    -0.8075310
  O       -3.2591210    -0.7232820     1.6216710
  O       -2.1189930    -2.3436440    -0.0996680
  C        0.1181620     0.0300090     0.0163190
  C        0.9532920    -1.2442050    -0.0757250
  C        0.8953635     1.1924501     0.5570476
  C        2.2596600    -1.0143070    -0.8180370
  C        2.1770750     1.3964720    -0.2280410
  C        3.0258420     0.1487050    -0.2103220
  C       -3.1242130     1.4315980    -0.4888860
  C       -3.5363170     2.0851650    -1.7841190
  H       -0.2830920     0.2988010    -0.9702380
  H        0.3702690    -2.0293640    -0.5720320
  H        1.1571200     0.9978770     1.6121560
  H        2.0609340    -0.7886600    -1.8727560
  H        1.9169870     1.6362870    -1.2735830
  H        3.2958550    -0.0945320     0.8276460
  H        0.5217750    -1.8880320     1.7115100
  H        0.6655400     3.1093110     0.6831840
  H        2.9735430    -2.5473740     0.0946540
  H        3.7214290     2.5491860    -0.0588690
  H        4.6397270    -0.4238340    -1.0970870
  H       -3.8083950    -1.5223380     1.7347280
  H       -3.9305460     1.4455410     0.2493860
  H       -2.2297620     1.8928800    -0.0590960
  H       -3.8005210     3.1308820    -1.6026710
  H       -2.7171960     2.0533230    -2.5048750
  H       -4.4009440     1.5743230    -2.2127240
units angstrom
no_reorient  #important for SAPT in psi4, default
symmetry c1  #important for SAPT in psi4, default
}

set PROPERTIES_ORIGIN ["COM"]
properties('MP2/aug-cc-pvtz', properties = ['dipole'])
--------------------------------------------------------------------------

    Molecular point group: c1
  Charge       = 0
  Multiplicity = 1
  Basis Set: AUG-CC-PVTZ
    Blend: AUG-CC-PVTZ
  Basis Set: (AUG-CC-PVTZ AUX)
    Blend: AUG-CC-PVTZ-JKFIT

    Orbital Energies [Eh]
    ---------------------

    Doubly Occupied:

       1A    -80.117245     2A    -20.614949     3A    -20.607544
       4A    -20.599119     5A    -20.583415     6A    -20.575615
       7A    -20.574708     8A    -20.573913     9A    -20.572841
      10A    -20.523683    11A    -11.321121    12A    -11.303976
      13A    -11.299472    14A    -11.299444    15A    -11.299277
      16A    -11.297244    17A    -11.291343    18A    -11.229909
      19A     -7.632691    20A     -5.531197    21A     -5.530826
      22A     -5.529622    23A     -1.460652    24A     -1.411055
      25A     -1.395333    26A     -1.392771    27A     -1.387014
      28A     -1.372370    29A     -1.363822    30A     -1.354112
      31A     -1.304080    32A     -1.120861    33A     -1.040550
      34A     -1.013458    35A     -1.004264    36A     -0.880775
      37A     -0.865199    38A     -0.859215    39A     -0.823024
      40A     -0.810717    41A     -0.751789    42A     -0.745507
      43A     -0.731503    44A     -0.729199    45A     -0.709425
      46A     -0.686650    47A     -0.678410    48A     -0.673884
      49A     -0.662077    50A     -0.661428    51A     -0.644092
      52A     -0.635195    53A     -0.627466    54A     -0.615467
      55A     -0.603421    56A     -0.598453    57A     -0.582059
      58A     -0.575684    59A     -0.571225    60A     -0.559039
      61A     -0.556577    62A     -0.548664    63A     -0.541255
      64A     -0.536510    65A     -0.530050    66A     -0.522694
      67A     -0.513039    68A     -0.504356    69A     -0.497658
      70A     -0.485099    71A     -0.480112    72A     -0.476838
      73A     -0.462571    74A     -0.455753    75A     -0.450156
      76A     -0.436516

  @DF-RHF Final Energy: -1327.86180826139071

   => Energetics <=

    Nuclear Repulsion Energy =           1772.6100472193852511
    One-Electron Energy =               -5357.3272180616559126
    Two-Electron Energy =                2256.8553625808799552
    Total Energy =                      -1327.8618082613907063
  Basis Set: (AUG-CC-PVTZ AUX)
    Blend: AUG-CC-PVTZ-RI
    Molecular point group: c1

    Geometry (in Angstrom), charge = 0, multiplicity = 1:

       Center              X                  Y                   Z               Mass
    ------------   -----------------  -----------------  -----------------  -----------------
         P           -2.290472923307    -0.939554127150     0.345463341894    30.973761998420
         O           -0.982529923307    -0.201073127150     0.939074341894    15.994914619570
         O            1.341873076693    -1.674994127150     1.231636341894    15.994914619570
         O            0.078328076693     2.360092872850     0.462953341894    15.994914619570
         O            3.068138076693    -2.186583127150    -0.807804658106    15.994914619570
         O            2.856166776693     2.502445672850     0.364030941894    15.994914619570
         O            4.195311076693     0.435885872850    -0.972088658106    15.994914619570
         O           -2.827239923307     0.033839872850    -0.806745658106    15.994914619570
         O           -3.259497923307    -0.722793127150     1.622456341894    15.994914619570
         O           -2.119369923307    -2.343155127150    -0.098882658106    15.994914619570
         C            0.117785076693     0.030497872850     0.017104341894    12.000000000000
         C            0.952915076693    -1.243716127150    -0.074939658106    12.000000000000
         C            0.894986576693     1.192938972850     0.557832941894    12.000000000000
         C            2.259283076693    -1.013818127150    -0.817251658106    12.000000000000
         C            2.176698076693     1.396960872850    -0.227255658106    12.000000000000
         C            3.025465076693     0.149193872850    -0.209536658106    12.000000000000
         C           -3.124589923307     1.432086872850    -0.488100658106    12.000000000000
         C           -3.536693923307     2.085653872850    -1.783333658106    12.000000000000
         H           -0.283468923307     0.299289872850    -0.969452658106     1.007825032230
         H            0.369892076693    -2.028875127150    -0.571246658106     1.007825032230
         H            1.156743076693     0.998365872850     1.612941341894     1.007825032230
         H            2.060557076693    -0.788171127150    -1.871970658106     1.007825032230
         H            1.916610076693     1.636775872850    -1.272797658106     1.007825032230
         H            3.295478076693    -0.094043127150     0.828431341894     1.007825032230
         H            0.521398076693    -1.887543127150     1.712295341894     1.007825032230
         H            0.665163076693     3.109799872850     0.683969341894     1.007825032230
         H            2.973166076693    -2.546885127150     0.095439341894     1.007825032230
         H            3.721052076693     2.549674872850    -0.058083658106     1.007825032230
         H            4.639350076693    -0.423345127150    -1.096301658106     1.007825032230
         H           -3.808771923307    -1.521849127150     1.735513341894     1.007825032230
         H           -3.930922923307     1.446029872850     0.250171341894     1.007825032230
         H           -2.230138923307     1.893368872850    -0.058310658106     1.007825032230
         H           -3.800897923307     3.131370872850    -1.601885658106     1.007825032230
         H           -2.717572923307     2.053811872850    -2.504089658106     1.007825032230
         H           -4.401320923307     1.574811872850    -2.211938658106     1.007825032230

  Basis Set: AUG-CC-PVTZ
    Blend: AUG-CC-PVTZ
  Basis Set: (AUG-CC-PVTZ AUX)
    Blend: AUG-CC-PVTZ-JKFIT
	 Reference Energy          =   -1327.8618082613907063 [Eh]
	 Singles Energy            =      -0.0000000000000000 [Eh]
	 Same-Spin Energy          =      -1.0144875528798916 [Eh]
	 Opposite-Spin Energy      =      -3.0757666307044134 [Eh]
	 Correlation Energy        =      -4.0902541835843049 [Eh]
	 Total Energy              =   -1331.9520624449748993 [Eh]

	 ================> DF-SCS-MP2 Energies <==================
	-----------------------------------------------------------
	 SCS Same-Spin Scale       =       0.3333333333333333 [-]
	 SCS Opposite-Spin Scale   =       1.2000000000000000 [-]
	 SCS Same-Spin Energy      =      -0.3381625176266305 [Eh]
	 SCS Opposite-Spin Energy  =      -3.6909199568452959 [Eh]
	 SCS Correlation Energy    =      -4.0290824744719265 [Eh]
	 SCS Total Energy          =   -1331.8908907358627403 [Eh]
	-----------------------------------------------------------

  Dipole Moment: [D]
     X:    -1.1317      Y:     1.8340      Z:     0.7259     Total:     2.2740

*** Psi4 exiting successfully. Buy a developer a beer!
