                               Psi4 1.3.2 release

  ==> Input File <==

--------------------------------------------------------------------------
#psi4
#
memory 32 gb

molecule  {
0 1
  P       -2.2900960    -0.9400430     0.3446780
  O       -0.9821530    -0.2015620     0.9382890
  O        1.3422500    -1.6754830     1.2308510
  O        0.0787050     2.3596040     0.4621680
  O        3.0685150    -2.1870720    -0.8085900
  O        2.8473350     2.5031130     0.3715350
  O        4.1956880     0.4353970    -0.9728740
  O       -2.8268630     0.0333510    -0.8075310
  O       -3.2591210    -0.7232820     1.6216710
  O       -2.1189930    -2.3436440    -0.0996680
  C        0.1181620     0.0300090     0.0163190
  C        0.9532920    -1.2442050    -0.0757250
  C        0.8985890     1.2026440     0.5648510
  C        2.2596600    -1.0143070    -0.8180370
  C        2.1970441     1.3923958    -0.2423242
  C        3.0258420     0.1487050    -0.2103220
  C       -3.1242130     1.4315980    -0.4888860
  C       -3.5363170     2.0851650    -1.7841190
  H       -0.2830920     0.2988010    -0.9702380
  H        0.3702690    -2.0293640    -0.5720320
  H        1.1571200     0.9978770     1.6121560
  H        2.0609340    -0.7886600    -1.8727560
  H        1.9169870     1.6362870    -1.2735830
  H        3.2958550    -0.0945320     0.8276460
  H        0.5217750    -1.8880320     1.7115100
  H        0.6655400     3.1093110     0.6831840
  H        2.9735430    -2.5473740     0.0946540
  H        3.7172978     2.5356766    -0.0683684
  H        4.6397270    -0.4238340    -1.0970870
  H       -3.8083950    -1.5223380     1.7347280
  H       -3.9305460     1.4455410     0.2493860
  H       -2.2297620     1.8928800    -0.0590960
  H       -3.8005210     3.1308820    -1.6026710
  H       -2.7171960     2.0533230    -2.5048750
  H       -4.4009440     1.5743230    -2.2127240
units angstrom
no_reorient  #important for SAPT in psi4, default
symmetry c1  #important for SAPT in psi4, default
}

set PROPERTIES_ORIGIN ["COM"]
properties('MP2/aug-cc-pvtz', properties = ['dipole'])
--------------------------------------------------------------------------

    Molecular point group: c1
  Charge       = 0
  Multiplicity = 1
  Basis Set: AUG-CC-PVTZ
    Blend: AUG-CC-PVTZ
  Basis Set: (AUG-CC-PVTZ AUX)
    Blend: AUG-CC-PVTZ-JKFIT

    Orbital Energies [Eh]
    ---------------------

    Doubly Occupied:

       1A    -80.116738     2A    -20.614579     3A    -20.606650
       4A    -20.598801     5A    -20.583135     6A    -20.577745
       7A    -20.575105     8A    -20.574214     9A    -20.573490
      10A    -20.523296    11A    -11.320120    12A    -11.303537
      13A    -11.299912    14A    -11.299293    15A    -11.298996
      16A    -11.296208    17A    -11.291139    18A    -11.229814
      19A     -7.632192    20A     -5.530698    21A     -5.530323
      22A     -5.529124    23A     -1.460054    24A     -1.410982
      25A     -1.395341    26A     -1.392911    27A     -1.386728
      28A     -1.372707    29A     -1.364401    30A     -1.354388
      31A     -1.303693    32A     -1.118275    33A     -1.040403
      34A     -1.013599    35A     -1.001185    36A     -0.879100
      37A     -0.864480    38A     -0.860227    39A     -0.821982
      40A     -0.810963    41A     -0.751727    42A     -0.745811
      43A     -0.731588    44A     -0.728300    45A     -0.707103
      46A     -0.687133    47A     -0.678376    48A     -0.673652
      49A     -0.662811    50A     -0.660540    51A     -0.642476
      52A     -0.634248    53A     -0.627584    54A     -0.615891
      55A     -0.603021    56A     -0.598766    57A     -0.581795
      58A     -0.575462    59A     -0.571080    60A     -0.560652
      61A     -0.557004    62A     -0.548134    63A     -0.541238
      64A     -0.537775    65A     -0.529815    66A     -0.520791
      67A     -0.513317    68A     -0.504520    69A     -0.496544
      70A     -0.484561    71A     -0.479655    72A     -0.476514
      73A     -0.461189    74A     -0.458343    75A     -0.449207
      76A     -0.436807

  @DF-RHF Final Energy: -1327.86028268631026

   => Energetics <=

    Nuclear Repulsion Energy =           1772.2795207499807475
    One-Electron Energy =               -5356.6996869308641180
    Two-Electron Energy =                2256.5598834945731141
    Total Energy =                      -1327.8602826863102564
  Basis Set: (AUG-CC-PVTZ AUX)
    Blend: AUG-CC-PVTZ-RI
    Molecular point group: c1

    Geometry (in Angstrom), charge = 0, multiplicity = 1:

       Center              X                  Y                   Z               Mass
    ------------   -----------------  -----------------  -----------------  -----------------
         P           -2.290913383121    -0.939825911958     0.345306233125    30.973761998420
         O           -0.982970383121    -0.201344911958     0.938917233125    15.994914619570
         O            1.341432616879    -1.675265911958     1.231479233125    15.994914619570
         O            0.077887616879     2.359821088042     0.462796233125    15.994914619570
         O            3.067697616879    -2.186854911958    -0.807961766875    15.994914619570
         O            2.846517616879     2.503330088042     0.372163233125    15.994914619570
         O            4.194870616879     0.435614088042    -0.972245766875    15.994914619570
         O           -2.827680383121     0.033568088042    -0.806902766875    15.994914619570
         O           -3.259938383121    -0.723064911958     1.622299233125    15.994914619570
         O           -2.119810383121    -2.343426911958    -0.099039766875    15.994914619570
         C            0.117344616879     0.030226088042     0.016947233125    12.000000000000
         C            0.952474616879    -1.243987911958    -0.075096766875    12.000000000000
         C            0.897771616879     1.202861088042     0.565479233125    12.000000000000
         C            2.258842616879    -1.014089911958    -0.817408766875    12.000000000000
         C            2.196226716879     1.392612888042    -0.241695966875    12.000000000000
         C            3.025024616879     0.148922088042    -0.209693766875    12.000000000000
         C           -3.125030383121     1.431815088042    -0.488257766875    12.000000000000
         C           -3.537134383121     2.085382088042    -1.783490766875    12.000000000000
         H           -0.283909383121     0.299018088042    -0.969609766875     1.007825032230
         H            0.369451616879    -2.029146911958    -0.571403766875     1.007825032230
         H            1.156302616879     0.998094088042     1.612784233125     1.007825032230
         H            2.060116616879    -0.788442911958    -1.872127766875     1.007825032230
         H            1.916169616879     1.636504088042    -1.272954766875     1.007825032230
         H            3.295037616879    -0.094314911958     0.828274233125     1.007825032230
         H            0.520957616879    -1.887814911958     1.712138233125     1.007825032230
         H            0.664722616879     3.109528088042     0.683812233125     1.007825032230
         H            2.972725616879    -2.547156911958     0.095282233125     1.007825032230
         H            3.716480416879     2.535893688042    -0.067740166875     1.007825032230
         H            4.638909616879    -0.423616911958    -1.096458766875     1.007825032230
         H           -3.809212383121    -1.522120911958     1.735356233125     1.007825032230
         H           -3.931363383121     1.445758088042     0.250014233125     1.007825032230
         H           -2.230579383121     1.893097088042    -0.058467766875     1.007825032230
         H           -3.801338383121     3.131099088042    -1.602042766875     1.007825032230
         H           -2.718013383121     2.053540088042    -2.504246766875     1.007825032230
         H           -4.401761383121     1.574540088042    -2.212095766875     1.007825032230

  Basis Set: AUG-CC-PVTZ
    Blend: AUG-CC-PVTZ
  Basis Set: (AUG-CC-PVTZ AUX)
    Blend: AUG-CC-PVTZ-JKFIT
	 Reference Energy          =   -1327.8602826863102564 [Eh]
	 Singles Energy            =      -0.0000000000000000 [Eh]
	 Same-Spin Energy          =      -1.0147251401135915 [Eh]
	 Opposite-Spin Energy      =      -3.0763910144044049 [Eh]
	 Correlation Energy        =      -4.0911161545179962 [Eh]
	 Total Energy              =   -1331.9513988408282330 [Eh]

	 ================> DF-SCS-MP2 Energies <==================
	-----------------------------------------------------------
	 SCS Same-Spin Scale       =       0.3333333333333333 [-]
	 SCS Opposite-Spin Scale   =       1.2000000000000000 [-]
	 SCS Same-Spin Energy      =      -0.3382417133711971 [Eh]
	 SCS Opposite-Spin Energy  =      -3.6916692172852859 [Eh]
	 SCS Correlation Energy    =      -4.0299109306564826 [Eh]
	 SCS Total Energy          =   -1331.8901936169668261 [Eh]
	-----------------------------------------------------------

  Dipole Moment: [D]
     X:    -1.1004      Y:     1.8471      Z:     0.7032     Total:     2.2621

*** Psi4 exiting successfully. Buy a developer a beer!
