                               Psi4 1.3.2 release

  ==> Input File <==

--------------------------------------------------------------------------
#psi4
#
memory 32 gb

molecule  {
0 1
  P       -2.2582247    -0.8628184     0.3585629
  O       -0.9821530    -0.2015620     0.9382890
  O        1.3422500    -1.6754830     1.2308510
  O        0.0787050     2.3596040     0.4621680
  O        3.0685150    -2.1870720    -0.8085900
  O        2.8473350     2.5031130     0.3715350
  O        4.1956880     0.4353970    -0.9728740
  O       -2.8268630     0.0333510    -0.8075310
  O       -3.2591210    -0.7232820     1.6216710
  O       -2.1189930    -2.3436440    -0.0996680
  C        0.1181620     0.0300090     0.0163190
  C        0.9532920    -1.2442050    -0.0757250
  C        0.8985890     1.2026440     0.5648510
  C        2.2596600    -1.0143070    -0.8180370
  C        2.1770750     1.3964720    -0.2280410
  C        3.0258420     0.1487050    -0.2103220
  C       -3.1242130     1.4315980    -0.4888860
  C       -3.5363170     2.0851650    -1.7841190
  H       -0.2830920     0.2988010    -0.9702380
  H        0.3702690    -2.0293640    -0.5720320
  H        1.1571200     0.9978770     1.6121560
  H        2.0609340    -0.7886600    -1.8727560
  H        1.9169870     1.6362870    -1.2735830
  H        3.2958550    -0.0945320     0.8276460
  H        0.5217750    -1.8880320     1.7115100
  H        0.6655400     3.1093110     0.6831840
  H        2.9735430    -2.5473740     0.0946540
  H        3.7214290     2.5491860    -0.0588690
  H        4.6397270    -0.4238340    -1.0970870
  H       -3.8302635    -1.4999539     1.7751354
  H       -3.9305460     1.4455410     0.2493860
  H       -2.2297620     1.8928800    -0.0590960
  H       -3.8005210     3.1308820    -1.6026710
  H       -2.7171960     2.0533230    -2.5048750
  H       -4.4009440     1.5743230    -2.2127240
units angstrom
no_reorient  #important for SAPT in psi4, default
symmetry c1  #important for SAPT in psi4, default
}

set PROPERTIES_ORIGIN ["COM"]
properties('MP2/aug-cc-pvtz', properties = ['dipole'])
--------------------------------------------------------------------------

    Molecular point group: c1
  Charge       = 0
  Multiplicity = 1
  Basis Set: AUG-CC-PVTZ
    Blend: AUG-CC-PVTZ
  Basis Set: (AUG-CC-PVTZ AUX)
    Blend: AUG-CC-PVTZ-JKFIT

    Orbital Energies [Eh]
    ---------------------

    Doubly Occupied:

       1A    -80.116368     2A    -20.620399     3A    -20.606843
       4A    -20.604819     5A    -20.585451     6A    -20.579956
       7A    -20.578447     8A    -20.576455     9A    -20.576241
      10A    -20.503828    11A    -11.330121    12A    -11.306367
      13A    -11.304057    14A    -11.303598    15A    -11.301845
      16A    -11.300486    17A    -11.294019    18A    -11.232733
      19A     -7.631456    20A     -5.530112    21A     -5.529842
      22A     -5.527921    23A     -1.476213    24A     -1.416267
      25A     -1.403159    26A     -1.396761    27A     -1.387928
      28A     -1.378844    29A     -1.367115    30A     -1.356803
      31A     -1.256370    32A     -1.125037    33A     -1.044799
      34A     -1.020251    35A     -1.007051    36A     -0.887597
      37A     -0.870003    38A     -0.863316    39A     -0.828433
      40A     -0.815458    41A     -0.757658    42A     -0.752944
      43A     -0.739600    44A     -0.736312    45A     -0.712729
      46A     -0.691634    47A     -0.680713    48A     -0.676648
      49A     -0.664671    50A     -0.657110    51A     -0.648607
      52A     -0.640167    53A     -0.630028    54A     -0.619886
      55A     -0.609626    56A     -0.601065    57A     -0.580651
      58A     -0.577454    59A     -0.574588    60A     -0.560954
      61A     -0.555822    62A     -0.549766    63A     -0.539807
      64A     -0.537235    65A     -0.531689    66A     -0.520449
      67A     -0.517475    68A     -0.508064    69A     -0.497897
      70A     -0.490528    71A     -0.476585    72A     -0.459886
      73A     -0.459014    74A     -0.447313    75A     -0.444677
      76A     -0.433277

  @DF-RHF Final Energy: -1327.85079522368960

   => Energetics <=

    Nuclear Repulsion Energy =           1774.8633433010911631
    One-Electron Energy =               -5361.5776849270750972
    Two-Electron Energy =                2258.8635464022945598
    Total Energy =                      -1327.8507952236896017
  Basis Set: (AUG-CC-PVTZ AUX)
    Blend: AUG-CC-PVTZ-RI
    Molecular point group: c1

    Geometry (in Angstrom), charge = 0, multiplicity = 1:

       Center              X                  Y                   Z               Mass
    ------------   -----------------  -----------------  -----------------  -----------------
         P           -2.261575118546    -0.871200271845     0.356928545454    30.973761998420
         O           -0.985503418546    -0.209943871845     0.936654645454    15.994914619570
         O            1.338899581454    -1.683864871845     1.229216645454    15.994914619570
         O            0.075354581454     2.351222128155     0.460533645454    15.994914619570
         O            3.065164581454    -2.195453871845    -0.810224354546    15.994914619570
         O            2.843984581454     2.494731128155     0.369900645454    15.994914619570
         O            4.192337581454     0.427015128155    -0.974508354546    15.994914619570
         O           -2.830213418546     0.024969128155    -0.809165354546    15.994914619570
         O           -3.262471418546    -0.731663871845     1.620036645454    15.994914619570
         O           -2.122343418546    -2.352025871845    -0.101302354546    15.994914619570
         C            0.114811581454     0.021627128155     0.014684645454    12.000000000000
         C            0.949941581454    -1.252586871845    -0.077359354546    12.000000000000
         C            0.895238581454     1.194262128155     0.563216645454    12.000000000000
         C            2.256309581454    -1.022688871845    -0.819671354546    12.000000000000
         C            2.173724581454     1.388090128155    -0.229675354546    12.000000000000
         C            3.022491581454     0.140323128155    -0.211956354546    12.000000000000
         C           -3.127563418546     1.423216128155    -0.490520354546    12.000000000000
         C           -3.539667418546     2.076783128155    -1.785753354546    12.000000000000
         H           -0.286442418546     0.290419128155    -0.971872354546     1.007825032230
         H            0.366918581454    -2.037745871845    -0.573666354546     1.007825032230
         H            1.153769581454     0.989495128155     1.610521645454     1.007825032230
         H            2.057583581454    -0.797041871845    -1.874390354546     1.007825032230
         H            1.913636581454     1.627905128155    -1.275217354546     1.007825032230
         H            3.292504581454    -0.102913871845     0.826011645454     1.007825032230
         H            0.518424581454    -1.896413871845     1.709875645454     1.007825032230
         H            0.662189581454     3.100929128155     0.681549645454     1.007825032230
         H            2.970192581454    -2.555755871845     0.093019645454     1.007825032230
         H            3.718078581454     2.540804128155    -0.060503354546     1.007825032230
         H            4.636376581454    -0.432215871845    -1.098721354546     1.007825032230
         H           -3.833613918546    -1.508335771845     1.773501045454     1.007825032230
         H           -3.933896418546     1.437159128155     0.247751645454     1.007825032230
         H           -2.233112418546     1.884498128155    -0.060730354546     1.007825032230
         H           -3.803871418546     3.122500128155    -1.604305354546     1.007825032230
         H           -2.720546418546     2.044941128155    -2.506509354546     1.007825032230
         H           -4.404294418546     1.565941128155    -2.214358354546     1.007825032230

  Basis Set: AUG-CC-PVTZ
    Blend: AUG-CC-PVTZ
  Basis Set: (AUG-CC-PVTZ AUX)
    Blend: AUG-CC-PVTZ-JKFIT
	 Reference Energy          =   -1327.8507952236896017 [Eh]
	 Singles Energy            =      -0.0000000000000000 [Eh]
	 Same-Spin Energy          =      -1.0150122899840701 [Eh]
	 Opposite-Spin Energy      =      -3.0764241091451776 [Eh]
	 Correlation Energy        =      -4.0914363991292477 [Eh]
	 Total Energy              =   -1331.9422316228187810 [Eh]

	 ================> DF-SCS-MP2 Energies <==================
	-----------------------------------------------------------
	 SCS Same-Spin Scale       =       0.3333333333333333 [-]
	 SCS Opposite-Spin Scale   =       1.2000000000000000 [-]
	 SCS Same-Spin Energy      =      -0.3383374299946900 [Eh]
	 SCS Opposite-Spin Energy  =      -3.6917089309742130 [Eh]
	 SCS Correlation Energy    =      -4.0300463609689032 [Eh]
	 SCS Total Energy          =   -1331.8808415846585831 [Eh]
	-----------------------------------------------------------

  Dipole Moment: [D]
     X:    -0.6552      Y:     2.7088      Z:     0.8116     Total:     2.9027

*** Psi4 exiting successfully. Buy a developer a beer!
