                               Psi4 1.3.2 release

  ==> Input File <==

--------------------------------------------------------------------------
#psi4
#
memory 32 gb

molecule  {
0 1
  P       -2.2900960    -0.9400430     0.3446780
  O       -0.9821530    -0.2015620     0.9382890
  O        1.3362096    -1.6657518     1.2358017
  O        0.0787050     2.3596040     0.4621680
  O        3.0685150    -2.1870720    -0.8085900
  O        2.8473350     2.5031130     0.3715350
  O        4.1956880     0.4353970    -0.9728740
  O       -2.8268630     0.0333510    -0.8075310
  O       -3.2591210    -0.7232820     1.6216710
  O       -2.1189930    -2.3436440    -0.0996680
  C        0.1193712     0.0297739     0.0295812
  C        0.9532920    -1.2442050    -0.0757250
  C        0.8985890     1.2026440     0.5648510
  C        2.2596600    -1.0143070    -0.8180370
  C        2.1770750     1.3964720    -0.2280410
  C        3.0258420     0.1487050    -0.2103220
  C       -3.1242130     1.4315980    -0.4888860
  C       -3.5363170     2.0851650    -1.7841190
  H       -0.2830920     0.2988010    -0.9702380
  H        0.3702690    -2.0293640    -0.5720320
  H        1.1571200     0.9978770     1.6121560
  H        2.0609340    -0.7886600    -1.8727560
  H        1.9169870     1.6362870    -1.2735830
  H        3.2958550    -0.0945320     0.8276460
  H        0.5217750    -1.8880320     1.7115100
  H        0.6655400     3.1093110     0.6831840
  H        2.9735430    -2.5473740     0.0946540
  H        3.7214290     2.5491860    -0.0588690
  H        4.6397270    -0.4238340    -1.0970870
  H       -3.8083950    -1.5223380     1.7347280
  H       -3.9305460     1.4455410     0.2493860
  H       -2.2297620     1.8928800    -0.0590960
  H       -3.8005210     3.1308820    -1.6026710
  H       -2.7171960     2.0533230    -2.5048750
  H       -4.4009440     1.5743230    -2.2127240
units angstrom
no_reorient  #important for SAPT in psi4, default
symmetry c1  #important for SAPT in psi4, default
}

set PROPERTIES_ORIGIN ["COM"]
properties('MP2/aug-cc-pvtz', properties = ['dipole'])
--------------------------------------------------------------------------

    Molecular point group: c1
  Charge       = 0
  Multiplicity = 1
  Basis Set: AUG-CC-PVTZ
    Blend: AUG-CC-PVTZ
  Basis Set: (AUG-CC-PVTZ AUX)
    Blend: AUG-CC-PVTZ-JKFIT

    Orbital Energies [Eh]
    ---------------------

    Doubly Occupied:

       1A    -80.117417     2A    -20.615009     3A    -20.607353
       4A    -20.598985     5A    -20.582085     6A    -20.576756
       7A    -20.575004     8A    -20.574126     9A    -20.573320
      10A    -20.523674    11A    -11.320600    12A    -11.303506
      13A    -11.299587    14A    -11.299337    15A    -11.298061
      16A    -11.296696    17A    -11.291457    18A    -11.229780
      19A     -7.632834    20A     -5.531336    21A     -5.530976
      22A     -5.529767    23A     -1.461142    24A     -1.411406
      25A     -1.395327    26A     -1.393254    27A     -1.386988
      28A     -1.373235    29A     -1.364268    30A     -1.354038
      31A     -1.304108    32A     -1.119042    33A     -1.040421
      34A     -1.011986    35A     -1.003753    36A     -0.880970
      37A     -0.864900    38A     -0.859416    39A     -0.822514
      40A     -0.809933    41A     -0.751795    42A     -0.745003
      43A     -0.731752    44A     -0.729307    45A     -0.708006
      46A     -0.687104    47A     -0.679339    48A     -0.673423
      49A     -0.662500    50A     -0.661119    51A     -0.643459
      52A     -0.635287    53A     -0.627643    54A     -0.615289
      55A     -0.604086    56A     -0.598659    57A     -0.581666
      58A     -0.575816    59A     -0.570851    60A     -0.559234
      61A     -0.556589    62A     -0.548194    63A     -0.541178
      64A     -0.536604    65A     -0.529095    66A     -0.521982
      67A     -0.513093    68A     -0.504193    69A     -0.497323
      70A     -0.483576    71A     -0.479916    72A     -0.476647
      73A     -0.462500    74A     -0.455804    75A     -0.449870
      76A     -0.436581

  @DF-RHF Final Energy: -1327.86167453305461

   => Energetics <=

    Nuclear Repulsion Energy =           1772.7330665600195516
    One-Electron Energy =               -5357.5917822878691368
    Two-Electron Energy =                2256.9970411947952016
    Total Energy =                      -1327.8616745330546109
  Basis Set: (AUG-CC-PVTZ AUX)
    Blend: AUG-CC-PVTZ-RI
    Molecular point group: c1

    Geometry (in Angstrom), charge = 0, multiplicity = 1:

       Center              X                  Y                   Z               Mass
    ------------   -----------------  -----------------  -----------------  -----------------
         P           -2.289810939770    -0.940573524478     0.343850622928    30.973761998420
         O           -0.981867939770    -0.202092524478     0.937461622928    15.994914619570
         O            1.336494660230    -1.666282324478     1.234974322928    15.994914619570
         O            0.078990060230     2.359073475522     0.461340622928    15.994914619570
         O            3.068800060230    -2.187602524478    -0.809417377072    15.994914619570
         O            2.847620060230     2.502582475522     0.370707622928    15.994914619570
         O            4.195973060230     0.434866475522    -0.973701377072    15.994914619570
         O           -2.826577939770     0.032820475522    -0.808358377072    15.994914619570
         O           -3.258835939770    -0.723812524478     1.620843622928    15.994914619570
         O           -2.118707939770    -2.344174524478    -0.100495377072    15.994914619570
         C            0.119656260230     0.029243375522     0.028753822928    12.000000000000
         C            0.953577060230    -1.244735524478    -0.076552377072    12.000000000000
         C            0.898874060230     1.202113475522     0.564023622928    12.000000000000
         C            2.259945060230    -1.014837524478    -0.818864377072    12.000000000000
         C            2.177360060230     1.395941475522    -0.228868377072    12.000000000000
         C            3.026127060230     0.148174475522    -0.211149377072    12.000000000000
         C           -3.123927939770     1.431067475522    -0.489713377072    12.000000000000
         C           -3.536031939770     2.084634475522    -1.784946377072    12.000000000000
         H           -0.282806939770     0.298270475522    -0.971065377072     1.007825032230
         H            0.370554060230    -2.029894524478    -0.572859377072     1.007825032230
         H            1.157405060230     0.997346475522     1.611328622928     1.007825032230
         H            2.061219060230    -0.789190524478    -1.873583377072     1.007825032230
         H            1.917272060230     1.635756475522    -1.274410377072     1.007825032230
         H            3.296140060230    -0.095062524478     0.826818622928     1.007825032230
         H            0.522060060230    -1.888562524478     1.710682622928     1.007825032230
         H            0.665825060230     3.108780475522     0.682356622928     1.007825032230
         H            2.973828060230    -2.547904524478     0.093826622928     1.007825032230
         H            3.721714060230     2.548655475522    -0.059696377072     1.007825032230
         H            4.640012060230    -0.424364524478    -1.097914377072     1.007825032230
         H           -3.808109939770    -1.522868524478     1.733900622928     1.007825032230
         H           -3.930260939770     1.445010475522     0.248558622928     1.007825032230
         H           -2.229476939770     1.892349475522    -0.059923377072     1.007825032230
         H           -3.800235939770     3.130351475522    -1.603498377072     1.007825032230
         H           -2.716910939770     2.052792475522    -2.505702377072     1.007825032230
         H           -4.400658939770     1.573792475522    -2.213551377072     1.007825032230

  Basis Set: AUG-CC-PVTZ
    Blend: AUG-CC-PVTZ
  Basis Set: (AUG-CC-PVTZ AUX)
    Blend: AUG-CC-PVTZ-JKFIT
	 Reference Energy          =   -1327.8616745330546109 [Eh]
	 Singles Energy            =      -0.0000000000000000 [Eh]
	 Same-Spin Energy          =      -1.0145378903615951 [Eh]
	 Opposite-Spin Energy      =      -3.0758372974524879 [Eh]
	 Correlation Energy        =      -4.0903751878140833 [Eh]
	 Total Energy              =   -1331.9520497208686720 [Eh]

	 ================> DF-SCS-MP2 Energies <==================
	-----------------------------------------------------------
	 SCS Same-Spin Scale       =       0.3333333333333333 [-]
	 SCS Opposite-Spin Scale   =       1.2000000000000000 [-]
	 SCS Same-Spin Energy      =      -0.3381792967871984 [Eh]
	 SCS Opposite-Spin Energy  =      -3.6910047569429851 [Eh]
	 SCS Correlation Energy    =      -4.0291840537301837 [Eh]
	 SCS Total Energy          =   -1331.8908585867848160 [Eh]
	-----------------------------------------------------------

  Dipole Moment: [D]
     X:    -1.1144      Y:     1.8314      Z:     0.7240     Total:     2.2628

*** Psi4 exiting successfully. Buy a developer a beer!
