                               Psi4 1.3.2 release

  ==> Input File <==

--------------------------------------------------------------------------
#psi4
#
memory 32 gb

molecule  {
0 1
  P       -2.2900960    -0.9400430     0.3446780
  O       -0.9821530    -0.2015620     0.9382890
  O        1.3422500    -1.6754830     1.2308510
  O        0.0787050     2.3596040     0.4621680
  O        3.0685150    -2.1870720    -0.8085900
  O        2.8473350     2.5031130     0.3715350
  O        4.1956880     0.4353970    -0.9728740
  O       -2.8268630     0.0333510    -0.8075310
  O       -3.2591210    -0.7232820     1.6216710
  O       -2.1189930    -2.3436440    -0.0996680
  C        0.1181620     0.0300090     0.0163190
  C        0.9532920    -1.2442050    -0.0757250
  C        0.8985890     1.2026440     0.5648510
  C        2.2607874    -1.0209438    -0.8066126
  C        2.1770750     1.3964720    -0.2280410
  C        3.0258420     0.1487050    -0.2103220
  C       -3.1242130     1.4315980    -0.4888860
  C       -3.5363170     2.0851650    -1.7841190
  H       -0.2830920     0.2988010    -0.9702380
  H        0.3702690    -2.0293640    -0.5720320
  H        1.1571200     0.9978770     1.6121560
  H        2.0609340    -0.7886600    -1.8727560
  H        1.9169870     1.6362870    -1.2735830
  H        3.2915440    -0.1030568     0.8267254
  H        0.5217750    -1.8880320     1.7115100
  H        0.6655400     3.1093110     0.6831840
  H        2.9735430    -2.5473740     0.0946540
  H        3.7214290     2.5491860    -0.0588690
  H        4.6397270    -0.4238340    -1.0970870
  H       -3.8083950    -1.5223380     1.7347280
  H       -3.9305460     1.4455410     0.2493860
  H       -2.2297620     1.8928800    -0.0590960
  H       -3.8005210     3.1308820    -1.6026710
  H       -2.7171960     2.0533230    -2.5048750
  H       -4.4009440     1.5743230    -2.2127240
units angstrom
no_reorient  #important for SAPT in psi4, default
symmetry c1  #important for SAPT in psi4, default
}

set PROPERTIES_ORIGIN ["COM"]
properties('MP2/aug-cc-pvtz', properties = ['dipole'])
--------------------------------------------------------------------------

    Molecular point group: c1
  Charge       = 0
  Multiplicity = 1
  Basis Set: AUG-CC-PVTZ
    Blend: AUG-CC-PVTZ
  Basis Set: (AUG-CC-PVTZ AUX)
    Blend: AUG-CC-PVTZ-JKFIT

    Orbital Energies [Eh]
    ---------------------

    Doubly Occupied:

       1A    -80.117021     2A    -20.614793     3A    -20.607214
       4A    -20.598974     5A    -20.583088     6A    -20.576746
       7A    -20.575692     8A    -20.574391     9A    -20.573463
      10A    -20.523508    11A    -11.320956    12A    -11.303318
      13A    -11.299459    14A    -11.299400    15A    -11.298634
      16A    -11.296750    17A    -11.291289    18A    -11.229858
      19A     -7.632472    20A     -5.530978    21A     -5.530605
      22A     -5.529403    23A     -1.460383    24A     -1.411515
      25A     -1.394842    26A     -1.393835    27A     -1.386934
      28A     -1.372844    29A     -1.364948    30A     -1.354484
      31A     -1.303904    32A     -1.119124    33A     -1.040467
      34A     -1.011957    35A     -1.003763    36A     -0.880605
      37A     -0.865046    38A     -0.858608    39A     -0.822234
      40A     -0.810293    41A     -0.752305    42A     -0.745635
      43A     -0.731648    44A     -0.728731    45A     -0.708015
      46A     -0.687266    47A     -0.678592    48A     -0.673854
      49A     -0.662179    50A     -0.660998    51A     -0.643260
      52A     -0.634886    53A     -0.627760    54A     -0.615582
      55A     -0.603580    56A     -0.598629    57A     -0.581676
      58A     -0.575487    59A     -0.571393    60A     -0.559365
      61A     -0.556310    62A     -0.548549    63A     -0.541288
      64A     -0.536799    65A     -0.529436    66A     -0.521472
      67A     -0.513095    68A     -0.504409    69A     -0.497100
      70A     -0.485046    71A     -0.479910    72A     -0.476676
      73A     -0.462547    74A     -0.456183    75A     -0.450252
      76A     -0.435731

  @DF-RHF Final Energy: -1327.86102983053206

   => Energetics <=

    Nuclear Repulsion Energy =           1772.5865985011498651
    One-Electron Energy =               -5357.2963733361102641
    Two-Electron Energy =                2256.8487450044285652
    Total Energy =                      -1327.8610298305320612
  Basis Set: (AUG-CC-PVTZ AUX)
    Blend: AUG-CC-PVTZ-RI
    Molecular point group: c1

    Geometry (in Angstrom), charge = 0, multiplicity = 1:

       Center              X                  Y                   Z               Mass
    ------------   -----------------  -----------------  -----------------  -----------------
         P           -2.290127849530    -0.939736682268     0.344205295795    30.973761998420
         O           -0.982184849530    -0.201255682268     0.937816295795    15.994914619570
         O            1.342218150470    -1.675176682268     1.230378295795    15.994914619570
         O            0.078673150470     2.359910317732     0.461695295795    15.994914619570
         O            3.068483150470    -2.186765682268    -0.809062704205    15.994914619570
         O            2.847303150470     2.503419317732     0.371062295795    15.994914619570
         O            4.195656150470     0.435703317732    -0.973346704205    15.994914619570
         O           -2.826894849530     0.033657317732    -0.808003704205    15.994914619570
         O           -3.259152849530    -0.722975682268     1.621198295795    15.994914619570
         O           -2.119024849530    -2.343337682268    -0.100140704205    15.994914619570
         C            0.118130150470     0.030315317732     0.015846295795    12.000000000000
         C            0.953260150470    -1.243898682268    -0.076197704205    12.000000000000
         C            0.898557150470     1.202950317732     0.564378295795    12.000000000000
         C            2.260755550470    -1.020637482268    -0.807085304205    12.000000000000
         C            2.177043150470     1.396778317732    -0.228513704205    12.000000000000
         C            3.025810150470     0.149011317732    -0.210794704205    12.000000000000
         C           -3.124244849530     1.431904317732    -0.489358704205    12.000000000000
         C           -3.536348849530     2.085471317732    -1.784591704205    12.000000000000
         H           -0.283123849530     0.299107317732    -0.970710704205     1.007825032230
         H            0.370237150470    -2.029057682268    -0.572504704205     1.007825032230
         H            1.157088150470     0.998183317732     1.611683295795     1.007825032230
         H            2.060902150470    -0.788353682268    -1.873228704205     1.007825032230
         H            1.916955150470     1.636593317732    -1.274055704205     1.007825032230
         H            3.291512150470    -0.102750482268     0.826252695795     1.007825032230
         H            0.521743150470    -1.887725682268     1.711037295795     1.007825032230
         H            0.665508150470     3.109617317732     0.682711295795     1.007825032230
         H            2.973511150470    -2.547067682268     0.094181295795     1.007825032230
         H            3.721397150470     2.549492317732    -0.059341704205     1.007825032230
         H            4.639695150470    -0.423527682268    -1.097559704205     1.007825032230
         H           -3.808426849530    -1.522031682268     1.734255295795     1.007825032230
         H           -3.930577849530     1.445847317732     0.248913295795     1.007825032230
         H           -2.229793849530     1.893186317732    -0.059568704205     1.007825032230
         H           -3.800552849530     3.131188317732    -1.603143704205     1.007825032230
         H           -2.717227849530     2.053629317732    -2.505347704205     1.007825032230
         H           -4.400975849530     1.574629317732    -2.213196704205     1.007825032230

  Basis Set: AUG-CC-PVTZ
    Blend: AUG-CC-PVTZ
  Basis Set: (AUG-CC-PVTZ AUX)
    Blend: AUG-CC-PVTZ-JKFIT
	 Reference Energy          =   -1327.8610298305320612 [Eh]
	 Singles Energy            =      -0.0000000000000000 [Eh]
	 Same-Spin Energy          =      -1.0146993402926336 [Eh]
	 Opposite-Spin Energy      =      -3.0761642505619613 [Eh]
	 Correlation Energy        =      -4.0908635908545952 [Eh]
	 Total Energy              =   -1331.9518934213865577 [Eh]

	 ================> DF-SCS-MP2 Energies <==================
	-----------------------------------------------------------
	 SCS Same-Spin Scale       =       0.3333333333333333 [-]
	 SCS Opposite-Spin Scale   =       1.2000000000000000 [-]
	 SCS Same-Spin Energy      =      -0.3382331134308779 [Eh]
	 SCS Opposite-Spin Energy  =      -3.6913971006743536 [Eh]
	 SCS Correlation Energy    =      -4.0296302141052314 [Eh]
	 SCS Total Energy          =   -1331.8906600446373432 [Eh]
	-----------------------------------------------------------

  Dipole Moment: [D]
     X:    -1.1091      Y:     1.8411      Z:     0.7322     Total:     2.2706

*** Psi4 exiting successfully. Buy a developer a beer!
