                               Psi4 1.3.2 release

  ==> Input File <==

--------------------------------------------------------------------------
#psi4
#
memory 32 gb

molecule  {
0 1
  P       -2.2900960    -0.9400430     0.3446780
  O       -0.9821530    -0.2015620     0.9382890
  O        1.3422500    -1.6754830     1.2308510
  O        0.0787050     2.3596040     0.4621680
  O        3.0685150    -2.1870720    -0.8085900
  O        2.8473350     2.5031130     0.3715350
  O        4.1956880     0.4353970    -0.9728740
  O       -2.8268630     0.0333510    -0.8075310
  O       -3.2591210    -0.7232820     1.6216710
  O       -2.1189930    -2.3436440    -0.0996680
  C        0.1181620     0.0300090     0.0163190
  C        0.9532920    -1.2442050    -0.0757250
  C        0.8985890     1.2026440     0.5648510
  C        2.2596600    -1.0143070    -0.8180370
  C        2.1770750     1.3964720    -0.2280410
  C        3.0258420     0.1487050    -0.2103220
  C       -3.1242130     1.4315980    -0.4888860
  C       -3.5363170     2.0851650    -1.7841190
  H       -0.2830920     0.2988010    -0.9702380
  H        0.3702690    -2.0293640    -0.5720320
  H        1.1571200     0.9978770     1.6121560
  H        2.0609340    -0.7886600    -1.8727560
  H        1.9169870     1.6362870    -1.2735830
  H        3.2958550    -0.0945320     0.8276460
  H        0.4375690    -1.9098461     1.7608404
  H        0.6655400     3.1093110     0.6831840
  H        2.9735430    -2.5473740     0.0946540
  H        3.7214290     2.5491860    -0.0588690
  H        4.6397270    -0.4238340    -1.0970870
  H       -3.8083950    -1.5223380     1.7347280
  H       -3.9305460     1.4455410     0.2493860
  H       -2.2297620     1.8928800    -0.0590960
  H       -3.8005210     3.1308820    -1.6026710
  H       -2.7171960     2.0533230    -2.5048750
  H       -4.4009440     1.5743230    -2.2127240
units angstrom
no_reorient  #important for SAPT in psi4, default
symmetry c1  #important for SAPT in psi4, default
}

set PROPERTIES_ORIGIN ["COM"]
properties('MP2/aug-cc-pvtz', properties = ['dipole'])
--------------------------------------------------------------------------

    Molecular point group: c1
  Charge       = 0
  Multiplicity = 1
  Basis Set: AUG-CC-PVTZ
    Blend: AUG-CC-PVTZ
  Basis Set: (AUG-CC-PVTZ AUX)
    Blend: AUG-CC-PVTZ-JKFIT

    Orbital Energies [Eh]
    ---------------------

    Doubly Occupied:

       1A    -80.117288     2A    -20.615255     3A    -20.607242
       4A    -20.599092     5A    -20.589170     6A    -20.576465
       7A    -20.573985     8A    -20.573683     9A    -20.573152
      10A    -20.523927    11A    -11.320130    12A    -11.302181
      13A    -11.299469    14A    -11.298810    15A    -11.298153
      16A    -11.296297    17A    -11.290959    18A    -11.229902
      19A     -7.632747    20A     -5.531252    21A     -5.530881
      22A     -5.529677    23A     -1.460435    24A     -1.407591
      25A     -1.394258    26A     -1.389458    27A     -1.387077
      28A     -1.369340    29A     -1.358745    30A     -1.349504
      31A     -1.304292    32A     -1.116692    33A     -1.040524
      34A     -1.011332    35A     -1.000567    36A     -0.879167
      37A     -0.864510    38A     -0.858144    39A     -0.822353
      40A     -0.805287    41A     -0.748885    42A     -0.743241
      43A     -0.730388    44A     -0.726408    45A     -0.707465
      46A     -0.686559    47A     -0.673629    48A     -0.671722
      49A     -0.661285    50A     -0.659611    51A     -0.642491
      52A     -0.634138    53A     -0.627047    54A     -0.613671
      55A     -0.603241    56A     -0.596333    57A     -0.581514
      58A     -0.575648    59A     -0.567077    60A     -0.559141
      61A     -0.555815    62A     -0.546765    63A     -0.541005
      64A     -0.535716    65A     -0.529041    66A     -0.521057
      67A     -0.512566    68A     -0.503065    69A     -0.496397
      70A     -0.484311    71A     -0.479807    72A     -0.476823
      73A     -0.462031    74A     -0.455409    75A     -0.449107
      76A     -0.435193

  @DF-RHF Final Energy: -1327.84793536030611

   => Energetics <=

    Nuclear Repulsion Energy =           1771.9008963353162471
    One-Electron Energy =               -5356.0524731274972510
    Two-Electron Energy =                2256.3036414318748939
    Total Energy =                      -1327.8479353603061099
  Basis Set: (AUG-CC-PVTZ AUX)
    Blend: AUG-CC-PVTZ-RI
    Molecular point group: c1

    Geometry (in Angstrom), charge = 0, multiplicity = 1:

       Center              X                  Y                   Z               Mass
    ------------   -----------------  -----------------  -----------------  -----------------
         P           -2.289801359742    -0.939966662399     0.344505400906    30.973761998420
         O           -0.981858359742    -0.201485662399     0.938116400906    15.994914619570
         O            1.342544640258    -1.675406662399     1.230678400906    15.994914619570
         O            0.078999640258     2.359680337601     0.461995400906    15.994914619570
         O            3.068809640258    -2.186995662399    -0.808762599094    15.994914619570
         O            2.847629640258     2.503189337601     0.371362400906    15.994914619570
         O            4.195982640258     0.435473337601    -0.973046599094    15.994914619570
         O           -2.826568359742     0.033427337601    -0.807703599094    15.994914619570
         O           -3.258826359742    -0.723205662399     1.621498400906    15.994914619570
         O           -2.118698359742    -2.343567662399    -0.099840599094    15.994914619570
         C            0.118456640258     0.030085337601     0.016146400906    12.000000000000
         C            0.953586640258    -1.244128662399    -0.075897599094    12.000000000000
         C            0.898883640258     1.202720337601     0.564678400906    12.000000000000
         C            2.259954640258    -1.014230662399    -0.818209599094    12.000000000000
         C            2.177369640258     1.396548337601    -0.228213599094    12.000000000000
         C            3.026136640258     0.148781337601    -0.210494599094    12.000000000000
         C           -3.123918359742     1.431674337601    -0.489058599094    12.000000000000
         C           -3.536022359742     2.085241337601    -1.784291599094    12.000000000000
         H           -0.282797359742     0.298877337601    -0.970410599094     1.007825032230
         H            0.370563640258    -2.029287662399    -0.572204599094     1.007825032230
         H            1.157414640258     0.997953337601     1.611983400906     1.007825032230
         H            2.061228640258    -0.788583662399    -1.872928599094     1.007825032230
         H            1.917281640258     1.636363337601    -1.273755599094     1.007825032230
         H            3.296149640258    -0.094455662399     0.827473400906     1.007825032230
         H            0.437863640258    -1.909769762399     1.760667800906     1.007825032230
         H            0.665834640258     3.109387337601     0.683011400906     1.007825032230
         H            2.973837640258    -2.547297662399     0.094481400906     1.007825032230
         H            3.721723640258     2.549262337601    -0.059041599094     1.007825032230
         H            4.640021640258    -0.423757662399    -1.097259599094     1.007825032230
         H           -3.808100359742    -1.522261662399     1.734555400906     1.007825032230
         H           -3.930251359742     1.445617337601     0.249213400906     1.007825032230
         H           -2.229467359742     1.892956337601    -0.059268599094     1.007825032230
         H           -3.800226359742     3.130958337601    -1.602843599094     1.007825032230
         H           -2.716901359742     2.053399337601    -2.505047599094     1.007825032230
         H           -4.400649359742     1.574399337601    -2.212896599094     1.007825032230

  Basis Set: AUG-CC-PVTZ
    Blend: AUG-CC-PVTZ
  Basis Set: (AUG-CC-PVTZ AUX)
    Blend: AUG-CC-PVTZ-JKFIT
	 Reference Energy          =   -1327.8479353603061099 [Eh]
	 Singles Energy            =      -0.0000000000000000 [Eh]
	 Same-Spin Energy          =      -1.0159485504581813 [Eh]
	 Opposite-Spin Energy      =      -3.0795027273192179 [Eh]
	 Correlation Energy        =      -4.0954512777773990 [Eh]
	 Total Energy              =   -1331.9433866380834388 [Eh]

	 ================> DF-SCS-MP2 Energies <==================
	-----------------------------------------------------------
	 SCS Same-Spin Scale       =       0.3333333333333333 [-]
	 SCS Opposite-Spin Scale   =       1.2000000000000000 [-]
	 SCS Same-Spin Energy      =      -0.3386495168193938 [Eh]
	 SCS Opposite-Spin Energy  =      -3.6954032727830612 [Eh]
	 SCS Correlation Energy    =      -4.0340527896024554 [Eh]
	 SCS Total Energy          =   -1331.8819881499084659 [Eh]
	-----------------------------------------------------------

  Dipole Moment: [D]
     X:    -1.2007      Y:     1.8379      Z:     0.7787     Total:     2.3293

*** Psi4 exiting successfully. Buy a developer a beer!
