                               Psi4 1.3.2 release

  ==> Input File <==

--------------------------------------------------------------------------
#psi4
#
memory 32 gb

molecule  {
0 1
  P       -2.2900960    -0.9400430     0.3446780
  O       -0.9821530    -0.2015620     0.9382890
  O        1.3422500    -1.6754830     1.2308510
  O        0.0787050     2.3596040     0.4621680
  O        3.0685150    -2.1870720    -0.8085900
  O        2.8864681     2.4736003     0.3801943
  O        4.1956880     0.4353970    -0.9728740
  O       -2.8268630     0.0333510    -0.8075310
  O       -3.2591210    -0.7232820     1.6216710
  O       -2.1189930    -2.3436440    -0.0996680
  C        0.1181620     0.0300090     0.0163190
  C        0.9532920    -1.2442050    -0.0757250
  C        0.8985890     1.2026440     0.5648510
  C        2.2596600    -1.0143070    -0.8180370
  C        2.1770750     1.3964720    -0.2280410
  C        3.0638839     0.1760364    -0.1862229
  C       -3.1242130     1.4315980    -0.4888860
  C       -3.5363170     2.0851650    -1.7841190
  H       -0.2830920     0.2988010    -0.9702380
  H        0.3702690    -2.0293640    -0.5720320
  H        1.1571200     0.9978770     1.6121560
  H        2.0609340    -0.7886600    -1.8727560
  H        1.9169870     1.6362870    -1.2735830
  H        3.2958550    -0.0945320     0.8276460
  H        0.5217750    -1.8880320     1.7115100
  H        0.6655400     3.1093110     0.6831840
  H        2.9735430    -2.5473740     0.0946540
  H        3.7214290     2.5491860    -0.0588690
  H        4.6397270    -0.4238340    -1.0970870
  H       -3.8083950    -1.5223380     1.7347280
  H       -3.9305460     1.4455410     0.2493860
  H       -2.2297620     1.8928800    -0.0590960
  H       -3.8005210     3.1308820    -1.6026710
  H       -2.7171960     2.0533230    -2.5048750
  H       -4.4009440     1.5743230    -2.2127240
units angstrom
no_reorient  #important for SAPT in psi4, default
symmetry c1  #important for SAPT in psi4, default
}

set PROPERTIES_ORIGIN ["COM"]
properties('MP2/aug-cc-pvtz', properties = ['dipole'])
--------------------------------------------------------------------------

    Molecular point group: c1
  Charge       = 0
  Multiplicity = 1
  Basis Set: AUG-CC-PVTZ
    Blend: AUG-CC-PVTZ
  Basis Set: (AUG-CC-PVTZ AUX)
    Blend: AUG-CC-PVTZ-JKFIT

    Orbital Energies [Eh]
    ---------------------

    Doubly Occupied:

       1A    -80.116871     2A    -20.614679     3A    -20.606964
       4A    -20.598950     5A    -20.582382     6A    -20.575194
       7A    -20.574805     8A    -20.572778     9A    -20.571334
      10A    -20.523259    11A    -11.320735    12A    -11.302131
      13A    -11.299635    14A    -11.299518    15A    -11.298077
      16A    -11.296473    17A    -11.289256    18A    -11.229991
      19A     -7.632318    20A     -5.530824    21A     -5.530453
      22A     -5.529248    23A     -1.460226    24A     -1.411463
      25A     -1.398017    26A     -1.392678    27A     -1.386945
      28A     -1.375066    29A     -1.365231    30A     -1.356288
      31A     -1.303661    32A     -1.115447    33A     -1.040516
      34A     -1.010060    35A     -1.000193    36A     -0.880321
      37A     -0.865259    38A     -0.857603    39A     -0.823511
      40A     -0.810547    41A     -0.752971    42A     -0.745858
      43A     -0.731650    44A     -0.729126    45A     -0.710097
      46A     -0.687619    47A     -0.677384    48A     -0.674410
      49A     -0.664200    50A     -0.660227    51A     -0.645952
      52A     -0.636587    53A     -0.626994    54A     -0.614655
      55A     -0.603374    56A     -0.599503    57A     -0.582053
      58A     -0.575549    59A     -0.570802    60A     -0.559316
      61A     -0.556545    62A     -0.548539    63A     -0.541065
      64A     -0.535350    65A     -0.530155    66A     -0.522375
      67A     -0.513317    68A     -0.505814    69A     -0.497214
      70A     -0.485041    71A     -0.479806    72A     -0.476439
      73A     -0.463540    74A     -0.456563    75A     -0.449769
      76A     -0.424339

  @DF-RHF Final Energy: -1327.86042657010830

   => Energetics <=

    Nuclear Repulsion Energy =           1771.8572889786034921
    One-Electron Energy =               -5355.8692200003497419
    Two-Electron Energy =                2256.1515044516377202
    Total Energy =                      -1327.8604265701083023
  Basis Set: (AUG-CC-PVTZ AUX)
    Blend: AUG-CC-PVTZ-RI
    Molecular point group: c1

    Geometry (in Angstrom), charge = 0, multiplicity = 1:

       Center              X                  Y                   Z               Mass
    ------------   -----------------  -----------------  -----------------  -----------------
         P           -2.293853620307    -0.939542823307     0.343193256857    30.973761998420
         O           -0.985910620307    -0.201061823307     0.936804256857    15.994914619570
         O            1.338492379693    -1.674982823307     1.229366256857    15.994914619570
         O            0.074947379693     2.360104176693     0.460683256857    15.994914619570
         O            3.064757379693    -2.186571823307    -0.810074743143    15.994914619570
         O            2.882710479693     2.474100476693     0.378709556857    15.994914619570
         O            4.191930379693     0.435897176693    -0.974358743143    15.994914619570
         O           -2.830620620307     0.033851176693    -0.809015743143    15.994914619570
         O           -3.262878620307    -0.722781823307     1.620186256857    15.994914619570
         O           -2.122750620307    -2.343143823307    -0.101152743143    15.994914619570
         C            0.114404379693     0.030509176693     0.014834256857    12.000000000000
         C            0.949534379693    -1.243704823307    -0.077209743143    12.000000000000
         C            0.894831379693     1.203144176693     0.563366256857    12.000000000000
         C            2.255902379693    -1.013806823307    -0.819521743143    12.000000000000
         C            2.173317379693     1.396972176693    -0.229525743143    12.000000000000
         C            3.060126279693     0.176536576693    -0.187707643143    12.000000000000
         C           -3.127970620307     1.432098176693    -0.490370743143    12.000000000000
         C           -3.540074620307     2.085665176693    -1.785603743143    12.000000000000
         H           -0.286849620307     0.299301176693    -0.971722743143     1.007825032230
         H            0.366511379693    -2.028863823307    -0.573516743143     1.007825032230
         H            1.153362379693     0.998377176693     1.610671256857     1.007825032230
         H            2.057176379693    -0.788159823307    -1.874240743143     1.007825032230
         H            1.913229379693     1.636787176693    -1.275067743143     1.007825032230
         H            3.292097379693    -0.094031823307     0.826161256857     1.007825032230
         H            0.518017379693    -1.887531823307     1.710025256857     1.007825032230
         H            0.661782379693     3.109811176693     0.681699256857     1.007825032230
         H            2.969785379693    -2.546873823307     0.093169256857     1.007825032230
         H            3.717671379693     2.549686176693    -0.060353743143     1.007825032230
         H            4.635969379693    -0.423333823307    -1.098571743143     1.007825032230
         H           -3.812152620307    -1.521837823307     1.733243256857     1.007825032230
         H           -3.934303620307     1.446041176693     0.247901256857     1.007825032230
         H           -2.233519620307     1.893380176693    -0.060580743143     1.007825032230
         H           -3.804278620307     3.131382176693    -1.604155743143     1.007825032230
         H           -2.720953620307     2.053823176693    -2.506359743143     1.007825032230
         H           -4.404701620307     1.574823176693    -2.214208743143     1.007825032230

  Basis Set: AUG-CC-PVTZ
    Blend: AUG-CC-PVTZ
  Basis Set: (AUG-CC-PVTZ AUX)
    Blend: AUG-CC-PVTZ-JKFIT
	 Reference Energy          =   -1327.8604265701083023 [Eh]
	 Singles Energy            =      -0.0000000000000000 [Eh]
	 Same-Spin Energy          =      -1.0138468086096497 [Eh]
	 Opposite-Spin Energy      =      -3.0745526496123601 [Eh]
	 Correlation Energy        =      -4.0883994582220096 [Eh]
	 Total Energy              =   -1331.9488260283303589 [Eh]

	 ================> DF-SCS-MP2 Energies <==================
	-----------------------------------------------------------
	 SCS Same-Spin Scale       =       0.3333333333333333 [-]
	 SCS Opposite-Spin Scale   =       1.2000000000000000 [-]
	 SCS Same-Spin Energy      =      -0.3379489362032165 [Eh]
	 SCS Opposite-Spin Energy  =      -3.6894631795348318 [Eh]
	 SCS Correlation Energy    =      -4.0274121157380485 [Eh]
	 SCS Total Energy          =   -1331.8878386858464182 [Eh]
	-----------------------------------------------------------

  Dipole Moment: [D]
     X:    -1.1211      Y:     1.9447      Z:     0.6862     Total:     2.3472

*** Psi4 exiting successfully. Buy a developer a beer!
