                               Psi4 1.3.2 release

  ==> Input File <==

--------------------------------------------------------------------------
#psi4
#
memory 32 gb

molecule  {
0 1
  P       -2.2900960    -0.9400430     0.3446780
  O       -0.9821530    -0.2015620     0.9382890
  O        1.3422500    -1.6754830     1.2308510
  O        0.0787050     2.3596040     0.4621680
  O        3.0685150    -2.1870720    -0.8085900
  O        2.8473350     2.5031130     0.3715350
  O        4.1956880     0.4353970    -0.9728740
  O       -2.8268630     0.0333510    -0.8075310
  O       -3.2591210    -0.7232820     1.6216710
  O       -2.1189930    -2.3436440    -0.0996680
  C        0.1181620     0.0300090     0.0163190
  C        0.9532920    -1.2442050    -0.0757250
  C        0.9039837     1.1886145     0.5865331
  C        2.2596600    -1.0143070    -0.8180370
  C        2.1770750     1.3964720    -0.2280410
  C        3.0258420     0.1487050    -0.2103220
  C       -3.1242130     1.4315980    -0.4888860
  C       -3.5363170     2.0851650    -1.7841190
  H       -0.2910911     0.2814267    -0.9715320
  H        0.3702690    -2.0293640    -0.5720320
  H        1.1571200     0.9978770     1.6121560
  H        2.0609340    -0.7886600    -1.8727560
  H        1.9169870     1.6362870    -1.2735830
  H        3.2958550    -0.0945320     0.8276460
  H        0.5217750    -1.8880320     1.7115100
  H        0.6655400     3.1093110     0.6831840
  H        2.9735430    -2.5473740     0.0946540
  H        3.7214290     2.5491860    -0.0588690
  H        4.6397270    -0.4238340    -1.0970870
  H       -3.8083950    -1.5223380     1.7347280
  H       -3.9305460     1.4455410     0.2493860
  H       -2.2297620     1.8928800    -0.0590960
  H       -3.8005210     3.1308820    -1.6026710
  H       -2.7171960     2.0533230    -2.5048750
  H       -4.4009440     1.5743230    -2.2127240
units angstrom
no_reorient  #important for SAPT in psi4, default
symmetry c1  #important for SAPT in psi4, default
}

set PROPERTIES_ORIGIN ["COM"]
properties('MP2/aug-cc-pvtz', properties = ['dipole'])
--------------------------------------------------------------------------

    Molecular point group: c1
  Charge       = 0
  Multiplicity = 1
  Basis Set: AUG-CC-PVTZ
    Blend: AUG-CC-PVTZ
  Basis Set: (AUG-CC-PVTZ AUX)
    Blend: AUG-CC-PVTZ-JKFIT

    Orbital Energies [Eh]
    ---------------------

    Doubly Occupied:

       1A    -80.116894     2A    -20.614697     3A    -20.606703
       4A    -20.598969     5A    -20.583429     6A    -20.576703
       7A    -20.574744     8A    -20.574033     9A    -20.571742
      10A    -20.523492    11A    -11.321146    12A    -11.303350
      13A    -11.299478    14A    -11.299167    15A    -11.298404
      16A    -11.297244    17A    -11.291236    18A    -11.229700
      19A     -7.632354    20A     -5.530862    21A     -5.530483
      22A     -5.529285    23A     -1.460280    24A     -1.410520
      25A     -1.394586    26A     -1.391477    27A     -1.386767
      28A     -1.371649    29A     -1.361887    30A     -1.352744
      31A     -1.303882    32A     -1.119036    33A     -1.040307
      34A     -1.012183    35A     -1.003275    36A     -0.879679
      37A     -0.864623    38A     -0.860202    39A     -0.821744
      40A     -0.812194    41A     -0.750836    42A     -0.745474
      43A     -0.731673    44A     -0.728364    45A     -0.707924
      46A     -0.686024    47A     -0.678338    48A     -0.673593
      49A     -0.661925    50A     -0.660766    51A     -0.643164
      52A     -0.634070    53A     -0.627148    54A     -0.615112
      55A     -0.603654    56A     -0.597531    57A     -0.581134
      58A     -0.575454    59A     -0.571033    60A     -0.558767
      61A     -0.556523    62A     -0.548075    63A     -0.541135
      64A     -0.536418    65A     -0.529908    66A     -0.521990
      67A     -0.513130    68A     -0.504713    69A     -0.497500
      70A     -0.485926    71A     -0.479779    72A     -0.476596
      73A     -0.463101    74A     -0.455178    75A     -0.451289
      76A     -0.436336

  @DF-RHF Final Energy: -1327.86039400176719

   => Energetics <=

    Nuclear Repulsion Energy =           1772.3083453694646323
    One-Electron Energy =               -5356.7760160777679630
    Two-Electron Energy =                2256.6072767065361404
    Total Energy =                      -1327.8603940017674176
  Basis Set: (AUG-CC-PVTZ AUX)
    Blend: AUG-CC-PVTZ-RI
    Molecular point group: c1

    Geometry (in Angstrom), charge = 0, multiplicity = 1:

       Center              X                  Y                   Z               Mass
    ------------   -----------------  -----------------  -----------------  -----------------
         P           -2.290292712657    -0.939397757036     0.343779288560    30.973761998420
         O           -0.982349712657    -0.200916757036     0.937390288560    15.994914619570
         O            1.342053287343    -1.674837757036     1.229952288560    15.994914619570
         O            0.078508287343     2.360249242964     0.461269288560    15.994914619570
         O            3.068318287343    -2.186426757036    -0.809488711440    15.994914619570
         O            2.847138287343     2.503758242964     0.370636288560    15.994914619570
         O            4.195491287343     0.436042242964    -0.973772711440    15.994914619570
         O           -2.827059712657     0.033996242964    -0.808429711440    15.994914619570
         O           -3.259317712657    -0.722636757036     1.620772288560    15.994914619570
         O           -2.119189712657    -2.342998757036    -0.100566711440    15.994914619570
         C            0.117965287343     0.030654242964     0.015420288560    12.000000000000
         C            0.953095287343    -1.243559757036    -0.076623711440    12.000000000000
         C            0.903786987343     1.189259742964     0.585634388560    12.000000000000
         C            2.259463287343    -1.013661757036    -0.818935711440    12.000000000000
         C            2.176878287343     1.397117242964    -0.228939711440    12.000000000000
         C            3.025645287343     0.149350242964    -0.211220711440    12.000000000000
         C           -3.124409712657     1.432243242964    -0.489784711440    12.000000000000
         C           -3.536513712657     2.085810242964    -1.785017711440    12.000000000000
         H           -0.291287812657     0.282071942964    -0.972430711440     1.007825032230
         H            0.370072287343    -2.028718757036    -0.572930711440     1.007825032230
         H            1.156923287343     0.998522242964     1.611257288560     1.007825032230
         H            2.060737287343    -0.788014757036    -1.873654711440     1.007825032230
         H            1.916790287343     1.636932242964    -1.274481711440     1.007825032230
         H            3.295658287343    -0.093886757036     0.826747288560     1.007825032230
         H            0.521578287343    -1.887386757036     1.710611288560     1.007825032230
         H            0.665343287343     3.109956242964     0.682285288560     1.007825032230
         H            2.973346287343    -2.546728757036     0.093755288560     1.007825032230
         H            3.721232287343     2.549831242964    -0.059767711440     1.007825032230
         H            4.639530287343    -0.423188757036    -1.097985711440     1.007825032230
         H           -3.808591712657    -1.521692757036     1.733829288560     1.007825032230
         H           -3.930742712657     1.446186242964     0.248487288560     1.007825032230
         H           -2.229958712657     1.893525242964    -0.059994711440     1.007825032230
         H           -3.800717712657     3.131527242964    -1.603569711440     1.007825032230
         H           -2.717392712657     2.053968242964    -2.505773711440     1.007825032230
         H           -4.401140712657     1.574968242964    -2.213622711440     1.007825032230

  Basis Set: AUG-CC-PVTZ
    Blend: AUG-CC-PVTZ
  Basis Set: (AUG-CC-PVTZ AUX)
    Blend: AUG-CC-PVTZ-JKFIT
	 Reference Energy          =   -1327.8603940017671903 [Eh]
	 Singles Energy            =      -0.0000000000000000 [Eh]
	 Same-Spin Energy          =      -1.0145673131405955 [Eh]
	 Opposite-Spin Energy      =      -3.0763336639337027 [Eh]
	 Correlation Energy        =      -4.0909009770742983 [Eh]
	 Total Energy              =   -1331.9512949788415881 [Eh]

	 ================> DF-SCS-MP2 Energies <==================
	-----------------------------------------------------------
	 SCS Same-Spin Scale       =       0.3333333333333333 [-]
	 SCS Opposite-Spin Scale   =       1.2000000000000000 [-]
	 SCS Same-Spin Energy      =      -0.3381891043801984 [Eh]
	 SCS Opposite-Spin Energy  =      -3.6916003967204429 [Eh]
	 SCS Correlation Energy    =      -4.0297895011006410 [Eh]
	 SCS Total Energy          =   -1331.8901835028677851 [Eh]
	-----------------------------------------------------------

  Dipole Moment: [D]
     X:    -1.0917      Y:     1.8194      Z:     0.7406     Total:     2.2473

*** Psi4 exiting successfully. Buy a developer a beer!
