                               Psi4 1.3.2 release

  ==> Input File <==

--------------------------------------------------------------------------
#psi4
#
memory 32 gb

molecule  {
0 1
  P       -2.2900960    -0.9400430     0.3446780
  O       -0.9821530    -0.2015620     0.9382890
  O        1.3422500    -1.6754830     1.2308510
  O        0.0787050     2.3596040     0.4621680
  O        3.0685150    -2.1870720    -0.8085900
  O        2.8473350     2.5031130     0.3715350
  O        4.1956880     0.4353970    -0.9728740
  O       -2.7933360    -0.0274481    -0.7355629
  O       -3.2591210    -0.7232820     1.6216710
  O       -2.1189930    -2.3436440    -0.0996680
  C        0.1181620     0.0300090     0.0163190
  C        0.9532920    -1.2442050    -0.0757250
  C        0.8985890     1.2026440     0.5648510
  C        2.2596600    -1.0143070    -0.8180370
  C        2.1770750     1.3964720    -0.2280410
  C        3.0258420     0.1487050    -0.2103220
  C       -3.1242130     1.4315980    -0.4888860
  C       -3.5363170     2.0851650    -1.7841190
  H       -0.2830920     0.2988010    -0.9702380
  H        0.3702690    -2.0293640    -0.5720320
  H        1.1571200     0.9978770     1.6121560
  H        2.0609340    -0.7886600    -1.8727560
  H        1.9169870     1.6362870    -1.2735830
  H        3.2958550    -0.0945320     0.8276460
  H        0.5217750    -1.8880320     1.7115100
  H        0.6655400     3.1093110     0.6831840
  H        2.9735430    -2.5473740     0.0946540
  H        3.7214290     2.5491860    -0.0588690
  H        4.6397270    -0.4238340    -1.0970870
  H       -3.8083950    -1.5223380     1.7347280
  H       -3.9305460     1.4455410     0.2493860
  H       -2.2297620     1.8928800    -0.0590960
  H       -3.8005210     3.1308820    -1.6026710
  H       -2.7171960     2.0533230    -2.5048750
  H       -4.4009440     1.5743230    -2.2127240
units angstrom
no_reorient  #important for SAPT in psi4, default
symmetry c1  #important for SAPT in psi4, default
}

set PROPERTIES_ORIGIN ["COM"]
properties('MP2/aug-cc-pvtz', properties = ['dipole'])
--------------------------------------------------------------------------

    Molecular point group: c1
  Charge       = 0
  Multiplicity = 1
  Basis Set: AUG-CC-PVTZ
    Blend: AUG-CC-PVTZ
  Basis Set: (AUG-CC-PVTZ AUX)
    Blend: AUG-CC-PVTZ-JKFIT

    Orbital Energies [Eh]
    ---------------------

    Doubly Occupied:

       1A    -80.099766     2A    -20.605414     3A    -20.598050
       4A    -20.597792     5A    -20.580298     6A    -20.575954
       7A    -20.573272     8A    -20.572998     9A    -20.572919
      10A    -20.511963    11A    -11.317637    12A    -11.315204
      13A    -11.300705    14A    -11.297505    15A    -11.297031
      16A    -11.295525    17A    -11.290106    18A    -11.239942
      19A     -7.617991    20A     -5.516661    21A     -5.516155
      22A     -5.514761    23A     -1.467202    24A     -1.409689
      25A     -1.393360    26A     -1.391409    27A     -1.387087
      28A     -1.370163    29A     -1.362654    30A     -1.352451
      31A     -1.293783    32A     -1.116901    33A     -1.054231
      34A     -1.009572    35A     -1.001614    36A     -0.883771
      37A     -0.870133    38A     -0.857198    39A     -0.817870
      40A     -0.808276    41A     -0.750046    42A     -0.744090
      43A     -0.731568    44A     -0.729470    45A     -0.706055
      46A     -0.686784    47A     -0.676729    48A     -0.671839
      49A     -0.660692    50A     -0.658632    51A     -0.640727
      52A     -0.633143    53A     -0.630813    54A     -0.616113
      55A     -0.601859    56A     -0.597095    57A     -0.579061
      58A     -0.577576    59A     -0.573894    60A     -0.557693
      61A     -0.554866    62A     -0.551790    63A     -0.541811
      64A     -0.535254    65A     -0.530042    66A     -0.524076
      67A     -0.515730    68A     -0.504436    69A     -0.500744
      70A     -0.486449    71A     -0.478719    72A     -0.467620
      73A     -0.459163    74A     -0.454890    75A     -0.446746
      76A     -0.434072

  @DF-RHF Final Energy: -1327.85906535580239

   => Energetics <=

    Nuclear Repulsion Energy =           1775.9095990941607397
    One-Electron Energy =               -5364.2067145122382499
    Two-Electron Energy =                2260.4380500622755790
    Total Energy =                      -1327.8590653558021586
  Basis Set: (AUG-CC-PVTZ AUX)
    Blend: AUG-CC-PVTZ-RI
    Molecular point group: c1

    Geometry (in Angstrom), charge = 0, multiplicity = 1:

       Center              X                  Y                   Z               Mass
    ------------   -----------------  -----------------  -----------------  -----------------
         P           -2.291957591846    -0.936667043379     0.340681880438    30.973761998420
         O           -0.984014591846    -0.198186043379     0.934292880438    15.994914619570
         O            1.340388408154    -1.672107043379     1.226854880438    15.994914619570
         O            0.076843408154     2.362979956621     0.458171880438    15.994914619570
         O            3.066653408154    -2.183696043379    -0.812586119562    15.994914619570
         O            2.845473408154     2.506488956621     0.367538880438    15.994914619570
         O            4.193826408154     0.438772956621    -0.976870119562    15.994914619570
         O           -2.795197591846    -0.024072143379    -0.739559019562    15.994914619570
         O           -3.260982591846    -0.719906043379     1.617674880438    15.994914619570
         O           -2.120854591846    -2.340268043379    -0.103664119562    15.994914619570
         C            0.116300408154     0.033384956621     0.012322880438    12.000000000000
         C            0.951430408154    -1.240829043379    -0.079721119562    12.000000000000
         C            0.896727408154     1.206019956621     0.560854880438    12.000000000000
         C            2.257798408154    -1.010931043379    -0.822033119562    12.000000000000
         C            2.175213408154     1.399847956621    -0.232037119562    12.000000000000
         C            3.023980408154     0.152080956621    -0.214318119562    12.000000000000
         C           -3.126074591846     1.434973956621    -0.492882119562    12.000000000000
         C           -3.538178591846     2.088540956621    -1.788115119562    12.000000000000
         H           -0.284953591846     0.302176956621    -0.974234119562     1.007825032230
         H            0.368407408154    -2.025988043379    -0.576028119562     1.007825032230
         H            1.155258408154     1.001252956621     1.608159880438     1.007825032230
         H            2.059072408154    -0.785284043379    -1.876752119562     1.007825032230
         H            1.915125408154     1.639662956621    -1.277579119562     1.007825032230
         H            3.293993408154    -0.091156043379     0.823649880438     1.007825032230
         H            0.519913408154    -1.884656043379     1.707513880438     1.007825032230
         H            0.663678408154     3.112686956621     0.679187880438     1.007825032230
         H            2.971681408154    -2.543998043379     0.090657880438     1.007825032230
         H            3.719567408154     2.552561956621    -0.062865119562     1.007825032230
         H            4.637865408154    -0.420458043379    -1.101083119562     1.007825032230
         H           -3.810256591846    -1.518962043379     1.730731880438     1.007825032230
         H           -3.932407591846     1.448916956621     0.245389880438     1.007825032230
         H           -2.231623591846     1.896255956621    -0.063092119562     1.007825032230
         H           -3.802382591846     3.134257956621    -1.606667119562     1.007825032230
         H           -2.719057591846     2.056698956621    -2.508871119562     1.007825032230
         H           -4.402805591846     1.577698956621    -2.216720119562     1.007825032230

  Basis Set: AUG-CC-PVTZ
    Blend: AUG-CC-PVTZ
  Basis Set: (AUG-CC-PVTZ AUX)
    Blend: AUG-CC-PVTZ-JKFIT
	 Reference Energy          =   -1327.8590653558023860 [Eh]
	 Singles Energy            =      -0.0000000000000000 [Eh]
	 Same-Spin Energy          =      -1.0132391471662965 [Eh]
	 Opposite-Spin Energy      =      -3.0728425844746323 [Eh]
	 Correlation Energy        =      -4.0860817316409292 [Eh]
	 Total Energy              =   -1331.9451470874432744 [Eh]

	 ================> DF-SCS-MP2 Energies <==================
	-----------------------------------------------------------
	 SCS Same-Spin Scale       =       0.3333333333333333 [-]
	 SCS Opposite-Spin Scale   =       1.2000000000000000 [-]
	 SCS Same-Spin Energy      =      -0.3377463823887655 [Eh]
	 SCS Opposite-Spin Energy  =      -3.6874111013695585 [Eh]
	 SCS Correlation Energy    =      -4.0251574837583242 [Eh]
	 SCS Total Energy          =   -1331.8842228395606071 [Eh]
	-----------------------------------------------------------

  Dipole Moment: [D]
     X:    -1.4927      Y:     2.4858      Z:     0.3092     Total:     2.9160

*** Psi4 exiting successfully. Buy a developer a beer!
