                               Psi4 1.3.2 release

  ==> Input File <==

--------------------------------------------------------------------------
#psi4
#
memory 32 gb

molecule  {
0 1
  P       -2.2900960    -0.9400430     0.3446780
  O       -0.9821530    -0.2015620     0.9382890
  O        1.3422500    -1.6754830     1.2308510
  O        0.0787050     2.3596040     0.4621680
  O        3.0685150    -2.1870720    -0.8085900
  O        2.8473350     2.5031130     0.3715350
  O        4.1956880     0.4353970    -0.9728740
  O       -2.8268630     0.0333510    -0.8075310
  O       -3.2591210    -0.7232820     1.6216710
  O       -2.1189930    -2.3436440    -0.0996680
  C        0.1181620     0.0300090     0.0163190
  C        0.9532920    -1.2442050    -0.0757250
  C        0.8985890     1.2026440     0.5648510
  C        2.2596600    -1.0143070    -0.8180370
  C        2.1626513     1.4005024    -0.2498711
  C        3.0258420     0.1487050    -0.2103220
  C       -3.1242130     1.4315980    -0.4888860
  C       -3.5363170     2.0851650    -1.7841190
  H       -0.2830920     0.2988010    -0.9702380
  H        0.3702690    -2.0293640    -0.5720320
  H        1.1384631     0.9965436     1.6163255
  H        2.0609340    -0.7886600    -1.8727560
  H        1.9169870     1.6362870    -1.2735830
  H        3.2958550    -0.0945320     0.8276460
  H        0.5217750    -1.8880320     1.7115100
  H        0.6655400     3.1093110     0.6831840
  H        2.9735430    -2.5473740     0.0946540
  H        3.7214290     2.5491860    -0.0588690
  H        4.6397270    -0.4238340    -1.0970870
  H       -3.8083950    -1.5223380     1.7347280
  H       -3.9305460     1.4455410     0.2493860
  H       -2.2297620     1.8928800    -0.0590960
  H       -3.8005210     3.1308820    -1.6026710
  H       -2.7171960     2.0533230    -2.5048750
  H       -4.4009440     1.5743230    -2.2127240
units angstrom
no_reorient  #important for SAPT in psi4, default
symmetry c1  #important for SAPT in psi4, default
}

set PROPERTIES_ORIGIN ["COM"]
properties('MP2/aug-cc-pvtz', properties = ['dipole'])
--------------------------------------------------------------------------

    Molecular point group: c1
  Charge       = 0
  Multiplicity = 1
  Basis Set: AUG-CC-PVTZ
    Blend: AUG-CC-PVTZ
  Basis Set: (AUG-CC-PVTZ AUX)
    Blend: AUG-CC-PVTZ-JKFIT

    Orbital Energies [Eh]
    ---------------------

    Doubly Occupied:

       1A    -80.117033     2A    -20.614807     3A    -20.607133
       4A    -20.599025     5A    -20.583217     6A    -20.575300
       7A    -20.574403     8A    -20.573902     9A    -20.572805
      10A    -20.523516    11A    -11.320600    12A    -11.303592
      13A    -11.299449    14A    -11.299061    15A    -11.298787
      16A    -11.296271    17A    -11.291960    18A    -11.229962
      19A     -7.632482    20A     -5.530988    21A     -5.530614
      22A     -5.529413    23A     -1.460382    24A     -1.410415
      25A     -1.393755    26A     -1.391704    27A     -1.386931
      28A     -1.372582    29A     -1.362726    30A     -1.352107
      31A     -1.303912    32A     -1.118860    33A     -1.040534
      34A     -1.011207    35A     -1.003478    36A     -0.880277
      37A     -0.865032    38A     -0.858706    39A     -0.822556
      40A     -0.811960    41A     -0.751587    42A     -0.744849
      43A     -0.731885    44A     -0.728738    45A     -0.706622
      46A     -0.687392    47A     -0.678150    48A     -0.673793
      49A     -0.661322    50A     -0.659842    51A     -0.642102
      52A     -0.634803    53A     -0.627470    54A     -0.615372
      55A     -0.604044    56A     -0.598773    57A     -0.581824
      58A     -0.575611    59A     -0.571095    60A     -0.559019
      61A     -0.556223    62A     -0.548631    63A     -0.541297
      64A     -0.535932    65A     -0.530165    66A     -0.521023
      67A     -0.513274    68A     -0.504177    69A     -0.496822
      70A     -0.484353    71A     -0.479885    72A     -0.476666
      73A     -0.464871    74A     -0.455788    75A     -0.451120
      76A     -0.435376

  @DF-RHF Final Energy: -1327.86056470838662

   => Energetics <=

    Nuclear Repulsion Energy =           1772.3109907848483999
    One-Electron Energy =               -5356.7804268587105980
    Two-Electron Energy =                2256.6088713654758067
    Total Energy =                      -1327.8605647083863914
  Basis Set: (AUG-CC-PVTZ AUX)
    Blend: AUG-CC-PVTZ-RI
    Molecular point group: c1

    Geometry (in Angstrom), charge = 0, multiplicity = 1:

       Center              X                  Y                   Z               Mass
    ------------   -----------------  -----------------  -----------------  -----------------
         P           -2.289429832986    -0.940206214985     0.345572797968    30.973761998420
         O           -0.981486832986    -0.201725214985     0.939183797968    15.994914619570
         O            1.342916167014    -1.675646214985     1.231745797968    15.994914619570
         O            0.079371167014     2.359440785015     0.463062797968    15.994914619570
         O            3.069181167014    -2.187235214985    -0.807695202032    15.994914619570
         O            2.848001167014     2.502949785015     0.372429797968    15.994914619570
         O            4.196354167014     0.435233785015    -0.971979202032    15.994914619570
         O           -2.826196832986     0.033187785015    -0.806636202032    15.994914619570
         O           -3.258454832986    -0.723445214985     1.622565797968    15.994914619570
         O           -2.118326832986    -2.343807214985    -0.098773202032    15.994914619570
         C            0.118828167014     0.029845785015     0.017213797968    12.000000000000
         C            0.953958167014    -1.244368214985    -0.074830202032    12.000000000000
         C            0.899255167014     1.202480785015     0.565745797968    12.000000000000
         C            2.260326167014    -1.014470214985    -0.817142202032    12.000000000000
         C            2.163317467014     1.400339185015    -0.248976302032    12.000000000000
         C            3.026508167014     0.148541785015    -0.209427202032    12.000000000000
         C           -3.123546832986     1.431434785015    -0.487991202032    12.000000000000
         C           -3.535650832986     2.085001785015    -1.783224202032    12.000000000000
         H           -0.282425832986     0.298637785015    -0.969343202032     1.007825032230
         H            0.370935167014    -2.029527214985    -0.571137202032     1.007825032230
         H            1.139129267014     0.996380385015     1.617220297968     1.007825032230
         H            2.061600167014    -0.788823214985    -1.871861202032     1.007825032230
         H            1.917653167014     1.636123785015    -1.272688202032     1.007825032230
         H            3.296521167014    -0.094695214985     0.828540797968     1.007825032230
         H            0.522441167014    -1.888195214985     1.712404797968     1.007825032230
         H            0.666206167014     3.109147785015     0.684078797968     1.007825032230
         H            2.974209167014    -2.547537214985     0.095548797968     1.007825032230
         H            3.722095167014     2.549022785015    -0.057974202032     1.007825032230
         H            4.640393167014    -0.423997214985    -1.096192202032     1.007825032230
         H           -3.807728832986    -1.522501214985     1.735622797968     1.007825032230
         H           -3.929879832986     1.445377785015     0.250280797968     1.007825032230
         H           -2.229095832986     1.892716785015    -0.058201202032     1.007825032230
         H           -3.799854832986     3.130718785015    -1.601776202032     1.007825032230
         H           -2.716529832986     2.053159785015    -2.503980202032     1.007825032230
         H           -4.400277832986     1.574159785015    -2.211829202032     1.007825032230

  Basis Set: AUG-CC-PVTZ
    Blend: AUG-CC-PVTZ
  Basis Set: (AUG-CC-PVTZ AUX)
    Blend: AUG-CC-PVTZ-JKFIT
	 Reference Energy          =   -1327.8605647083866188 [Eh]
	 Singles Energy            =      -0.0000000000000000 [Eh]
	 Same-Spin Energy          =      -1.0145255004205411 [Eh]
	 Opposite-Spin Energy      =      -3.0762284953150196 [Eh]
	 Correlation Energy        =      -4.0907539957355610 [Eh]
	 Total Energy              =   -1331.9513187041222864 [Eh]

	 ================> DF-SCS-MP2 Energies <==================
	-----------------------------------------------------------
	 SCS Same-Spin Scale       =       0.3333333333333333 [-]
	 SCS Opposite-Spin Scale   =       1.2000000000000000 [-]
	 SCS Same-Spin Energy      =      -0.3381751668068470 [Eh]
	 SCS Opposite-Spin Energy  =      -3.6914741943780234 [Eh]
	 SCS Correlation Energy    =      -4.0296493611848705 [Eh]
	 SCS Total Energy          =   -1331.8902140695715843 [Eh]
	-----------------------------------------------------------

  Dipole Moment: [D]
     X:    -1.1457      Y:     1.8440      Z:     0.6887     Total:     2.2775

*** Psi4 exiting successfully. Buy a developer a beer!
