                               Psi4 1.4a3.dev225

  ==> Input File <==

--------------------------------------------------------------------------
#psi4
#
memory 32 gb

molecule  {
0 1
  P       -2.3219140    -1.0563120    -0.0968450
  O       -1.0285840    -0.5623410     0.7549430
  O        1.3695440    -1.8069540     1.2202350
  O       -0.1592450     2.1412630     0.5207450
  O        3.3269040    -2.0858120    -0.6453880
  O        2.5724350     2.5270130     0.6374560
  O        4.2203020     0.6406430    -0.6358120
  O       -2.8737010     0.2643620    -0.8096810
  O       -3.3065970    -1.3497020     1.1531960
  O       -2.1044560    -2.1814480    -1.0350500
  C        0.1200290    -0.1583450    -0.0432010
  C        1.0698050    -1.3527180    -0.1046720
  C        0.7441670     1.0454510     0.6308160
  C        2.4193320    -0.9866070    -0.7068450
  C        2.0603010     1.3853380    -0.0470020
  C        3.0180900     0.2181970     0.0056710
  C       -3.2473180     1.4231610     0.0025120
  C       -3.2076300     2.6262440    -0.9075720
  H       -0.2047330     0.1313700    -1.0514980
  H        0.5965010    -2.1549610    -0.6866410
  H        0.9371260     0.8063110     1.6860210
  H        2.3054700    -0.7437210    -1.7704410
  H        1.8722582     1.6253417    -1.0549825
  H        3.2142070    -0.0417910     1.0561650
  H        0.5126160    -2.0057500     1.6426110
  H        0.3598300     2.9232990     0.7925780
  H        3.1793900    -2.4823080     0.2360710
  H        3.4672560     2.6739710     0.2770410
  H        4.7639490    -0.1654590    -0.7244900
  H       -3.7873380    -2.1826420     0.9908450
  H       -4.2474700     1.2335250     0.4005830
  H       -2.5352900     1.5309660     0.8217280
  H       -3.5402110     3.5125760    -0.3587690
  H       -2.1856630     2.7912820    -1.2511950
  H       -3.8637180     2.4807570    -1.7684970
units angstrom
no_reorient  #important for SAPT in psi4, default
symmetry c1  #important for SAPT in psi4, default
}

set PROPERTIES_ORIGIN ["COM"]
properties('MP2/aug-cc-pvtz', properties = ['dipole'])
--------------------------------------------------------------------------

    Molecular point group: c1
  Charge       = 0
  Multiplicity = 1
  Basis Set: AUG-CC-PVTZ
    Blend: AUG-CC-PVTZ
  Basis Set: (AUG-CC-PVTZ AUX)
    Blend: AUG-CC-PVTZ-JKFIT

    Orbital Energies [Eh]
    ---------------------

    Doubly Occupied:

       1A    -80.116876     2A    -20.615043     3A    -20.608148
       4A    -20.596089     5A    -20.584069     6A    -20.577590
       7A    -20.575329     8A    -20.575191     9A    -20.574675
      10A    -20.522592    11A    -11.321497    12A    -11.305299
      13A    -11.300391    14A    -11.300155    15A    -11.296208
      16A    -11.292811    17A    -11.292100    18A    -11.222973
      19A     -7.632139    20A     -5.530674    21A     -5.530171
      22A     -5.529110    23A     -1.458549    24A     -1.410931
      25A     -1.395350    26A     -1.392709    27A     -1.385240
      28A     -1.372744    29A     -1.364104    30A     -1.354128
      31A     -1.302776    32A     -1.119374    33A     -1.035593
      34A     -1.012061    35A     -1.004325    36A     -0.878398
      37A     -0.862731    38A     -0.860663    39A     -0.823736
      40A     -0.812161    41A     -0.755358    42A     -0.746181
      43A     -0.730099    44A     -0.726443    45A     -0.705509
      46A     -0.687804    47A     -0.679506    48A     -0.674505
      49A     -0.662242    50A     -0.659372    51A     -0.642521
      52A     -0.637615    53A     -0.624228    54A     -0.613367
      55A     -0.604893    56A     -0.597214    57A     -0.581065
      58A     -0.577763    59A     -0.570325    60A     -0.560930
      61A     -0.555341    62A     -0.548169    63A     -0.538955
      64A     -0.537864    65A     -0.530162    66A     -0.518150
      67A     -0.508911    68A     -0.503494    69A     -0.494734
      70A     -0.487525    71A     -0.478750    72A     -0.475544
      73A     -0.463348    74A     -0.457989    75A     -0.451382
      76A     -0.436651

  @DF-RHF Final Energy: -1327.86034777898635

   => Energetics <=

    Nuclear Repulsion Energy =           1774.9268301062370483
    One-Electron Energy =               -5362.0371280864728760
    Two-Electron Energy =                2259.2499502012497032
    Total Energy =                      -1327.8603477789861245
  Basis Set: (AUG-CC-PVTZ AUX)
    Blend: AUG-CC-PVTZ-RI
    Molecular point group: c1

    Geometry (in Angstrom), charge = 0, multiplicity = 1:

       Center              X                  Y                   Z               Mass
    ------------   -----------------  -----------------  -----------------  -----------------
         P           -2.311183853737    -1.018493072966    -0.099456917847    30.973761998420
         O           -1.017853853737    -0.524522072966     0.752331082153    15.994914619570
         O            1.380274146263    -1.769135072966     1.217623082153    15.994914619570
         O           -0.148514853737     2.179081927034     0.518133082153    15.994914619570
         O            3.337634146263    -2.047993072966    -0.647999917847    15.994914619570
         O            2.583165146263     2.564831927034     0.634844082153    15.994914619570
         O            4.231032146263     0.678461927034    -0.638423917847    15.994914619570
         O           -2.862970853737     0.302180927034    -0.812292917847    15.994914619570
         O           -3.295866853737    -1.311883072966     1.150584082153    15.994914619570
         O           -2.093725853737    -2.143629072966    -1.037661917847    15.994914619570
         C            0.130759146263    -0.120526072966    -0.045812917847    12.000000000000
         C            1.080535146263    -1.314899072966    -0.107283917847    12.000000000000
         C            0.754897146263     1.083269927034     0.628204082153    12.000000000000
         C            2.430062146263    -0.948788072966    -0.709456917847    12.000000000000
         C            2.071031146263     1.423156927034    -0.049613917847    12.000000000000
         C            3.028820146263     0.256015927034     0.003059082153    12.000000000000
         C           -3.236587853737     1.460979927034    -0.000099917847    12.000000000000
         C           -3.196899853737     2.664062927034    -0.910183917847    12.000000000000
         H           -0.194002853737     0.169188927034    -1.054109917847     1.007825032230
         H            0.607231146263    -2.117142072966    -0.689252917847     1.007825032230
         H            0.947856146263     0.844129927034     1.683409082153     1.007825032230
         H            2.316200146263    -0.705902072966    -1.773052917847     1.007825032230
         H            1.882988346263     1.663160627034    -1.057594417847     1.007825032230
         H            3.224937146263    -0.003972072966     1.053553082153     1.007825032230
         H            0.523346146263    -1.967931072966     1.639999082153     1.007825032230
         H            0.370560146263     2.961117927034     0.789966082153     1.007825032230
         H            3.190120146263    -2.444489072966     0.233459082153     1.007825032230
         H            3.477986146263     2.711789927034     0.274429082153     1.007825032230
         H            4.774679146263    -0.127640072966    -0.727101917847     1.007825032230
         H           -3.776607853737    -2.144823072966     0.988233082153     1.007825032230
         H           -4.236739853737     1.271343927034     0.397971082153     1.007825032230
         H           -2.524559853737     1.568784927034     0.819116082153     1.007825032230
         H           -3.529480853737     3.550394927034    -0.361380917847     1.007825032230
         H           -2.174932853737     2.829100927034    -1.253806917847     1.007825032230
         H           -3.852987853737     2.518575927034    -1.771108917847     1.007825032230

  Basis Set: AUG-CC-PVTZ
    Blend: AUG-CC-PVTZ
  Basis Set: (AUG-CC-PVTZ AUX)
    Blend: AUG-CC-PVTZ-JKFIT
	 Reference Energy          =   -1327.8603477789863518 [Eh]
	 Singles Energy            =      -0.0000000000000000 [Eh]
	 Same-Spin Energy          =      -1.0145966597410652 [Eh]
	 Opposite-Spin Energy      =      -3.0761731563952996 [Eh]
	 Correlation Energy        =      -4.0907698161363646 [Eh]
	 Total Energy              =   -1331.9511175951226960 [Eh]

	 ================> DF-SCS-MP2 Energies <==================
	-----------------------------------------------------------
	 SCS Same-Spin Scale       =       0.3333333333333333 [-]
	 SCS Opposite-Spin Scale   =       1.2000000000000000 [-]
	 SCS Same-Spin Energy      =      -0.3381988865803550 [Eh]
	 SCS Opposite-Spin Energy  =      -3.6914077876743594 [Eh]
	 SCS Correlation Energy    =      -4.0296066742547145 [Eh]
	 SCS Total Energy          =   -1331.8899544532409891 [Eh]
	-----------------------------------------------------------

  Dipole Moment: [D]
     X:    -0.8743      Y:     1.4138      Z:     1.8514     Total:     2.4882

*** Psi4 exiting successfully. Buy a developer a beer!
