                               Psi4 1.4a3.dev225

  ==> Input File <==

--------------------------------------------------------------------------
#psi4
#
memory 32 gb

molecule  {
0 1
  P       -2.3219140    -1.0563120    -0.0968450
  O       -1.0285840    -0.5623410     0.7549430
  O        1.3695440    -1.8069540     1.2202350
  O       -0.1592450     2.1412630     0.5207450
  O        3.3269040    -2.0858120    -0.6453880
  O        2.5724350     2.5270130     0.6374560
  O        4.2203020     0.6406430    -0.6358120
  O       -2.8737010     0.2643620    -0.8096810
  O       -3.3065970    -1.3497020     1.1531960
  O       -2.1044560    -2.1814480    -1.0350500
  C        0.1200290    -0.1583450    -0.0432010
  C        1.0698050    -1.3527180    -0.1046720
  C        0.7441670     1.0454510     0.6308160
  C        2.4193320    -0.9866070    -0.7068450
  C        2.0603010     1.3853380    -0.0470020
  C        3.0180900     0.2181970     0.0056710
  C       -3.2473180     1.4231610     0.0025120
  C       -3.2076300     2.6262440    -0.9075720
  H       -0.2047330     0.1313700    -1.0514980
  H        0.5965010    -2.1549610    -0.6866410
  H        0.9371260     0.8063110     1.6860210
  H        2.3054700    -0.7437210    -1.7704410
  H        1.8633300     1.6367370    -1.1028410
  H        3.2106406    -0.0370632     1.0370619
  H        0.5126160    -2.0057500     1.6426110
  H        0.3598300     2.9232990     0.7925780
  H        3.1793900    -2.4823080     0.2360710
  H        3.4672560     2.6739710     0.2770410
  H        4.7639490    -0.1654590    -0.7244900
  H       -3.7873380    -2.1826420     0.9908450
  H       -4.2474700     1.2335250     0.4005830
  H       -2.5352900     1.5309660     0.8217280
  H       -3.5402110     3.5125760    -0.3587690
  H       -2.1856630     2.7912820    -1.2511950
  H       -3.8637180     2.4807570    -1.7684970
units angstrom
no_reorient  #important for SAPT in psi4, default
symmetry c1  #important for SAPT in psi4, default
}

set PROPERTIES_ORIGIN ["COM"]
properties('MP2/aug-cc-pvtz', properties = ['dipole'])
--------------------------------------------------------------------------

    Molecular point group: c1
  Charge       = 0
  Multiplicity = 1
  Basis Set: AUG-CC-PVTZ
    Blend: AUG-CC-PVTZ
  Basis Set: (AUG-CC-PVTZ AUX)
    Blend: AUG-CC-PVTZ-JKFIT

    Orbital Energies [Eh]
    ---------------------

    Doubly Occupied:

       1A    -80.116851     2A    -20.615028     3A    -20.608119
       4A    -20.596045     5A    -20.584223     6A    -20.578538
       7A    -20.575218     8A    -20.575035     9A    -20.574676
      10A    -20.522560    11A    -11.321440    12A    -11.305267
      13A    -11.300646    14A    -11.300140    15A    -11.298246
      16A    -11.296170    17A    -11.290723    18A    -11.222913
      19A     -7.632114    20A     -5.530649    21A     -5.530146
      22A     -5.529085    23A     -1.458527    24A     -1.410983
      25A     -1.395476    26A     -1.392739    27A     -1.385207
      28A     -1.372729    29A     -1.364282    30A     -1.354247
      31A     -1.302744    32A     -1.118972    33A     -1.035538
      34A     -1.011977    35A     -1.003576    36A     -0.878366
      37A     -0.862537    38A     -0.859589    39A     -0.823330
      40A     -0.810836    41A     -0.754660    42A     -0.746339
      43A     -0.729184    44A     -0.726277    45A     -0.705940
      46A     -0.686959    47A     -0.679437    48A     -0.674322
      49A     -0.662903    50A     -0.659531    51A     -0.642121
      52A     -0.637853    53A     -0.623835    54A     -0.613128
      55A     -0.604221    56A     -0.597354    57A     -0.580981
      58A     -0.577769    59A     -0.570351    60A     -0.560095
      61A     -0.555338    62A     -0.548251    63A     -0.538681
      64A     -0.537872    65A     -0.530171    66A     -0.517872
      67A     -0.508690    68A     -0.503755    69A     -0.494699
      70A     -0.487648    71A     -0.478716    72A     -0.475516
      73A     -0.462707    74A     -0.457801    75A     -0.451036
      76A     -0.436965

  @DF-RHF Final Energy: -1327.86110562112071

   => Energetics <=

    Nuclear Repulsion Energy =           1774.7380696137063296
    One-Electron Energy =               -5361.6694237652754964
    Two-Electron Energy =                2259.0702485304486800
    Total Energy =                      -1327.8611056211207142
  Basis Set: (AUG-CC-PVTZ AUX)
    Blend: AUG-CC-PVTZ-RI
    Molecular point group: c1

    Geometry (in Angstrom), charge = 0, multiplicity = 1:

       Center              X                  Y                   Z               Mass
    ------------   -----------------  -----------------  -----------------  -----------------
         P           -2.311140139490    -1.018549482069    -0.099222642564    30.973761998420
         O           -1.017810139490    -0.524578482069     0.752565357436    15.994914619570
         O            1.380317860510    -1.769191482069     1.217857357436    15.994914619570
         O           -0.148471139490     2.179025517931     0.518367357436    15.994914619570
         O            3.337677860510    -2.048049482069    -0.647765642564    15.994914619570
         O            2.583208860510     2.564775517931     0.635078357436    15.994914619570
         O            4.231075860510     0.678405517931    -0.638189642564    15.994914619570
         O           -2.862927139490     0.302124517931    -0.812058642564    15.994914619570
         O           -3.295823139490    -1.311939482069     1.150818357436    15.994914619570
         O           -2.093682139490    -2.143685482069    -1.037427642564    15.994914619570
         C            0.130802860510    -0.120582482069    -0.045578642564    12.000000000000
         C            1.080578860510    -1.314955482069    -0.107049642564    12.000000000000
         C            0.754940860510     1.083213517931     0.628438357436    12.000000000000
         C            2.430105860510    -0.948844482069    -0.709222642564    12.000000000000
         C            2.071074860510     1.423100517931    -0.049379642564    12.000000000000
         C            3.028863860510     0.255959517931     0.003293357436    12.000000000000
         C           -3.236544139490     1.460923517931     0.000134357436    12.000000000000
         C           -3.196856139490     2.664006517931    -0.909949642564    12.000000000000
         H           -0.193959139490     0.169132517931    -1.053875642564     1.007825032230
         H            0.607274860510    -2.117198482069    -0.689018642564     1.007825032230
         H            0.947899860510     0.844073517931     1.683643357436     1.007825032230
         H            2.316243860510    -0.705958482069    -1.772818642564     1.007825032230
         H            1.874103860510     1.674499517931    -1.105218642564     1.007825032230
         H            3.221414460510     0.000699317931     1.034684257436     1.007825032230
         H            0.523389860510    -1.967987482069     1.640233357436     1.007825032230
         H            0.370603860510     2.961061517931     0.790200357436     1.007825032230
         H            3.190163860510    -2.444545482069     0.233693357436     1.007825032230
         H            3.478029860510     2.711733517931     0.274663357436     1.007825032230
         H            4.774722860510    -0.127696482069    -0.726867642564     1.007825032230
         H           -3.776564139490    -2.144879482069     0.988467357436     1.007825032230
         H           -4.236696139490     1.271287517931     0.398205357436     1.007825032230
         H           -2.524516139490     1.568728517931     0.819350357436     1.007825032230
         H           -3.529437139490     3.550338517931    -0.361146642564     1.007825032230
         H           -2.174889139490     2.829044517931    -1.253572642564     1.007825032230
         H           -3.852944139490     2.518519517931    -1.770874642564     1.007825032230

  Basis Set: AUG-CC-PVTZ
    Blend: AUG-CC-PVTZ
  Basis Set: (AUG-CC-PVTZ AUX)
    Blend: AUG-CC-PVTZ-JKFIT
	 Reference Energy          =   -1327.8611056211207142 [Eh]
	 Singles Energy            =      -0.0000000000000000 [Eh]
	 Same-Spin Energy          =      -1.0146564834201479 [Eh]
	 Opposite-Spin Energy      =      -3.0764011060278418 [Eh]
	 Correlation Energy        =      -4.0910575894479901 [Eh]
	 Total Energy              =   -1331.9521632105686422 [Eh]

	 ================> DF-SCS-MP2 Energies <==================
	-----------------------------------------------------------
	 SCS Same-Spin Scale       =       0.3333333333333333 [-]
	 SCS Opposite-Spin Scale   =       1.2000000000000000 [-]
	 SCS Same-Spin Energy      =      -0.3382188278067160 [Eh]
	 SCS Opposite-Spin Energy  =      -3.6916813272334101 [Eh]
	 SCS Correlation Energy    =      -4.0299001550401261 [Eh]
	 SCS Total Energy          =   -1331.8910057761609096 [Eh]
	-----------------------------------------------------------

  Dipole Moment: [D]
     X:    -0.8652      Y:     1.4164      Z:     1.8854     Total:     2.5119

*** Psi4 exiting successfully. Buy a developer a beer!
