                               Psi4 1.3.2 release

  ==> Input File <==

--------------------------------------------------------------------------
#psi4
#
memory 32 gb

molecule  {
0 1
  P       -2.2900960    -0.9400430     0.3446780
  O       -0.9821530    -0.2015620     0.9382890
  O        1.3422500    -1.6754830     1.2308510
  O        0.0787050     2.3596040     0.4621680
  O        3.0685150    -2.1870720    -0.8085900
  O        2.8473350     2.5031130     0.3715350
  O        4.1956880     0.4353970    -0.9728740
  O       -2.8268630     0.0333510    -0.8075310
  O       -3.2591210    -0.7232820     1.6216710
  O       -2.1189930    -2.3436440    -0.0996680
  C        0.1181620     0.0300090     0.0163190
  C        0.9532920    -1.2442050    -0.0757250
  C        0.9091390     1.1742321     0.6080414
  C        2.2596600    -1.0143070    -0.8180370
  C        2.1770750     1.3964720    -0.2280410
  C        3.0258420     0.1487050    -0.2103220
  C       -3.1242130     1.4315980    -0.4888860
  C       -3.5363170     2.0851650    -1.7841190
  H       -0.2989655     0.2639758    -0.9725252
  H        0.3702690    -2.0293640    -0.5720320
  H        1.1571200     0.9978770     1.6121560
  H        2.0609340    -0.7886600    -1.8727560
  H        1.9169870     1.6362870    -1.2735830
  H        3.2958550    -0.0945320     0.8276460
  H        0.5217750    -1.8880320     1.7115100
  H        0.6655400     3.1093110     0.6831840
  H        2.9735430    -2.5473740     0.0946540
  H        3.7214290     2.5491860    -0.0588690
  H        4.6397270    -0.4238340    -1.0970870
  H       -3.8083950    -1.5223380     1.7347280
  H       -3.9305460     1.4455410     0.2493860
  H       -2.2297620     1.8928800    -0.0590960
  H       -3.8005210     3.1308820    -1.6026710
  H       -2.7171960     2.0533230    -2.5048750
  H       -4.4009440     1.5743230    -2.2127240
units angstrom
no_reorient  #important for SAPT in psi4, default
symmetry c1  #important for SAPT in psi4, default
}

set PROPERTIES_ORIGIN ["COM"]
properties('MP2/aug-cc-pvtz', properties = ['dipole'])
--------------------------------------------------------------------------

    Molecular point group: c1
  Charge       = 0
  Multiplicity = 1
  Basis Set: AUG-CC-PVTZ
    Blend: AUG-CC-PVTZ
  Basis Set: (AUG-CC-PVTZ AUX)
    Blend: AUG-CC-PVTZ-JKFIT

    Orbital Energies [Eh]
    ---------------------

    Doubly Occupied:

       1A    -80.116835     2A    -20.614653     3A    -20.606366
       4A    -20.598996     5A    -20.583712     6A    -20.576607
       7A    -20.574870     8A    -20.573953     9A    -20.570020
      10A    -20.523546    11A    -11.321623    12A    -11.303168
      13A    -11.299596    14A    -11.298946    15A    -11.298460
      16A    -11.297807    17A    -11.291028    18A    -11.229535
      19A     -7.632306    20A     -5.530816    21A     -5.530431
      22A     -5.529238    23A     -1.460276    24A     -1.410358
      25A     -1.394541    26A     -1.390314    27A     -1.386649
      28A     -1.370956    29A     -1.359914    30A     -1.350638
      31A     -1.303928    32A     -1.119039    33A     -1.040152
      34A     -1.012380    35A     -1.003167    36A     -0.879120
      37A     -0.864395    38A     -0.861589    39A     -0.821202
      40A     -0.813646    41A     -0.750272    42A     -0.745589
      43A     -0.731986    44A     -0.728069    45A     -0.707865
      46A     -0.684905    47A     -0.678525    48A     -0.673497
      49A     -0.661652    50A     -0.660561    51A     -0.643808
      52A     -0.632754    53A     -0.627034    54A     -0.614977
      55A     -0.603981    56A     -0.596368    57A     -0.580557
      58A     -0.575287    59A     -0.570839    60A     -0.558166
      61A     -0.556388    62A     -0.547679    63A     -0.541119
      64A     -0.536240    65A     -0.530120    66A     -0.522047
      67A     -0.513101    68A     -0.505048    69A     -0.497940
      70A     -0.486942    71A     -0.479715    72A     -0.476567
      73A     -0.463561    74A     -0.454303    75A     -0.451775
      76A     -0.436356

  @DF-RHF Final Energy: -1327.85746497138621

   => Energetics <=

    Nuclear Repulsion Energy =           1772.1704925082037789
    One-Electron Energy =               -5356.5151780454343680
    Two-Electron Energy =                2256.4872205658439270
    Total Energy =                      -1327.8574649713864346
  Basis Set: (AUG-CC-PVTZ AUX)
    Blend: AUG-CC-PVTZ-RI
    Molecular point group: c1

    Geometry (in Angstrom), charge = 0, multiplicity = 1:

       Center              X                  Y                   Z               Mass
    ------------   -----------------  -----------------  -----------------  -----------------
         P           -2.290479921544    -0.938737562698     0.342886774089    30.973761998420
         O           -0.982536921544    -0.200256562698     0.936497774089    15.994914619570
         O            1.341866078456    -1.674177562698     1.229059774089    15.994914619570
         O            0.078321078456     2.360909437302     0.460376774089    15.994914619570
         O            3.068131078456    -2.185766562698    -0.810381225911    15.994914619570
         O            2.846951078456     2.504418437302     0.369743774089    15.994914619570
         O            4.195304078456     0.436702437302    -0.974665225911    15.994914619570
         O           -2.827246921544     0.034656437302    -0.809322225911    15.994914619570
         O           -3.259504921544    -0.721976562698     1.619879774089    15.994914619570
         O           -2.119376921544    -2.342338562698    -0.101459225911    15.994914619570
         C            0.117778078456     0.031314437302     0.014527774089    12.000000000000
         C            0.952908078456    -1.242899562698    -0.077516225911    12.000000000000
         C            0.908755078456     1.175537537302     0.606250174089    12.000000000000
         C            2.259276078456    -1.013001562698    -0.819828225911    12.000000000000
         C            2.176691078456     1.397777437302    -0.229832225911    12.000000000000
         C            3.025458078456     0.150010437302    -0.212113225911    12.000000000000
         C           -3.124596921544     1.432903437302    -0.490677225911    12.000000000000
         C           -3.536700921544     2.086470437302    -1.785910225911    12.000000000000
         H           -0.299349421544     0.265281237302    -0.974316425911     1.007825032230
         H            0.369885078456    -2.028058562698    -0.573823225911     1.007825032230
         H            1.156736078456     0.999182437302     1.610364774089     1.007825032230
         H            2.060550078456    -0.787354562698    -1.874547225911     1.007825032230
         H            1.916603078456     1.637592437302    -1.275374225911     1.007825032230
         H            3.295471078456    -0.093226562698     0.825854774089     1.007825032230
         H            0.521391078456    -1.886726562698     1.709718774089     1.007825032230
         H            0.665156078456     3.110616437302     0.681392774089     1.007825032230
         H            2.973159078456    -2.546068562698     0.092862774089     1.007825032230
         H            3.721045078456     2.550491437302    -0.060660225911     1.007825032230
         H            4.639343078456    -0.422528562698    -1.098878225911     1.007825032230
         H           -3.808778921544    -1.521032562698     1.732936774089     1.007825032230
         H           -3.930929921544     1.446846437302     0.247594774089     1.007825032230
         H           -2.230145921544     1.894185437302    -0.060887225911     1.007825032230
         H           -3.800904921544     3.132187437302    -1.604462225911     1.007825032230
         H           -2.717579921544     2.054628437302    -2.506666225911     1.007825032230
         H           -4.401327921544     1.575628437302    -2.214515225911     1.007825032230

  Basis Set: AUG-CC-PVTZ
    Blend: AUG-CC-PVTZ
  Basis Set: (AUG-CC-PVTZ AUX)
    Blend: AUG-CC-PVTZ-JKFIT
	 Reference Energy          =   -1327.8574649713862073 [Eh]
	 Singles Energy            =      -0.0000000000000000 [Eh]
	 Same-Spin Energy          =      -1.0145797437470396 [Eh]
	 Opposite-Spin Energy      =      -3.0766939748574442 [Eh]
	 Correlation Energy        =      -4.0912737186044836 [Eh]
	 Total Energy              =   -1331.9487386899907051 [Eh]

	 ================> DF-SCS-MP2 Energies <==================
	-----------------------------------------------------------
	 SCS Same-Spin Scale       =       0.3333333333333333 [-]
	 SCS Opposite-Spin Scale   =       1.2000000000000000 [-]
	 SCS Same-Spin Energy      =      -0.3381932479156798 [Eh]
	 SCS Opposite-Spin Energy  =      -3.6920327698289328 [Eh]
	 SCS Correlation Energy    =      -4.0302260177446128 [Eh]
	 SCS Total Energy          =   -1331.8876909891307605 [Eh]
	-----------------------------------------------------------

  Dipole Moment: [D]
     X:    -1.0709      Y:     1.7765      Z:     0.7572     Total:     2.2082

*** Psi4 exiting successfully. Buy a developer a beer!
