                               Psi4 1.3.2 release

  ==> Input File <==

--------------------------------------------------------------------------
#psi4
#
memory 32 gb

molecule  {
0 1
  P       -2.2900960    -0.9400430     0.3446780
  O       -0.9862022    -0.1896935     0.9363503
  O        1.3422500    -1.6754830     1.2308510
  O        0.0787050     2.3596040     0.4621680
  O        3.0685150    -2.1870720    -0.8085900
  O        2.8473350     2.5031130     0.3715350
  O        4.1956880     0.4353970    -0.9728740
  O       -2.8268630     0.0333510    -0.8075310
  O       -3.2591210    -0.7232820     1.6216710
  O       -2.1189930    -2.3436440    -0.0996680
  C        0.1181620     0.0300090     0.0163190
  C        0.9614400    -1.2381712    -0.0843625
  C        0.8985890     1.2026440     0.5648510
  C        2.2596600    -1.0143070    -0.8180370
  C        2.1770750     1.3964720    -0.2280410
  C        3.0258420     0.1487050    -0.2103220
  C       -3.1242130     1.4315980    -0.4888860
  C       -3.5363170     2.0851650    -1.7841190
  H       -0.2830920     0.2988010    -0.9702380
  H        0.3702690    -2.0293640    -0.5720320
  H        1.1571200     0.9978770     1.6121560
  H        2.0609340    -0.7886600    -1.8727560
  H        1.9169870     1.6362870    -1.2735830
  H        3.2958550    -0.0945320     0.8276460
  H        0.5217750    -1.8880320     1.7115100
  H        0.6655400     3.1093110     0.6831840
  H        2.9735430    -2.5473740     0.0946540
  H        3.7214290     2.5491860    -0.0588690
  H        4.6397270    -0.4238340    -1.0970870
  H       -3.8083950    -1.5223380     1.7347280
  H       -3.9305460     1.4455410     0.2493860
  H       -2.2297620     1.8928800    -0.0590960
  H       -3.8005210     3.1308820    -1.6026710
  H       -2.7171960     2.0533230    -2.5048750
  H       -4.4009440     1.5743230    -2.2127240
units angstrom
no_reorient  #important for SAPT in psi4, default
symmetry c1  #important for SAPT in psi4, default
}

set PROPERTIES_ORIGIN ["COM"]
properties('MP2/aug-cc-pvtz', properties = ['dipole'])
--------------------------------------------------------------------------

    Molecular point group: c1
  Charge       = 0
  Multiplicity = 1
  Basis Set: AUG-CC-PVTZ
    Blend: AUG-CC-PVTZ
  Basis Set: (AUG-CC-PVTZ AUX)
    Blend: AUG-CC-PVTZ-JKFIT

    Orbital Energies [Eh]
    ---------------------

    Doubly Occupied:

       1A    -80.117229     2A    -20.614874     3A    -20.607438
       4A    -20.598544     5A    -20.582256     6A    -20.576836
       7A    -20.575104     8A    -20.574277     9A    -20.573245
      10A    -20.524252    11A    -11.321007    12A    -11.304226
      13A    -11.299554    14A    -11.299117    15A    -11.298440
      16A    -11.296717    17A    -11.291695    18A    -11.229694
      19A     -7.632659    20A     -5.531168    21A     -5.530792
      22A     -5.529590    23A     -1.460182    24A     -1.410189
      25A     -1.394494    26A     -1.392690    27A     -1.386687
      28A     -1.372030    29A     -1.363470    30A     -1.353771
      31A     -1.304457    32A     -1.120239    33A     -1.040270
      34A     -1.012118    35A     -1.005096    36A     -0.880520
      37A     -0.864838    38A     -0.859064    39A     -0.822393
      40A     -0.810668    41A     -0.751570    42A     -0.745181
      43A     -0.731289    44A     -0.728108    45A     -0.708080
      46A     -0.686917    47A     -0.677989    48A     -0.673592
      49A     -0.662523    50A     -0.661084    51A     -0.642942
      52A     -0.634880    53A     -0.627471    54A     -0.615050
      55A     -0.603362    56A     -0.598519    57A     -0.581906
      58A     -0.575677    59A     -0.570718    60A     -0.559259
      61A     -0.556437    62A     -0.547653    63A     -0.540987
      64A     -0.536632    65A     -0.529236    66A     -0.521865
      67A     -0.513362    68A     -0.504983    69A     -0.497040
      70A     -0.485654    71A     -0.479933    72A     -0.477058
      73A     -0.462930    74A     -0.455977    75A     -0.450375
      76A     -0.436547

  @DF-RHF Final Energy: -1327.86081323680264

   => Energetics <=

    Nuclear Repulsion Energy =           1772.4458901505340691
    One-Electron Energy =               -5357.0240516154199213
    Two-Electron Energy =                2256.7173482280832104
    Total Energy =                      -1327.8608132368026418
  Basis Set: (AUG-CC-PVTZ AUX)
    Blend: AUG-CC-PVTZ-RI
    Molecular point group: c1

    Geometry (in Angstrom), charge = 0, multiplicity = 1:

       Center              X                  Y                   Z               Mass
    ------------   -----------------  -----------------  -----------------  -----------------
         P           -2.290210558831    -0.940953349320     0.345145458883    30.973761998420
         O           -0.986316758831    -0.190603849320     0.936817758883    15.994914619570
         O            1.342135441169    -1.676393349320     1.231318458883    15.994914619570
         O            0.078590441169     2.358693650680     0.462635458883    15.994914619570
         O            3.068400441169    -2.187982349320    -0.808122541117    15.994914619570
         O            2.847220441169     2.502202650680     0.372002458883    15.994914619570
         O            4.195573441169     0.434486650680    -0.972406541117    15.994914619570
         O           -2.826977558831     0.032440650680    -0.807063541117    15.994914619570
         O           -3.259235558831    -0.724192349320     1.622138458883    15.994914619570
         O           -2.119107558831    -2.344554349320    -0.099200541117    15.994914619570
         C            0.118047441169     0.029098650680     0.016786458883    12.000000000000
         C            0.961325441169    -1.239081549320    -0.083895041117    12.000000000000
         C            0.898474441169     1.201733650680     0.565318458883    12.000000000000
         C            2.259545441169    -1.015217349320    -0.817569541117    12.000000000000
         C            2.176960441169     1.395561650680    -0.227573541117    12.000000000000
         C            3.025727441169     0.147794650680    -0.209854541117    12.000000000000
         C           -3.124327558831     1.430687650680    -0.488418541117    12.000000000000
         C           -3.536431558831     2.084254650680    -1.783651541117    12.000000000000
         H           -0.283206558831     0.297890650680    -0.969770541117     1.007825032230
         H            0.370154441169    -2.030274349320    -0.571564541117     1.007825032230
         H            1.157005441169     0.996966650680     1.612623458883     1.007825032230
         H            2.060819441169    -0.789570349320    -1.872288541117     1.007825032230
         H            1.916872441169     1.635376650680    -1.273115541117     1.007825032230
         H            3.295740441169    -0.095442349320     0.828113458883     1.007825032230
         H            0.521660441169    -1.888942349320     1.711977458883     1.007825032230
         H            0.665425441169     3.108400650680     0.683651458883     1.007825032230
         H            2.973428441169    -2.548284349320     0.095121458883     1.007825032230
         H            3.721314441169     2.548275650680    -0.058401541117     1.007825032230
         H            4.639612441169    -0.424744349320    -1.096619541117     1.007825032230
         H           -3.808509558831    -1.523248349320     1.735195458883     1.007825032230
         H           -3.930660558831     1.444630650680     0.249853458883     1.007825032230
         H           -2.229876558831     1.891969650680    -0.058628541117     1.007825032230
         H           -3.800635558831     3.129971650680    -1.602203541117     1.007825032230
         H           -2.717310558831     2.052412650680    -2.504407541117     1.007825032230
         H           -4.401058558831     1.573412650680    -2.212256541117     1.007825032230

  Basis Set: AUG-CC-PVTZ
    Blend: AUG-CC-PVTZ
  Basis Set: (AUG-CC-PVTZ AUX)
    Blend: AUG-CC-PVTZ-JKFIT
	 Reference Energy          =   -1327.8608132368026418 [Eh]
	 Singles Energy            =      -0.0000000000000000 [Eh]
	 Same-Spin Energy          =      -1.0147216809950443 [Eh]
	 Opposite-Spin Energy      =      -3.0763492672200772 [Eh]
	 Correlation Energy        =      -4.0910709482151217 [Eh]
	 Total Energy              =   -1331.9518841850176614 [Eh]

	 ================> DF-SCS-MP2 Energies <==================
	-----------------------------------------------------------
	 SCS Same-Spin Scale       =       0.3333333333333333 [-]
	 SCS Opposite-Spin Scale   =       1.2000000000000000 [-]
	 SCS Same-Spin Energy      =      -0.3382405603316814 [Eh]
	 SCS Opposite-Spin Energy  =      -3.6916191206640923 [Eh]
	 SCS Correlation Energy    =      -4.0298596809957736 [Eh]
	 SCS Total Energy          =   -1331.8906729177983834 [Eh]
	-----------------------------------------------------------

  Dipole Moment: [D]
     X:    -1.1072      Y:     1.8407      Z:     0.7053     Total:     2.2609

*** Psi4 exiting successfully. Buy a developer a beer!
