                               Psi4 1.3.2 release

  ==> Input File <==

--------------------------------------------------------------------------
#psi4
#
memory 32 gb

molecule  {
0 1
  P       -2.2900960    -0.9400430     0.3446780
  O       -0.9821530    -0.2015620     0.9382890
  O        1.3422500    -1.6754830     1.2308510
  O        0.0787050     2.3596040     0.4621680
  O        3.0685150    -2.1870720    -0.8085900
  O        2.8473350     2.5031130     0.3715350
  O        4.1956880     0.4353970    -0.9728740
  O       -2.8268630     0.0333510    -0.8075310
  O       -3.2591210    -0.7232820     1.6216710
  O       -2.1189930    -2.3436440    -0.0996680
  C        0.1752704     0.0198568    -0.0375202
  C        0.9532920    -1.2442050    -0.0757250
  C        0.8985890     1.2026440     0.5648510
  C        2.2596600    -1.0143070    -0.8180370
  C        2.1562257     1.3343300    -0.2728734
  C        3.0258420     0.1487050    -0.2103220
  C       -3.1242130     1.4315980    -0.4888860
  C       -3.5363170     2.0851650    -1.7841190
  H       -0.2830920     0.2988010    -0.9702380
  H        0.3702690    -2.0293640    -0.5720320
  H        1.1571200     0.9978770     1.6121560
  H        2.0609340    -0.7886600    -1.8727560
  H        1.9169870     1.6362870    -1.2735830
  H        3.2958550    -0.0945320     0.8276460
  H        0.5217750    -1.8880320     1.7115100
  H        0.6655400     3.1093110     0.6831840
  H        2.9735430    -2.5473740     0.0946540
  H        3.7214290     2.5491860    -0.0588690
  H        4.6397270    -0.4238340    -1.0970870
  H       -3.8083950    -1.5223380     1.7347280
  H       -3.9305460     1.4455410     0.2493860
  H       -2.2297620     1.8928800    -0.0590960
  H       -3.8005210     3.1308820    -1.6026710
  H       -2.7171960     2.0533230    -2.5048750
  H       -4.4009440     1.5743230    -2.2127240
units angstrom
no_reorient  #important for SAPT in psi4, default
symmetry c1  #important for SAPT in psi4, default
}

set PROPERTIES_ORIGIN ["COM"]
properties('MP2/aug-cc-pvtz', properties = ['dipole'])
--------------------------------------------------------------------------

    Molecular point group: c1
  Charge       = 0
  Multiplicity = 1
  Basis Set: AUG-CC-PVTZ
    Blend: AUG-CC-PVTZ
  Basis Set: (AUG-CC-PVTZ AUX)
    Blend: AUG-CC-PVTZ-JKFIT

    Orbital Energies [Eh]
    ---------------------

    Doubly Occupied:

       1A    -80.111581     2A    -20.611055     3A    -20.597695
       4A    -20.596421     5A    -20.587201     6A    -20.577443
       7A    -20.577330     8A    -20.576735     9A    -20.569436
      10A    -20.520222    11A    -11.324643    12A    -11.307219
      13A    -11.304709    14A    -11.302887    15A    -11.298210
      16A    -11.298084    17A    -11.294958    18A    -11.229320
      19A     -7.627085    20A     -5.525603    21A     -5.525175
      22A     -5.524062    23A     -1.451171    24A     -1.410780
      25A     -1.389023    26A     -1.388713    27A     -1.384211
      28A     -1.366610    29A     -1.361370    30A     -1.340329
      31A     -1.300156    32A     -1.135256    33A     -1.039460
      34A     -1.023380    35A     -1.009312    36A     -0.875314
      37A     -0.864656    38A     -0.863402    39A     -0.820005
      40A     -0.816821    41A     -0.753138    42A     -0.744796
      43A     -0.732566    44A     -0.722262    45A     -0.701680
      46A     -0.689046    47A     -0.680296    48A     -0.673351
      49A     -0.662320    50A     -0.656265    51A     -0.638220
      52A     -0.635284    53A     -0.623994    54A     -0.616535
      55A     -0.603311    56A     -0.595109    57A     -0.583571
      58A     -0.571870    59A     -0.569018    60A     -0.557144
      61A     -0.552683    62A     -0.549659    63A     -0.539669
      64A     -0.538302    65A     -0.528940    66A     -0.518065
      67A     -0.512127    68A     -0.506399    69A     -0.495596
      70A     -0.489464    71A     -0.478715    72A     -0.474692
      73A     -0.468424    74A     -0.465653    75A     -0.457719
      76A     -0.437766

  @DF-RHF Final Energy: -1327.84565409283073

   => Energetics <=

    Nuclear Repulsion Energy =           1772.4484264163529588
    One-Electron Energy =               -5357.0867801940794379
    Two-Electron Energy =                2256.7926996848959789
    Total Energy =                      -1327.8456540928305003
  Basis Set: (AUG-CC-PVTZ AUX)
    Blend: AUG-CC-PVTZ-RI
    Molecular point group: c1

    Geometry (in Angstrom), charge = 0, multiplicity = 1:

       Center              X                  Y                   Z               Mass
    ------------   -----------------  -----------------  -----------------  -----------------
         P           -2.291606442972    -0.937031362070     0.348788436548    30.973761998420
         O           -0.983663442972    -0.198550362070     0.942399436548    15.994914619570
         O            1.340739557028    -1.672471362070     1.234961436548    15.994914619570
         O            0.077194557028     2.362615637930     0.466278436548    15.994914619570
         O            3.067004557028    -2.184060362070    -0.804479563452    15.994914619570
         O            2.845824557028     2.506124637930     0.375645436548    15.994914619570
         O            4.194177557028     0.438408637930    -0.968763563452    15.994914619570
         O           -2.828373442972     0.036362637930    -0.803420563452    15.994914619570
         O           -3.260631442972    -0.720270362070     1.625781436548    15.994914619570
         O           -2.120503442972    -2.340632362070    -0.095557563452    15.994914619570
         C            0.173759957028     0.022868437930    -0.033409763452    12.000000000000
         C            0.951781557028    -1.241193362070    -0.071614563452    12.000000000000
         C            0.897078557028     1.205655637930     0.568961436548    12.000000000000
         C            2.258149557028    -1.011295362070    -0.813926563452    12.000000000000
         C            2.154715257028     1.337341637930    -0.268762963452    12.000000000000
         C            3.024331557028     0.151716637930    -0.206211563452    12.000000000000
         C           -3.125723442972     1.434609637930    -0.484775563452    12.000000000000
         C           -3.537827442972     2.088176637930    -1.780008563452    12.000000000000
         H           -0.284602442972     0.301812637930    -0.966127563452     1.007825032230
         H            0.368758557028    -2.026352362070    -0.567921563452     1.007825032230
         H            1.155609557028     1.000888637930     1.616266436548     1.007825032230
         H            2.059423557028    -0.785648362070    -1.868645563452     1.007825032230
         H            1.915476557028     1.639298637930    -1.269472563452     1.007825032230
         H            3.294344557028    -0.091520362070     0.831756436548     1.007825032230
         H            0.520264557028    -1.885020362070     1.715620436548     1.007825032230
         H            0.664029557028     3.112322637930     0.687294436548     1.007825032230
         H            2.972032557028    -2.544362362070     0.098764436548     1.007825032230
         H            3.719918557028     2.552197637930    -0.054758563452     1.007825032230
         H            4.638216557028    -0.420822362070    -1.092976563452     1.007825032230
         H           -3.809905442972    -1.519326362070     1.738838436548     1.007825032230
         H           -3.932056442972     1.448552637930     0.253496436548     1.007825032230
         H           -2.231272442972     1.895891637930    -0.054985563452     1.007825032230
         H           -3.802031442972     3.133893637930    -1.598560563452     1.007825032230
         H           -2.718706442972     2.056334637930    -2.500764563452     1.007825032230
         H           -4.402454442972     1.577334637930    -2.208613563452     1.007825032230

  Basis Set: AUG-CC-PVTZ
    Blend: AUG-CC-PVTZ
  Basis Set: (AUG-CC-PVTZ AUX)
    Blend: AUG-CC-PVTZ-JKFIT
	 Reference Energy          =   -1327.8456540928307277 [Eh]
	 Singles Energy            =      -0.0000000000000000 [Eh]
	 Same-Spin Energy          =      -1.0160492834434331 [Eh]
	 Opposite-Spin Energy      =      -3.0794830548341587 [Eh]
	 Correlation Energy        =      -4.0955323382775921 [Eh]
	 Total Energy              =   -1331.9411864311082354 [Eh]

	 ================> DF-SCS-MP2 Energies <==================
	-----------------------------------------------------------
	 SCS Same-Spin Scale       =       0.3333333333333333 [-]
	 SCS Opposite-Spin Scale   =       1.2000000000000000 [-]
	 SCS Same-Spin Energy      =      -0.3386830944811444 [Eh]
	 SCS Opposite-Spin Energy  =      -3.6953796658009903 [Eh]
	 SCS Correlation Energy    =      -4.0340627602821346 [Eh]
	 SCS Total Energy          =   -1331.8797168531127681 [Eh]
	-----------------------------------------------------------

  Dipole Moment: [D]
     X:    -0.8942      Y:     1.7222      Z:     0.5457     Total:     2.0158

*** Psi4 exiting successfully. Buy a developer a beer!
