                               Psi4 1.3.2 release

  ==> Input File <==

--------------------------------------------------------------------------
#psi4
#
memory 32 gb

molecule  {
0 1
  P       -2.2900960    -0.9400430     0.3446780
  O       -0.9821530    -0.2015620     0.9382890
  O        1.3422500    -1.6754830     1.2308510
  O        0.0787050     2.3596040     0.4621680
  O        3.0685150    -2.1870720    -0.8085900
  O        2.8473350     2.5031130     0.3715350
  O        4.1956880     0.4353970    -0.9728740
  O       -2.8268630     0.0333510    -0.8075310
  O       -3.2591210    -0.7232820     1.6216710
  O       -2.1189930    -2.3436440    -0.0996680
  C        0.1181620     0.0300090     0.0163190
  C        0.9532920    -1.2442050    -0.0757250
  C        0.8985890     1.2026440     0.5648510
  C        2.1461110    -0.8496714    -0.8193632
  C        2.1770750     1.3964720    -0.2280410
  C        3.0258420     0.1487050    -0.2103220
  C       -3.1242130     1.4315980    -0.4888860
  C       -3.5363170     2.0851650    -1.7841190
  H       -0.2830920     0.2988010    -0.9702380
  H        0.3702690    -2.0293640    -0.5720320
  H        1.1571200     0.9978770     1.6121560
  H        2.0609340    -0.7886600    -1.8727560
  H        1.9169870     1.6362870    -1.2735830
  H        3.2958550    -0.0945320     0.8276460
  H        0.5217750    -1.8880320     1.7115100
  H        0.6655400     3.1093110     0.6831840
  H        2.9735430    -2.5473740     0.0946540
  H        3.7214290     2.5491860    -0.0588690
  H        4.6397270    -0.4238340    -1.0970870
  H       -3.8083950    -1.5223380     1.7347280
  H       -3.9305460     1.4455410     0.2493860
  H       -2.2297620     1.8928800    -0.0590960
  H       -3.8005210     3.1308820    -1.6026710
  H       -2.7171960     2.0533230    -2.5048750
  H       -4.4009440     1.5743230    -2.2127240
units angstrom
no_reorient  #important for SAPT in psi4, default
symmetry c1  #important for SAPT in psi4, default
}

set PROPERTIES_ORIGIN ["COM"]
properties('MP2/aug-cc-pvtz', properties = ['dipole'])
--------------------------------------------------------------------------

    Molecular point group: c1
  Charge       = 0
  Multiplicity = 1
  Basis Set: AUG-CC-PVTZ
    Blend: AUG-CC-PVTZ
  Basis Set: (AUG-CC-PVTZ AUX)
    Blend: AUG-CC-PVTZ-JKFIT

    Orbital Energies [Eh]
    ---------------------

    Doubly Occupied:

       1A    -80.118441     2A    -20.615956     3A    -20.608067
       4A    -20.600498     5A    -20.586671     6A    -20.579059
       7A    -20.578268     8A    -20.577064     9A    -20.550266
      10A    -20.525166    11A    -11.323139    12A    -11.309542
      13A    -11.305377    14A    -11.302819    15A    -11.300885
      16A    -11.299766    17A    -11.297843    18A    -11.231192
      19A     -7.633887    20A     -5.532393    21A     -5.532022
      22A     -5.530820    23A     -1.461820    24A     -1.410728
      25A     -1.397400    26A     -1.389294    27A     -1.386812
      28A     -1.375681    29A     -1.360922    30A     -1.305636
      31A     -1.305345    32A     -1.141059    33A     -1.042146
      34A     -1.024447    35A     -1.015495    36A     -0.885951
      37A     -0.867238    38A     -0.858097    39A     -0.823673
      40A     -0.816322    41A     -0.751262    42A     -0.746993
      43A     -0.735784    44A     -0.730110    45A     -0.711076
      46A     -0.690804    47A     -0.676323    48A     -0.675502
      49A     -0.665321    50A     -0.649070    51A     -0.642544
      52A     -0.635819    53A     -0.625832    54A     -0.618919
      55A     -0.606389    56A     -0.585678    57A     -0.585202
      58A     -0.577801    59A     -0.565720    60A     -0.561066
      61A     -0.559231    62A     -0.550766    63A     -0.545213
      64A     -0.537182    65A     -0.525441    66A     -0.522265
      67A     -0.508491    68A     -0.502272    69A     -0.495944
      70A     -0.483556    71A     -0.480112    72A     -0.477955
      73A     -0.464378    74A     -0.462242    75A     -0.450725
      76A     -0.441756

  @DF-RHF Final Energy: -1327.82506684029158

   => Energetics <=

    Nuclear Repulsion Energy =           1774.3668283824717946
    One-Electron Energy =               -5360.6798911528630924
    Two-Electron Energy =                2258.4879959300997143
    Total Energy =                      -1327.8250668402915835
  Basis Set: (AUG-CC-PVTZ AUX)
    Blend: AUG-CC-PVTZ-RI
    Molecular point group: c1

    Geometry (in Angstrom), charge = 0, multiplicity = 1:

       Center              X                  Y                   Z               Mass
    ------------   -----------------  -----------------  -----------------  -----------------
         P           -2.285365761031    -0.946901345898     0.344733237398    30.973761998420
         O           -0.977422761031    -0.208420345898     0.938344237398    15.994914619570
         O            1.346980238969    -1.682341345898     1.230906237398    15.994914619570
         O            0.083435238969     2.352745654102     0.462223237398    15.994914619570
         O            3.073245238969    -2.193930345898    -0.808534762602    15.994914619570
         O            2.852065238969     2.496254654102     0.371590237398    15.994914619570
         O            4.200418238969     0.428538654102    -0.972818762602    15.994914619570
         O           -2.822132761031     0.026492654102    -0.807475762602    15.994914619570
         O           -3.254390761031    -0.730140345898     1.621726237398    15.994914619570
         O           -2.114262761031    -2.350502345898    -0.099612762602    15.994914619570
         C            0.122892238969     0.023150654102     0.016374237398    12.000000000000
         C            0.958022238969    -1.251063345898    -0.075669762602    12.000000000000
         C            0.903319238969     1.195785654102     0.564906237398    12.000000000000
         C            2.150841238969    -0.856529745898    -0.819307962602    12.000000000000
         C            2.181805238969     1.389613654102    -0.227985762602    12.000000000000
         C            3.030572238969     0.141846654102    -0.210266762602    12.000000000000
         C           -3.119482761031     1.424739654102    -0.488830762602    12.000000000000
         C           -3.531586761031     2.078306654102    -1.784063762602    12.000000000000
         H           -0.278361761031     0.291942654102    -0.970182762602     1.007825032230
         H            0.374999238969    -2.036222345898    -0.571976762602     1.007825032230
         H            1.161850238969     0.991018654102     1.612211237398     1.007825032230
         H            2.065664238969    -0.795518345898    -1.872700762602     1.007825032230
         H            1.921717238969     1.629428654102    -1.273527762602     1.007825032230
         H            3.300585238969    -0.101390345898     0.827701237398     1.007825032230
         H            0.526505238969    -1.894890345898     1.711565237398     1.007825032230
         H            0.670270238969     3.102452654102     0.683239237398     1.007825032230
         H            2.978273238969    -2.554232345898     0.094709237398     1.007825032230
         H            3.726159238969     2.542327654102    -0.058813762602     1.007825032230
         H            4.644457238969    -0.430692345898    -1.097031762602     1.007825032230
         H           -3.803664761031    -1.529196345898     1.734783237398     1.007825032230
         H           -3.925815761031     1.438682654102     0.249441237398     1.007825032230
         H           -2.225031761031     1.886021654102    -0.059040762602     1.007825032230
         H           -3.795790761031     3.124023654102    -1.602615762602     1.007825032230
         H           -2.712465761031     2.046464654102    -2.504819762602     1.007825032230
         H           -4.396213761031     1.567464654102    -2.212668762602     1.007825032230

  Basis Set: AUG-CC-PVTZ
    Blend: AUG-CC-PVTZ
  Basis Set: (AUG-CC-PVTZ AUX)
    Blend: AUG-CC-PVTZ-JKFIT
	 Reference Energy          =   -1327.8250668402915835 [Eh]
	 Singles Energy            =      -0.0000000000000000 [Eh]
	 Same-Spin Energy          =      -1.0173847918698131 [Eh]
	 Opposite-Spin Energy      =      -3.0825170536584947 [Eh]
	 Correlation Energy        =      -4.0999018455283078 [Eh]
	 Total Energy              =   -1331.9249686858199766 [Eh]

	 ================> DF-SCS-MP2 Energies <==================
	-----------------------------------------------------------
	 SCS Same-Spin Scale       =       0.3333333333333333 [-]
	 SCS Opposite-Spin Scale   =       1.2000000000000000 [-]
	 SCS Same-Spin Energy      =      -0.3391282639566043 [Eh]
	 SCS Opposite-Spin Energy  =      -3.6990204643901934 [Eh]
	 SCS Correlation Energy    =      -4.0381487283467976 [Eh]
	 SCS Total Energy          =   -1331.8632155686384522 [Eh]
	-----------------------------------------------------------

  Dipole Moment: [D]
     X:    -1.4333      Y:     2.3903      Z:     0.7577     Total:     2.8882

*** Psi4 exiting successfully. Buy a developer a beer!
