                               Psi4 1.3.2 release

  ==> Input File <==

--------------------------------------------------------------------------
#psi4
#
memory 32 gb

molecule  {
0 1
  P       -2.2900960    -0.9400430     0.3446780
  O       -0.9821530    -0.2015620     0.9382890
  O        1.3422500    -1.6754830     1.2308510
  O        0.0787050     2.3596040     0.4621680
  O        3.0685150    -2.1870720    -0.8085900
  O        2.8473350     2.5031130     0.3715350
  O        4.1956880     0.4353970    -0.9728740
  O       -2.8268630     0.0333510    -0.8075310
  O       -3.1393125    -0.7500819     1.4637859
  O       -2.1189930    -2.3436440    -0.0996680
  C        0.1181620     0.0300090     0.0163190
  C        0.9532920    -1.2442050    -0.0757250
  C        0.8985890     1.2026440     0.5648510
  C        2.2596600    -1.0143070    -0.8180370
  C        2.1770750     1.3964720    -0.2280410
  C        3.0258420     0.1487050    -0.2103220
  C       -3.1242130     1.4315980    -0.4888860
  C       -3.5363170     2.0851650    -1.7841190
  H       -0.2830920     0.2988010    -0.9702380
  H        0.3702690    -2.0293640    -0.5720320
  H        1.1571200     0.9978770     1.6121560
  H        2.0609340    -0.7886600    -1.8727560
  H        1.9169870     1.6362870    -1.2735830
  H        3.2958550    -0.0945320     0.8276460
  H        0.5217750    -1.8880320     1.7115100
  H        0.6655400     3.1093110     0.6831840
  H        2.9735430    -2.5473740     0.0946540
  H        3.7214290     2.5491860    -0.0588690
  H        4.6397270    -0.4238340    -1.0970870
  H       -3.8083950    -1.5223380     1.7347280
  H       -3.9305460     1.4455410     0.2493860
  H       -2.2297620     1.8928800    -0.0590960
  H       -3.8005210     3.1308820    -1.6026710
  H       -2.7171960     2.0533230    -2.5048750
  H       -4.4009440     1.5743230    -2.2127240
units angstrom
no_reorient  #important for SAPT in psi4, default
symmetry c1  #important for SAPT in psi4, default
}

set PROPERTIES_ORIGIN ["COM"]
properties('MP2/aug-cc-pvtz', properties = ['dipole'])
--------------------------------------------------------------------------

    Molecular point group: c1
  Charge       = 0
  Multiplicity = 1
  Basis Set: AUG-CC-PVTZ
    Blend: AUG-CC-PVTZ
  Basis Set: (AUG-CC-PVTZ AUX)
    Blend: AUG-CC-PVTZ-JKFIT

    Orbital Energies [Eh]
    ---------------------

    Doubly Occupied:

       1A    -80.086947     2A    -20.625553     3A    -20.594919
       4A    -20.584649     5A    -20.578867     6A    -20.573797
       7A    -20.571222     8A    -20.571187     9A    -20.569848
      10A    -20.505211    11A    -11.313132    12A    -11.298116
      13A    -11.295351    14A    -11.294961    15A    -11.294049
      16A    -11.292954    17A    -11.288104    18A    -11.226398
      19A     -7.609645    20A     -5.509700    21A     -5.506764
      22A     -5.505664    23A     -1.501604    24A     -1.413014
      25A     -1.396919    26A     -1.389931    27A     -1.381792
      28A     -1.367544    29A     -1.360389    30A     -1.350428
      31A     -1.289225    32A     -1.114264    33A     -1.035590
      34A     -1.007199    35A     -0.999124    36A     -0.883536
      37A     -0.860318    38A     -0.855723    39A     -0.837805
      40A     -0.806644    41A     -0.750894    42A     -0.744637
      43A     -0.734420    44A     -0.730747    45A     -0.706121
      46A     -0.695638    47A     -0.682331    48A     -0.673815
      49A     -0.663888    50A     -0.658079    51A     -0.643416
      52A     -0.630111    53A     -0.624007    54A     -0.615535
      55A     -0.601940    56A     -0.594874    57A     -0.583934
      58A     -0.575617    59A     -0.565727    60A     -0.555644
      61A     -0.552744    62A     -0.543997    63A     -0.537038
      64A     -0.532705    65A     -0.524579    66A     -0.516073
      67A     -0.508140    68A     -0.499936    69A     -0.489953
      70A     -0.478547    71A     -0.471702    72A     -0.464503
      73A     -0.456111    74A     -0.452608    75A     -0.443769
      76A     -0.431865

  @DF-RHF Final Energy: -1327.82978052323938

   => Energetics <=

    Nuclear Repulsion Energy =           1782.6660022087864945
    One-Electron Energy =               -5378.0240992668377658
    Two-Electron Energy =                2267.5283165348123475
    Total Energy =                      -1327.8297805232391511
  Basis Set: (AUG-CC-PVTZ AUX)
    Blend: AUG-CC-PVTZ-RI
    Molecular point group: c1

    Geometry (in Angstrom), charge = 0, multiplicity = 1:

       Center              X                  Y                   Z               Mass
    ------------   -----------------  -----------------  -----------------  -----------------
         P           -2.296748469938    -0.938554887499     0.353444739919    30.973761998420
         O           -0.988805469938    -0.200073887499     0.947055739919    15.994914619570
         O            1.335597530062    -1.673994887499     1.239617739919    15.994914619570
         O            0.072052530062     2.361092112501     0.470934739919    15.994914619570
         O            3.061862530062    -2.185583887499    -0.799823260081    15.994914619570
         O            2.840682530062     2.504601112501     0.380301739919    15.994914619570
         O            4.189035530062     0.436885112501    -0.964107260081    15.994914619570
         O           -2.833515469938     0.034839112501    -0.798764260081    15.994914619570
         O           -3.145964969938    -0.748593787499     1.472552639919    15.994914619570
         O           -2.125645469938    -2.342155887499    -0.090901260081    15.994914619570
         C            0.111509530062     0.031497112501     0.025085739919    12.000000000000
         C            0.946639530062    -1.242716887499    -0.066958260081    12.000000000000
         C            0.891936530062     1.204132112501     0.573617739919    12.000000000000
         C            2.253007530062    -1.012818887499    -0.809270260081    12.000000000000
         C            2.170422530062     1.397960112501    -0.219274260081    12.000000000000
         C            3.019189530062     0.150193112501    -0.201555260081    12.000000000000
         C           -3.130865469938     1.433086112501    -0.480119260081    12.000000000000
         C           -3.542969469938     2.086653112501    -1.775352260081    12.000000000000
         H           -0.289744469938     0.300289112501    -0.961471260081     1.007825032230
         H            0.363616530062    -2.027875887499    -0.563265260081     1.007825032230
         H            1.150467530062     0.999365112501     1.620922739919     1.007825032230
         H            2.054281530062    -0.787171887499    -1.863989260081     1.007825032230
         H            1.910334530062     1.637775112501    -1.264816260081     1.007825032230
         H            3.289202530062    -0.093043887499     0.836412739919     1.007825032230
         H            0.515122530062    -1.886543887499     1.720276739919     1.007825032230
         H            0.658887530062     3.110799112501     0.691950739919     1.007825032230
         H            2.966890530062    -2.545885887499     0.103420739919     1.007825032230
         H            3.714776530062     2.550674112501    -0.050102260081     1.007825032230
         H            4.633074530062    -0.422345887499    -1.088320260081     1.007825032230
         H           -3.815047469938    -1.520849887499     1.743494739919     1.007825032230
         H           -3.937198469938     1.447029112501     0.258152739919     1.007825032230
         H           -2.236414469938     1.894368112501    -0.050329260081     1.007825032230
         H           -3.807173469938     3.132370112501    -1.593904260081     1.007825032230
         H           -2.723848469938     2.054811112501    -2.496108260081     1.007825032230
         H           -4.407596469938     1.575811112501    -2.203957260081     1.007825032230

  Basis Set: AUG-CC-PVTZ
    Blend: AUG-CC-PVTZ
  Basis Set: (AUG-CC-PVTZ AUX)
    Blend: AUG-CC-PVTZ-JKFIT
	 Reference Energy          =   -1327.8297805232393785 [Eh]
	 Singles Energy            =      -0.0000000000000000 [Eh]
	 Same-Spin Energy          =      -1.0140342472958115 [Eh]
	 Opposite-Spin Energy      =      -3.0722126258920168 [Eh]
	 Correlation Energy        =      -4.0862468731878288 [Eh]
	 Total Energy              =   -1331.9160273964271255 [Eh]

	 ================> DF-SCS-MP2 Energies <==================
	-----------------------------------------------------------
	 SCS Same-Spin Scale       =       0.3333333333333333 [-]
	 SCS Opposite-Spin Scale   =       1.2000000000000000 [-]
	 SCS Same-Spin Energy      =      -0.3380114157652705 [Eh]
	 SCS Opposite-Spin Energy  =      -3.6866551510704202 [Eh]
	 SCS Correlation Energy    =      -4.0246665668356911 [Eh]
	 SCS Total Energy          =   -1331.8544470900751548 [Eh]
	-----------------------------------------------------------

  Dipole Moment: [D]
     X:    -2.1024      Y:     1.7376      Z:     1.7362     Total:     3.2332

*** Psi4 exiting successfully. Buy a developer a beer!
