                               Psi4 1.3.2 release

  ==> Input File <==

--------------------------------------------------------------------------
#psi4
#
memory 32 gb

molecule  {
0 1
  P       -2.2900960    -0.9400430     0.3446780
  O       -0.9821530    -0.2015620     0.9382890
  O        1.3422500    -1.6754830     1.2308510
  O        0.0787050     2.3596040     0.4621680
  O        3.0685150    -2.1870720    -0.8085900
  O        2.8473350     2.5031130     0.3715350
  O        4.1956880     0.4353970    -0.9728740
  O       -2.8268630     0.0333510    -0.8075310
  O       -3.2591210    -0.7232820     1.6216710
  O       -2.1189930    -2.3436440    -0.0996680
  C        0.1181620     0.0300090     0.0163190
  C        0.9532920    -1.2442050    -0.0757250
  C        0.8958024     1.2095251     0.5539469
  C        2.2596600    -1.0143070    -0.8180370
  C        2.1770750     1.3964720    -0.2280410
  C        3.0258420     0.1487050    -0.2103220
  C       -3.1242130     1.4315980    -0.4888860
  C       -3.5363170     2.0851650    -1.7841190
  H       -0.2790465     0.3074578    -0.9694783
  H        0.3702690    -2.0293640    -0.5720320
  H        1.1571200     0.9978770     1.6121560
  H        2.0609340    -0.7886600    -1.8727560
  H        1.9169870     1.6362870    -1.2735830
  H        3.2958550    -0.0945320     0.8276460
  H        0.5217750    -1.8880320     1.7115100
  H        0.6655400     3.1093110     0.6831840
  H        2.9735430    -2.5473740     0.0946540
  H        3.7214290     2.5491860    -0.0588690
  H        4.6397270    -0.4238340    -1.0970870
  H       -3.8083950    -1.5223380     1.7347280
  H       -3.9305460     1.4455410     0.2493860
  H       -2.2297620     1.8928800    -0.0590960
  H       -3.8005210     3.1308820    -1.6026710
  H       -2.7171960     2.0533230    -2.5048750
  H       -4.4009440     1.5743230    -2.2127240
units angstrom
no_reorient  #important for SAPT in psi4, default
symmetry c1  #important for SAPT in psi4, default
}

set PROPERTIES_ORIGIN ["COM"]
properties('MP2/aug-cc-pvtz', properties = ['dipole'])
--------------------------------------------------------------------------

    Molecular point group: c1
  Charge       = 0
  Multiplicity = 1
  Basis Set: AUG-CC-PVTZ
    Blend: AUG-CC-PVTZ
  Basis Set: (AUG-CC-PVTZ AUX)
    Blend: AUG-CC-PVTZ-JKFIT

    Orbital Energies [Eh]
    ---------------------

    Doubly Occupied:

       1A    -80.116991     2A    -20.614770     3A    -20.607229
       4A    -20.598943     5A    -20.583018     6A    -20.576887
       7A    -20.574578     8A    -20.574385     9A    -20.574165
      10A    -20.523429    11A    -11.320647    12A    -11.303675
      13A    -11.299512    14A    -11.299331    15A    -11.298867
      16A    -11.296493    17A    -11.291585    18A    -11.229961
      19A     -7.632436    20A     -5.530941    21A     -5.530572
      22A     -5.529367    23A     -1.460320    24A     -1.411115
      25A     -1.394966    26A     -1.393834    27A     -1.386917
      28A     -1.373483    29A     -1.364863    30A     -1.354213
      31A     -1.303828    32A     -1.119141    33A     -1.040554
      34A     -1.012012    35A     -1.003614    36A     -0.880639
      37A     -0.865103    38A     -0.858667    39A     -0.822646
      40A     -0.809928    41A     -0.752319    42A     -0.745164
      43A     -0.731468    44A     -0.728746    45A     -0.707952
      46A     -0.687732    47A     -0.678082    48A     -0.673773
      49A     -0.662569    50A     -0.661099    51A     -0.643396
      52A     -0.635312    53A     -0.627411    54A     -0.615590
      55A     -0.603770    56A     -0.598892    57A     -0.582018
      58A     -0.575618    59A     -0.571170    60A     -0.559673
      61A     -0.556698    62A     -0.548724    63A     -0.541236
      64A     -0.536711    65A     -0.530022    66A     -0.521570
      67A     -0.513104    68A     -0.504124    69A     -0.496900
      70A     -0.484282    71A     -0.479897    72A     -0.476647
      73A     -0.462010    74A     -0.456214    75A     -0.449188
      76A     -0.436300

  @DF-RHF Final Energy: -1327.86127881811171

   => Energetics <=

    Nuclear Repulsion Energy =           1772.5148656097378534
    One-Electron Energy =               -5357.1542817530780667
    Two-Electron Energy =                2256.7781373252282719
    Total Energy =                      -1327.8612788181117139
  Basis Set: (AUG-CC-PVTZ AUX)
    Blend: AUG-CC-PVTZ-RI
    Molecular point group: c1

    Geometry (in Angstrom), charge = 0, multiplicity = 1:

       Center              X                  Y                   Z               Mass
    ------------   -----------------  -----------------  -----------------  -----------------
         P           -2.289994037221    -0.940359921216     0.345129574103    30.973761998420
         O           -0.982051037221    -0.201878921216     0.938740574103    15.994914619570
         O            1.342351962779    -1.675799921216     1.231302574103    15.994914619570
         O            0.078806962779     2.359287078784     0.462619574103    15.994914619570
         O            3.068616962779    -2.187388921216    -0.808138425897    15.994914619570
         O            2.847436962779     2.502796078784     0.371986574103    15.994914619570
         O            4.195789962779     0.435080078784    -0.972422425897    15.994914619570
         O           -2.826761037221     0.033034078784    -0.807079425897    15.994914619570
         O           -3.259019037221    -0.723598921216     1.622122574103    15.994914619570
         O           -2.118891037221    -2.343960921216    -0.099216425897    15.994914619570
         C            0.118263962779     0.029692078784     0.016770574103    12.000000000000
         C            0.953393962779    -1.244521921216    -0.075273425897    12.000000000000
         C            0.895904362779     1.209208178784     0.554398474103    12.000000000000
         C            2.259761962779    -1.014623921216    -0.817585425897    12.000000000000
         C            2.177176962779     1.396155078784    -0.227589425897    12.000000000000
         C            3.025943962779     0.148388078784    -0.209870425897    12.000000000000
         C           -3.124111037221     1.431281078784    -0.488434425897    12.000000000000
         C           -3.536215037221     2.084848078784    -1.783667425897    12.000000000000
         H           -0.278944537221     0.307140878784    -0.969026725897     1.007825032230
         H            0.370370962779    -2.029680921216    -0.571580425897     1.007825032230
         H            1.157221962779     0.997560078784     1.612607574103     1.007825032230
         H            2.061035962779    -0.788976921216    -1.872304425897     1.007825032230
         H            1.917088962779     1.635970078784    -1.273131425897     1.007825032230
         H            3.295956962779    -0.094848921216     0.828097574103     1.007825032230
         H            0.521876962779    -1.888348921216     1.711961574103     1.007825032230
         H            0.665641962779     3.108994078784     0.683635574103     1.007825032230
         H            2.973644962779    -2.547690921216     0.095105574103     1.007825032230
         H            3.721530962779     2.548869078784    -0.058417425897     1.007825032230
         H            4.639828962779    -0.424150921216    -1.096635425897     1.007825032230
         H           -3.808293037221    -1.522654921216     1.735179574103     1.007825032230
         H           -3.930444037221     1.445224078784     0.249837574103     1.007825032230
         H           -2.229660037221     1.892563078784    -0.058644425897     1.007825032230
         H           -3.800419037221     3.130565078784    -1.602219425897     1.007825032230
         H           -2.717094037221     2.053006078784    -2.504423425897     1.007825032230
         H           -4.400842037221     1.574006078784    -2.212272425897     1.007825032230

  Basis Set: AUG-CC-PVTZ
    Blend: AUG-CC-PVTZ
  Basis Set: (AUG-CC-PVTZ AUX)
    Blend: AUG-CC-PVTZ-JKFIT
	 Reference Energy          =   -1327.8612788181117139 [Eh]
	 Singles Energy            =      -0.0000000000000000 [Eh]
	 Same-Spin Energy          =      -1.0146431360166959 [Eh]
	 Opposite-Spin Energy      =      -3.0760186564778906 [Eh]
	 Correlation Energy        =      -4.0906617924945863 [Eh]
	 Total Energy              =   -1331.9519406106062434 [Eh]

	 ================> DF-SCS-MP2 Energies <==================
	-----------------------------------------------------------
	 SCS Same-Spin Scale       =       0.3333333333333333 [-]
	 SCS Opposite-Spin Scale   =       1.2000000000000000 [-]
	 SCS Same-Spin Energy      =      -0.3382143786722319 [Eh]
	 SCS Opposite-Spin Energy  =      -3.6912223877734687 [Eh]
	 SCS Correlation Energy    =      -4.0294367664457003 [Eh]
	 SCS Total Energy          =   -1331.8907155845574835 [Eh]
	-----------------------------------------------------------

  Dipole Moment: [D]
     X:    -1.1249      Y:     1.8846      Z:     0.7109     Total:     2.3071

*** Psi4 exiting successfully. Buy a developer a beer!
