                               Psi4 1.3.2 release

  ==> Input File <==

--------------------------------------------------------------------------
#psi4
#
memory 32 gb

molecule  {
0 1
  P       -2.2900960    -0.9400430     0.3446780
  O       -0.9821530    -0.2015620     0.9382890
  O        1.3422500    -1.6754830     1.2308510
  O        0.0787050     2.3596040     0.4621680
  O        3.0685150    -2.1870720    -0.8085900
  O        2.8473350     2.5031130     0.3715350
  O        4.1956880     0.4353970    -0.9728740
  O       -2.8268630     0.0333510    -0.8075310
  O       -3.2591210    -0.7232820     1.6216710
  O       -2.1189930    -2.3436440    -0.0996680
  C        0.1181620     0.0300090     0.0163190
  C        0.9532920    -1.2442050    -0.0757250
  C        0.8985890     1.2026440     0.5648510
  C        2.2596600    -1.0143070    -0.8180370
  C        2.1770750     1.3964720    -0.2280410
  C        3.0251491     0.1611038    -0.2337552
  C       -3.1242130     1.4315980    -0.4888860
  C       -3.5363170     2.0851650    -1.7841190
  H       -0.2830920     0.2988010    -0.9702380
  H        0.3702690    -2.0293640    -0.5720320
  H        1.1571200     0.9978770     1.6121560
  H        2.0699804    -0.7719163    -1.8707046
  H        1.9169870     1.6362870    -1.2735830
  H        3.2958550    -0.0945320     0.8276460
  H        0.5217750    -1.8880320     1.7115100
  H        0.6655400     3.1093110     0.6831840
  H        2.9735430    -2.5473740     0.0946540
  H        3.7214290     2.5491860    -0.0588690
  H        4.6397270    -0.4238340    -1.0970870
  H       -3.8083950    -1.5223380     1.7347280
  H       -3.9305460     1.4455410     0.2493860
  H       -2.2297620     1.8928800    -0.0590960
  H       -3.8005210     3.1308820    -1.6026710
  H       -2.7171960     2.0533230    -2.5048750
  H       -4.4009440     1.5743230    -2.2127240
units angstrom
no_reorient  #important for SAPT in psi4, default
symmetry c1  #important for SAPT in psi4, default
}

set PROPERTIES_ORIGIN ["COM"]
properties('MP2/aug-cc-pvtz', properties = ['dipole'])
--------------------------------------------------------------------------

    Molecular point group: c1
  Charge       = 0
  Multiplicity = 1
  Basis Set: AUG-CC-PVTZ
    Blend: AUG-CC-PVTZ
  Basis Set: (AUG-CC-PVTZ AUX)
    Blend: AUG-CC-PVTZ-JKFIT

    Orbital Energies [Eh]
    ---------------------

    Doubly Occupied:

       1A    -80.116919     2A    -20.614705     3A    -20.607006
       4A    -20.598919     5A    -20.582889     6A    -20.577042
       7A    -20.575543     8A    -20.575207     9A    -20.573709
      10A    -20.523409    11A    -11.320766    12A    -11.303857
      13A    -11.299383    14A    -11.299293    15A    -11.299002
      16A    -11.296344    17A    -11.292084    18A    -11.229858
      19A     -7.632369    20A     -5.530875    21A     -5.530502
      22A     -5.529300    23A     -1.460262    24A     -1.411504
      25A     -1.396422    26A     -1.393136    27A     -1.386924
      28A     -1.374521    29A     -1.364153    30A     -1.355516
      31A     -1.303804    32A     -1.119498    33A     -1.040464
      34A     -1.012797    35A     -1.003568    36A     -0.879981
      37A     -0.864793    38A     -0.860616    39A     -0.821804
      40A     -0.809559    41A     -0.752050    42A     -0.745834
      43A     -0.731970    44A     -0.728515    45A     -0.707980
      46A     -0.687263    47A     -0.678523    48A     -0.674350
      49A     -0.664216    50A     -0.661162    51A     -0.643364
      52A     -0.636042    53A     -0.627466    54A     -0.615602
      55A     -0.603879    56A     -0.597633    57A     -0.581901
      58A     -0.575507    59A     -0.571082    60A     -0.559358
      61A     -0.557197    62A     -0.548500    63A     -0.541194
      64A     -0.537735    65A     -0.530084    66A     -0.521942
      67A     -0.513402    68A     -0.503466    69A     -0.497152
      70A     -0.484668    71A     -0.479835    72A     -0.476482
      73A     -0.462661    74A     -0.454682    75A     -0.450161
      76A     -0.434397

  @DF-RHF Final Energy: -1327.86070724511887

   => Energetics <=

    Nuclear Repulsion Energy =           1772.5878359059977356
    One-Electron Energy =               -5357.2859719110119840
    Two-Electron Energy =                2256.8374287598953742
    Total Energy =                      -1327.8607072451186468
  Basis Set: (AUG-CC-PVTZ AUX)
    Blend: AUG-CC-PVTZ-RI
    Molecular point group: c1

    Geometry (in Angstrom), charge = 0, multiplicity = 1:

       Center              X                  Y                   Z               Mass
    ------------   -----------------  -----------------  -----------------  -----------------
         P           -2.290098752646    -0.940618069925     0.345646990146    30.973761998420
         O           -0.982155752646    -0.202137069925     0.939257990146    15.994914619570
         O            1.342247247354    -1.676058069925     1.231819990146    15.994914619570
         O            0.078702247354     2.359028930075     0.463136990146    15.994914619570
         O            3.068512247354    -2.187647069925    -0.807621009854    15.994914619570
         O            2.847332247354     2.502537930075     0.372503990146    15.994914619570
         O            4.195685247354     0.434821930075    -0.971905009854    15.994914619570
         O           -2.826865752646     0.032775930075    -0.806562009854    15.994914619570
         O           -3.259123752646    -0.723857069925     1.622639990146    15.994914619570
         O           -2.118995752646    -2.344219069925    -0.098699009854    15.994914619570
         C            0.118159247354     0.029433930075     0.017287990146    12.000000000000
         C            0.953289247354    -1.244780069925    -0.074756009854    12.000000000000
         C            0.898586247354     1.202068930075     0.565819990146    12.000000000000
         C            2.259657247354    -1.014882069925    -0.817068009854    12.000000000000
         C            2.177072247354     1.395896930075    -0.227072009854    12.000000000000
         C            3.025146347354     0.160528730075    -0.232786209854    12.000000000000
         C           -3.124215752646     1.431022930075    -0.487917009854    12.000000000000
         C           -3.536319752646     2.084589930075    -1.783150009854    12.000000000000
         H           -0.283094752646     0.298225930075    -0.969269009854     1.007825032230
         H            0.370266247354    -2.029939069925    -0.571063009854     1.007825032230
         H            1.157117247354     0.997301930075     1.613124990146     1.007825032230
         H            2.069977647354    -0.772491369925    -1.869735609854     1.007825032230
         H            1.916984247354     1.635711930075    -1.272614009854     1.007825032230
         H            3.295852247354    -0.095107069925     0.828614990146     1.007825032230
         H            0.521772247354    -1.888607069925     1.712478990146     1.007825032230
         H            0.665537247354     3.108735930075     0.684152990146     1.007825032230
         H            2.973540247354    -2.547949069925     0.095622990146     1.007825032230
         H            3.721426247354     2.548610930075    -0.057900009854     1.007825032230
         H            4.639724247354    -0.424409069925    -1.096118009854     1.007825032230
         H           -3.808397752646    -1.522913069925     1.735696990146     1.007825032230
         H           -3.930548752646     1.444965930075     0.250354990146     1.007825032230
         H           -2.229764752646     1.892304930075    -0.058127009854     1.007825032230
         H           -3.800523752646     3.130306930075    -1.601702009854     1.007825032230
         H           -2.717198752646     2.052747930075    -2.503906009854     1.007825032230
         H           -4.400946752646     1.573747930075    -2.211755009854     1.007825032230

  Basis Set: AUG-CC-PVTZ
    Blend: AUG-CC-PVTZ
  Basis Set: (AUG-CC-PVTZ AUX)
    Blend: AUG-CC-PVTZ-JKFIT
	 Reference Energy          =   -1327.8607072451188742 [Eh]
	 Singles Energy            =      -0.0000000000000000 [Eh]
	 Same-Spin Energy          =      -1.0146942653736883 [Eh]
	 Opposite-Spin Energy      =      -3.0759717293204645 [Eh]
	 Correlation Energy        =      -4.0906659946941524 [Eh]
	 Total Energy              =   -1331.9513732398129378 [Eh]

	 ================> DF-SCS-MP2 Energies <==================
	-----------------------------------------------------------
	 SCS Same-Spin Scale       =       0.3333333333333333 [-]
	 SCS Opposite-Spin Scale   =       1.2000000000000000 [-]
	 SCS Same-Spin Energy      =      -0.3382314217912294 [Eh]
	 SCS Opposite-Spin Energy  =      -3.6911660751845572 [Eh]
	 SCS Correlation Energy    =      -4.0293974969757862 [Eh]
	 SCS Total Energy          =   -1331.8901047420947634 [Eh]
	-----------------------------------------------------------

  Dipole Moment: [D]
     X:    -1.0872      Y:     1.8762      Z:     0.6868     Total:     2.2746

*** Psi4 exiting successfully. Buy a developer a beer!
