                               Psi4 1.3.2 release

  ==> Input File <==

--------------------------------------------------------------------------
#psi4
#
memory 32 gb

molecule  {
0 1
  P       -2.2900960    -0.9400430     0.3446780
  O       -0.9899596    -0.2208614     0.9237756
  O        1.3422500    -1.6754830     1.2308510
  O        0.0787050     2.3596040     0.4621680
  O        3.0685150    -2.1870720    -0.8085900
  O        2.8473350     2.5031130     0.3715350
  O        4.1956880     0.4353970    -0.9728740
  O       -2.8268630     0.0333510    -0.8075310
  O       -3.2591210    -0.7232820     1.6216710
  O       -2.1189930    -2.3436440    -0.0996680
  C        0.1181620     0.0300090     0.0163190
  C        0.9532920    -1.2442050    -0.0757250
  C        0.9152551     1.2007826     0.5444840
  C        2.2596600    -1.0143070    -0.8180370
  C        2.1770750     1.3964720    -0.2280410
  C        3.0258420     0.1487050    -0.2103220
  C       -3.1242130     1.4315980    -0.4888860
  C       -3.5363170     2.0851650    -1.7841190
  H       -0.2830920     0.2988010    -0.9702380
  H        0.3702690    -2.0293640    -0.5720320
  H        1.1571200     0.9978770     1.6121560
  H        2.0609340    -0.7886600    -1.8727560
  H        1.9169870     1.6362870    -1.2735830
  H        3.2958550    -0.0945320     0.8276460
  H        0.5217750    -1.8880320     1.7115100
  H        0.6655400     3.1093110     0.6831840
  H        2.9735430    -2.5473740     0.0946540
  H        3.7214290     2.5491860    -0.0588690
  H        4.6397270    -0.4238340    -1.0970870
  H       -3.8083950    -1.5223380     1.7347280
  H       -3.9305460     1.4455410     0.2493860
  H       -2.2297620     1.8928800    -0.0590960
  H       -3.8005210     3.1308820    -1.6026710
  H       -2.7171960     2.0533230    -2.5048750
  H       -4.4009440     1.5743230    -2.2127240
units angstrom
no_reorient  #important for SAPT in psi4, default
symmetry c1  #important for SAPT in psi4, default
}

set PROPERTIES_ORIGIN ["COM"]
properties('MP2/aug-cc-pvtz', properties = ['dipole'])
--------------------------------------------------------------------------

    Molecular point group: c1
  Charge       = 0
  Multiplicity = 1
  Basis Set: AUG-CC-PVTZ
    Blend: AUG-CC-PVTZ
  Basis Set: (AUG-CC-PVTZ AUX)
    Blend: AUG-CC-PVTZ-JKFIT

    Orbital Energies [Eh]
    ---------------------

    Doubly Occupied:

       1A    -80.114733     2A    -20.613957     3A    -20.607623
       4A    -20.597583     5A    -20.583529     6A    -20.578159
       7A    -20.575142     8A    -20.574958     9A    -20.573497
      10A    -20.520921    11A    -11.323004    12A    -11.303867
      13A    -11.300462    14A    -11.299972    15A    -11.298928
      16A    -11.297628    17A    -11.292666    18A    -11.229517
      19A     -7.630522    20A     -5.529016    21A     -5.528725
      22A     -5.527439    23A     -1.462968    24A     -1.411309
      25A     -1.396257    26A     -1.393162    27A     -1.386007
      28A     -1.373632    29A     -1.363518    30A     -1.354347
      31A     -1.301848    32A     -1.122720    33A     -1.040035
      34A     -1.014418    35A     -1.006292    36A     -0.883067
      37A     -0.865095    38A     -0.858918    39A     -0.823024
      40A     -0.810539    41A     -0.752049    42A     -0.746219
      43A     -0.731695    44A     -0.730100    45A     -0.709181
      46A     -0.687032    47A     -0.678384    48A     -0.673711
      49A     -0.662800    50A     -0.661495    51A     -0.643827
      52A     -0.636096    53A     -0.627795    54A     -0.615501
      55A     -0.604538    56A     -0.598903    57A     -0.580701
      58A     -0.575239    59A     -0.572058    60A     -0.559322
      61A     -0.556585    62A     -0.548942    63A     -0.540613
      64A     -0.536604    65A     -0.530621    66A     -0.523015
      67A     -0.513142    68A     -0.504584    69A     -0.497212
      70A     -0.485111    71A     -0.479008    72A     -0.475143
      73A     -0.464366    74A     -0.457468    75A     -0.450102
      76A     -0.436956

  @DF-RHF Final Energy: -1327.86158284388739

   => Energetics <=

    Nuclear Repulsion Energy =           1773.2260219182794572
    One-Electron Energy =               -5358.5449664270718131
    Two-Electron Energy =                2257.4573616649049654
    Total Energy =                      -1327.8615828438873905
  Basis Set: (AUG-CC-PVTZ AUX)
    Blend: AUG-CC-PVTZ-RI
    Molecular point group: c1

    Geometry (in Angstrom), charge = 0, multiplicity = 1:

       Center              X                  Y                   Z               Mass
    ------------   -----------------  -----------------  -----------------  -----------------
         P           -2.290356770588    -0.938893819360     0.346332308995    30.973761998420
         O           -0.990220370588    -0.219712219360     0.925429908995    15.994914619570
         O            1.341989229412    -1.674333819360     1.232505308995    15.994914619570
         O            0.078444229412     2.360753180640     0.463822308995    15.994914619570
         O            3.068254229412    -2.185922819360    -0.806935691005    15.994914619570
         O            2.847074229412     2.504262180640     0.373189308995    15.994914619570
         O            4.195427229412     0.436546180640    -0.971219691005    15.994914619570
         O           -2.827123770588     0.034500180640    -0.805876691005    15.994914619570
         O           -3.259381770588    -0.722132819360     1.623325308995    15.994914619570
         O           -2.119253770588    -2.342494819360    -0.098013691005    15.994914619570
         C            0.117901229412     0.031158180640     0.017973308995    12.000000000000
         C            0.953031229412    -1.243055819360    -0.074070691005    12.000000000000
         C            0.914994329412     1.201931780640     0.546138308995    12.000000000000
         C            2.259399229412    -1.013157819360    -0.816382691005    12.000000000000
         C            2.176814229412     1.397621180640    -0.226386691005    12.000000000000
         C            3.025581229412     0.149854180640    -0.208667691005    12.000000000000
         C           -3.124473770588     1.432747180640    -0.487231691005    12.000000000000
         C           -3.536577770588     2.086314180640    -1.782464691005    12.000000000000
         H           -0.283352770588     0.299950180640    -0.968583691005     1.007825032230
         H            0.370008229412    -2.028214819360    -0.570377691005     1.007825032230
         H            1.156859229412     0.999026180640     1.613810308995     1.007825032230
         H            2.060673229412    -0.787510819360    -1.871101691005     1.007825032230
         H            1.916726229412     1.637436180640    -1.271928691005     1.007825032230
         H            3.295594229412    -0.093382819360     0.829300308995     1.007825032230
         H            0.521514229412    -1.886882819360     1.713164308995     1.007825032230
         H            0.665279229412     3.110460180640     0.684838308995     1.007825032230
         H            2.973282229412    -2.546224819360     0.096308308995     1.007825032230
         H            3.721168229412     2.550335180640    -0.057214691005     1.007825032230
         H            4.639466229412    -0.422684819360    -1.095432691005     1.007825032230
         H           -3.808655770588    -1.521188819360     1.736382308995     1.007825032230
         H           -3.930806770588     1.446690180640     0.251040308995     1.007825032230
         H           -2.230022770588     1.894029180640    -0.057441691005     1.007825032230
         H           -3.800781770588     3.132031180640    -1.601016691005     1.007825032230
         H           -2.717456770588     2.054472180640    -2.503220691005     1.007825032230
         H           -4.401204770588     1.575472180640    -2.211069691005     1.007825032230

  Basis Set: AUG-CC-PVTZ
    Blend: AUG-CC-PVTZ
  Basis Set: (AUG-CC-PVTZ AUX)
    Blend: AUG-CC-PVTZ-JKFIT
	 Reference Energy          =   -1327.8615828438873905 [Eh]
	 Singles Energy            =      -0.0000000000000000 [Eh]
	 Same-Spin Energy          =      -1.0144357903053594 [Eh]
	 Opposite-Spin Energy      =      -3.0754980157118106 [Eh]
	 Correlation Energy        =      -4.0899338060171697 [Eh]
	 Total Energy              =   -1331.9515166499045336 [Eh]

	 ================> DF-SCS-MP2 Energies <==================
	-----------------------------------------------------------
	 SCS Same-Spin Scale       =       0.3333333333333333 [-]
	 SCS Opposite-Spin Scale   =       1.2000000000000000 [-]
	 SCS Same-Spin Energy      =      -0.3381452634351197 [Eh]
	 SCS Opposite-Spin Energy  =      -3.6905976188541727 [Eh]
	 SCS Correlation Energy    =      -4.0287428822892926 [Eh]
	 SCS Total Energy          =   -1331.8903257261765702 [Eh]
	-----------------------------------------------------------

  Dipole Moment: [D]
     X:    -0.9753      Y:     1.9065      Z:     0.7314     Total:     2.2630

*** Psi4 exiting successfully. Buy a developer a beer!
