                               Psi4 1.3.2 release

  ==> Input File <==

--------------------------------------------------------------------------
#psi4
#
memory 32 gb

molecule  {
0 1
  P       -2.2900960    -0.9400430     0.3446780
  O       -0.9821530    -0.2015620     0.9382890
  O        1.3422500    -1.6754830     1.2308510
  O        0.0787050     2.3596040     0.4621680
  O        3.0685150    -2.1870720    -0.8085900
  O        2.8473350     2.5031130     0.3715350
  O        4.1956880     0.4353970    -0.9728740
  O       -2.8268630     0.0333510    -0.8075310
  O       -3.2591210    -0.7232820     1.6216710
  O       -2.1189930    -2.3436440    -0.0996680
  C        0.1181620     0.0300090     0.0163190
  C        0.9532920    -1.2442050    -0.0757250
  C        0.9430552     1.1881542     0.6290309
  C        2.2596600    -1.0143070    -0.8180370
  C        2.1770750     1.3964720    -0.2280410
  C        3.0258420     0.1487050    -0.2103220
  C       -3.1242130     1.4315980    -0.4888860
  C       -3.5363170     2.0851650    -1.7841190
  H       -0.2830920     0.2988010    -0.9702380
  H        0.3702690    -2.0293640    -0.5720320
  H        1.1571200     0.9978770     1.6121560
  H        2.0609340    -0.7886600    -1.8727560
  H        1.9734820     1.6394589    -1.2853122
  H        3.2958550    -0.0945320     0.8276460
  H        0.5217750    -1.8880320     1.7115100
  H        0.6655400     3.1093110     0.6831840
  H        2.9735430    -2.5473740     0.0946540
  H        3.7214290     2.5491860    -0.0588690
  H        4.6397270    -0.4238340    -1.0970870
  H       -3.8083950    -1.5223380     1.7347280
  H       -3.9305460     1.4455410     0.2493860
  H       -2.2297620     1.8928800    -0.0590960
  H       -3.8005210     3.1308820    -1.6026710
  H       -2.7171960     2.0533230    -2.5048750
  H       -4.4009440     1.5743230    -2.2127240
units angstrom
no_reorient  #important for SAPT in psi4, default
symmetry c1  #important for SAPT in psi4, default
}

set PROPERTIES_ORIGIN ["COM"]
properties('MP2/aug-cc-pvtz', properties = ['dipole'])
--------------------------------------------------------------------------

    Molecular point group: c1
  Charge       = 0
  Multiplicity = 1
  Basis Set: AUG-CC-PVTZ
    Blend: AUG-CC-PVTZ
  Basis Set: (AUG-CC-PVTZ AUX)
    Blend: AUG-CC-PVTZ-JKFIT

    Orbital Energies [Eh]
    ---------------------

    Doubly Occupied:

       1A    -80.116645     2A    -20.614515     3A    -20.606632
       4A    -20.598662     5A    -20.583797     6A    -20.575407
       7A    -20.574790     8A    -20.574454     9A    -20.570148
      10A    -20.523260    11A    -11.322390    12A    -11.302462
      13A    -11.299502    14A    -11.298709    15A    -11.298472
      16A    -11.297588    17A    -11.290929    18A    -11.229348
      19A     -7.632104    20A     -5.530613    21A     -5.530232
      22A     -5.529035    23A     -1.459820    24A     -1.410094
      25A     -1.394600    26A     -1.389988    27A     -1.386301
      28A     -1.370957    29A     -1.359302    30A     -1.349236
      31A     -1.303618    32A     -1.117518    33A     -1.039901
      34A     -1.010353    35A     -1.003712    36A     -0.879422
      37A     -0.864759    38A     -0.861809    39A     -0.820792
      40A     -0.814560    41A     -0.749974    42A     -0.746105
      43A     -0.731841    44A     -0.727340    45A     -0.707031
      46A     -0.684032    47A     -0.678398    48A     -0.673394
      49A     -0.662265    50A     -0.660178    51A     -0.643998
      52A     -0.631428    53A     -0.626878    54A     -0.615668
      55A     -0.606836    56A     -0.595377    57A     -0.577455
      58A     -0.575081    59A     -0.570679    60A     -0.558310
      61A     -0.555573    62A     -0.547921    63A     -0.540943
      64A     -0.535202    65A     -0.529955    66A     -0.520567
      67A     -0.513153    68A     -0.505189    69A     -0.497020
      70A     -0.487225    71A     -0.479284    72A     -0.476294
      73A     -0.468635    74A     -0.453181    75A     -0.450969
      76A     -0.435707

  @DF-RHF Final Energy: -1327.85238956558487

   => Energetics <=

    Nuclear Repulsion Energy =           1771.5120079490279750
    One-Electron Energy =               -5355.2177483117102383
    Two-Electron Energy =                2255.8533507970973915
    Total Energy =                      -1327.8523895655848719
  Basis Set: (AUG-CC-PVTZ AUX)
    Blend: AUG-CC-PVTZ-RI
    Molecular point group: c1

    Geometry (in Angstrom), charge = 0, multiplicity = 1:

       Center              X                  Y                   Z               Mass
    ------------   -----------------  -----------------  -----------------  -----------------
         P           -2.292145989335    -0.939450465920     0.342045431110    30.973761998420
         O           -0.984202989335    -0.200969465920     0.935656431110    15.994914619570
         O            1.340200010665    -1.674890465920     1.228218431110    15.994914619570
         O            0.076655010665     2.360196534080     0.459535431110    15.994914619570
         O            3.066465010665    -2.186479465920    -0.811222568890    15.994914619570
         O            2.845285010665     2.503705534080     0.368902431110    15.994914619570
         O            4.193638010665     0.435989534080    -0.975506568890    15.994914619570
         O           -2.828912989335     0.033943534080    -0.810163568890    15.994914619570
         O           -3.261170989335    -0.722689465920     1.619038431110    15.994914619570
         O           -2.121042989335    -2.343051465920    -0.102300568890    15.994914619570
         C            0.116112010665     0.030601534080     0.013686431110    12.000000000000
         C            0.951242010665    -1.243612465920    -0.078357568890    12.000000000000
         C            0.941005210665     1.188746734080     0.626398331110    12.000000000000
         C            2.257610010665    -1.013714465920    -0.820669568890    12.000000000000
         C            2.175025010665     1.397064534080    -0.230673568890    12.000000000000
         C            3.023792010665     0.149297534080    -0.212954568890    12.000000000000
         C           -3.126262989335     1.432190534080    -0.491518568890    12.000000000000
         C           -3.538366989335     2.085757534080    -1.786751568890    12.000000000000
         H           -0.285141989335     0.299393534080    -0.972870568890     1.007825032230
         H            0.368219010665    -2.028771465920    -0.574664568890     1.007825032230
         H            1.155070010665     0.998469534080     1.609523431110     1.007825032230
         H            2.058884010665    -0.788067465920    -1.875388568890     1.007825032230
         H            1.971432010665     1.640051434080    -1.287944768890     1.007825032230
         H            3.293805010665    -0.093939465920     0.825013431110     1.007825032230
         H            0.519725010665    -1.887439465920     1.708877431110     1.007825032230
         H            0.663490010665     3.109903534080     0.680551431110     1.007825032230
         H            2.971493010665    -2.546781465920     0.092021431110     1.007825032230
         H            3.719379010665     2.549778534080    -0.061501568890     1.007825032230
         H            4.637677010665    -0.423241465920    -1.099719568890     1.007825032230
         H           -3.810444989335    -1.521745465920     1.732095431110     1.007825032230
         H           -3.932595989335     1.446133534080     0.246753431110     1.007825032230
         H           -2.231811989335     1.893472534080    -0.061728568890     1.007825032230
         H           -3.802570989335     3.131474534080    -1.605303568890     1.007825032230
         H           -2.719245989335     2.053915534080    -2.507507568890     1.007825032230
         H           -4.402993989335     1.574915534080    -2.215356568890     1.007825032230

  Basis Set: AUG-CC-PVTZ
    Blend: AUG-CC-PVTZ
  Basis Set: (AUG-CC-PVTZ AUX)
    Blend: AUG-CC-PVTZ-JKFIT
	 Reference Energy          =   -1327.8523895655848719 [Eh]
	 Singles Energy            =      -0.0000000000000000 [Eh]
	 Same-Spin Energy          =      -1.0146093198662121 [Eh]
	 Opposite-Spin Energy      =      -3.0771321254866035 [Eh]
	 Correlation Energy        =      -4.0917414453528158 [Eh]
	 Total Energy              =   -1331.9441310109377810 [Eh]

	 ================> DF-SCS-MP2 Energies <==================
	-----------------------------------------------------------
	 SCS Same-Spin Scale       =       0.3333333333333333 [-]
	 SCS Opposite-Spin Scale   =       1.2000000000000000 [-]
	 SCS Same-Spin Energy      =      -0.3382031066220706 [Eh]
	 SCS Opposite-Spin Energy  =      -3.6925585505839242 [Eh]
	 SCS Correlation Energy    =      -4.0307616572059946 [Eh]
	 SCS Total Energy          =   -1331.8831512227909570 [Eh]
	-----------------------------------------------------------

  Dipole Moment: [D]
     X:    -1.0325      Y:     1.7809      Z:     0.7643     Total:     2.1959

*** Psi4 exiting successfully. Buy a developer a beer!
