                               Psi4 1.3.2 release

  ==> Input File <==

--------------------------------------------------------------------------
#psi4
#
memory 32 gb

molecule  {
0 1
  P       -2.2900960    -0.9400430     0.3446780
  O       -0.9821530    -0.2015620     0.9382890
  O        1.3422500    -1.6754830     1.2308510
  O        0.0787050     2.3596040     0.4621680
  O        3.0685150    -2.1870720    -0.8085900
  O        2.8473350     2.5031130     0.3715350
  O        4.1956880     0.4353970    -0.9728740
  O       -2.8268630     0.0333510    -0.8075310
  O       -3.2591210    -0.7232820     1.6216710
  O       -2.1189930    -2.3436440    -0.0996680
  C        0.1181620     0.0300090     0.0163190
  C        0.9581066    -1.2426603    -0.0495710
  C        0.8985890     1.2026440     0.5648510
  C        2.2596600    -1.0143070    -0.8180370
  C        2.1770750     1.3964720    -0.2280410
  C        3.0258420     0.1487050    -0.2103220
  C       -3.1242130     1.4315980    -0.4888860
  C       -3.5363170     2.0851650    -1.7841190
  H       -0.2916119     0.3140922    -0.9624203
  H        0.3702690    -2.0293640    -0.5720320
  H        1.1571200     0.9978770     1.6121560
  H        2.0609340    -0.7886600    -1.8727560
  H        1.9169870     1.6362870    -1.2735830
  H        3.2958550    -0.0945320     0.8276460
  H        0.5217750    -1.8880320     1.7115100
  H        0.6655400     3.1093110     0.6831840
  H        2.9735430    -2.5473740     0.0946540
  H        3.7214290     2.5491860    -0.0588690
  H        4.6397270    -0.4238340    -1.0970870
  H       -3.8083950    -1.5223380     1.7347280
  H       -3.9305460     1.4455410     0.2493860
  H       -2.2297620     1.8928800    -0.0590960
  H       -3.8005210     3.1308820    -1.6026710
  H       -2.7171960     2.0533230    -2.5048750
  H       -4.4009440     1.5743230    -2.2127240
units angstrom
no_reorient  #important for SAPT in psi4, default
symmetry c1  #important for SAPT in psi4, default
}

set PROPERTIES_ORIGIN ["COM"]
properties('MP2/aug-cc-pvtz', properties = ['dipole'])
--------------------------------------------------------------------------

    Molecular point group: c1
  Charge       = 0
  Multiplicity = 1
  Basis Set: AUG-CC-PVTZ
    Blend: AUG-CC-PVTZ
  Basis Set: (AUG-CC-PVTZ AUX)
    Blend: AUG-CC-PVTZ-JKFIT

    Orbital Energies [Eh]
    ---------------------

    Doubly Occupied:

       1A    -80.116647     2A    -20.614556     3A    -20.606341
       4A    -20.598813     5A    -20.586244     6A    -20.576680
       7A    -20.574414     8A    -20.573732     9A    -20.573325
      10A    -20.523048    11A    -11.319862    12A    -11.303823
      13A    -11.299334    14A    -11.298967    15A    -11.298114
      16A    -11.296498    17A    -11.290921    18A    -11.229817
      19A     -7.632096    20A     -5.530603    21A     -5.530230
      22A     -5.529026    23A     -1.460209    24A     -1.414434
      25A     -1.396146    26A     -1.393675    27A     -1.386732
      28A     -1.374863    29A     -1.365052    30A     -1.354120
      31A     -1.303466    32A     -1.118239    33A     -1.040403
      34A     -1.011584    35A     -1.001416    36A     -0.879766
      37A     -0.864738    38A     -0.858130    39A     -0.821925
      40A     -0.812116    41A     -0.753704    42A     -0.745405
      43A     -0.730815    44A     -0.728608    45A     -0.708065
      46A     -0.687143    47A     -0.680837    48A     -0.673829
      49A     -0.662242    50A     -0.660924    51A     -0.643208
      52A     -0.634824    53A     -0.627686    54A     -0.616364
      55A     -0.603383    56A     -0.598850    57A     -0.581291
      58A     -0.575437    59A     -0.572117    60A     -0.559635
      61A     -0.556665    62A     -0.549650    63A     -0.541347
      64A     -0.536687    65A     -0.530588    66A     -0.521953
      67A     -0.512894    68A     -0.503773    69A     -0.496461
      70A     -0.484557    71A     -0.479562    72A     -0.476326
      73A     -0.461699    74A     -0.455704    75A     -0.448696
      76A     -0.433646

  @DF-RHF Final Energy: -1327.86101978839883

   => Energetics <=

    Nuclear Repulsion Energy =           1772.7002638376568484
    One-Electron Energy =               -5357.5332109434948507
    Two-Electron Energy =                2256.9719273174387126
    Total Energy =                      -1327.8610197883990622
  Basis Set: (AUG-CC-PVTZ AUX)
    Blend: AUG-CC-PVTZ-RI
    Molecular point group: c1

    Geometry (in Angstrom), charge = 0, multiplicity = 1:

       Center              X                  Y                   Z               Mass
    ------------   -----------------  -----------------  -----------------  -----------------
         P           -2.290266724846    -0.940160829767     0.343561120203    30.973761998420
         O           -0.982323724846    -0.201679829767     0.937172120203    15.994914619570
         O            1.342079275154    -1.675600829767     1.229734120203    15.994914619570
         O            0.078534275154     2.359486170233     0.461051120203    15.994914619570
         O            3.068344275154    -2.187189829767    -0.809706879797    15.994914619570
         O            2.847164275154     2.502995170233     0.370418120203    15.994914619570
         O            4.195517275154     0.435279170233    -0.973990879797    15.994914619570
         O           -2.827033724846     0.033233170233    -0.808647879797    15.994914619570
         O           -3.259291724846    -0.723399829767     1.620554120203    15.994914619570
         O           -2.119163724846    -2.343761829767    -0.100784879797    15.994914619570
         C            0.117991275154     0.029891170233     0.015202120203    12.000000000000
         C            0.957935875154    -1.242778129767    -0.050687879797    12.000000000000
         C            0.898418275154     1.202526170233     0.563734120203    12.000000000000
         C            2.259489275154    -1.014424829767    -0.819153879797    12.000000000000
         C            2.176904275154     1.396354170233    -0.229157879797    12.000000000000
         C            3.025671275154     0.148587170233    -0.211438879797    12.000000000000
         C           -3.124383724846     1.431480170233    -0.490002879797    12.000000000000
         C           -3.536487724846     2.085047170233    -1.785235879797    12.000000000000
         H           -0.291782624846     0.313974370233    -0.963537179797     1.007825032230
         H            0.370098275154    -2.029481829767    -0.573148879797     1.007825032230
         H            1.156949275154     0.997759170233     1.611039120203     1.007825032230
         H            2.060763275154    -0.788777829767    -1.873872879797     1.007825032230
         H            1.916816275154     1.636169170233    -1.274699879797     1.007825032230
         H            3.295684275154    -0.094649829767     0.826529120203     1.007825032230
         H            0.521604275154    -1.888149829767     1.710393120203     1.007825032230
         H            0.665369275154     3.109193170233     0.682067120203     1.007825032230
         H            2.973372275154    -2.547491829767     0.093537120203     1.007825032230
         H            3.721258275154     2.549068170233    -0.059985879797     1.007825032230
         H            4.639556275154    -0.423951829767    -1.098203879797     1.007825032230
         H           -3.808565724846    -1.522455829767     1.733611120203     1.007825032230
         H           -3.930716724846     1.445423170233     0.248269120203     1.007825032230
         H           -2.229932724846     1.892762170233    -0.060212879797     1.007825032230
         H           -3.800691724846     3.130764170233    -1.603787879797     1.007825032230
         H           -2.717366724846     2.053205170233    -2.505991879797     1.007825032230
         H           -4.401114724846     1.574205170233    -2.213840879797     1.007825032230

  Basis Set: AUG-CC-PVTZ
    Blend: AUG-CC-PVTZ
  Basis Set: (AUG-CC-PVTZ AUX)
    Blend: AUG-CC-PVTZ-JKFIT
	 Reference Energy          =   -1327.8610197883988349 [Eh]
	 Singles Energy            =      -0.0000000000000000 [Eh]
	 Same-Spin Energy          =      -1.0146495003851190 [Eh]
	 Opposite-Spin Energy      =      -3.0758371787571321 [Eh]
	 Correlation Energy        =      -4.0904866791422512 [Eh]
	 Total Energy              =   -1331.9515064675410940 [Eh]

	 ================> DF-SCS-MP2 Energies <==================
	-----------------------------------------------------------
	 SCS Same-Spin Scale       =       0.3333333333333333 [-]
	 SCS Opposite-Spin Scale   =       1.2000000000000000 [-]
	 SCS Same-Spin Energy      =      -0.3382165001283730 [Eh]
	 SCS Opposite-Spin Energy  =      -3.6910046145085582 [Eh]
	 SCS Correlation Energy    =      -4.0292211146369308 [Eh]
	 SCS Total Energy          =   -1331.8902409030358740 [Eh]
	-----------------------------------------------------------

  Dipole Moment: [D]
     X:    -1.0967      Y:     1.8429      Z:     0.7878     Total:     2.2847

*** Psi4 exiting successfully. Buy a developer a beer!
