                               Psi4 1.3.2 release

  ==> Input File <==

--------------------------------------------------------------------------
#psi4
#
memory 32 gb

molecule  {
0 1
  P       -2.2900960    -0.9400430     0.3446780
  O       -0.9821530    -0.2015620     0.9382890
  O        1.3422500    -1.6754830     1.2308510
  O        0.0787050     2.3596040     0.4621680
  O        3.0685150    -2.1870720    -0.8085900
  O        2.8473350     2.5031130     0.3715350
  O        4.1956880     0.4353970    -0.9728740
  O       -2.8268630     0.0333510    -0.8075310
  O       -3.2591210    -0.7232820     1.6216710
  O       -2.1189930    -2.3436440    -0.0996680
  C        0.1181620     0.0300090     0.0163190
  C        0.9532920    -1.2442050    -0.0757250
  C        0.9022885     1.1902528     0.5676766
  C        2.2596600    -1.0143070    -0.8180370
  C        2.1770750     1.3964720    -0.2280410
  C        3.0167789     0.1427152    -0.2028766
  C       -3.1242130     1.4315980    -0.4888860
  C       -3.5363170     2.0851650    -1.7841190
  H       -0.2830920     0.2988010    -0.9702380
  H        0.3702690    -2.0293640    -0.5720320
  H        1.1571200     0.9978770     1.6121560
  H        2.0609340    -0.7886600    -1.8727560
  H        1.9169870     1.6362870    -1.2735830
  H        3.2958550    -0.0945320     0.8276460
  H        0.5217750    -1.8880320     1.7115100
  H        0.6655400     3.1093110     0.6831840
  H        2.9735430    -2.5473740     0.0946540
  H        3.7214290     2.5491860    -0.0588690
  H        4.6397270    -0.4238340    -1.0970870
  H       -3.8083950    -1.5223380     1.7347280
  H       -3.9305460     1.4455410     0.2493860
  H       -2.2297620     1.8928800    -0.0590960
  H       -3.8005210     3.1308820    -1.6026710
  H       -2.7171960     2.0533230    -2.5048750
  H       -4.4009440     1.5743230    -2.2127240
units angstrom
no_reorient  #important for SAPT in psi4, default
symmetry c1  #important for SAPT in psi4, default
}

set PROPERTIES_ORIGIN ["COM"]
properties('MP2/aug-cc-pvtz', properties = ['dipole'])
--------------------------------------------------------------------------

    Molecular point group: c1
  Charge       = 0
  Multiplicity = 1
  Basis Set: AUG-CC-PVTZ
    Blend: AUG-CC-PVTZ
  Basis Set: (AUG-CC-PVTZ AUX)
    Blend: AUG-CC-PVTZ-JKFIT

    Orbital Energies [Eh]
    ---------------------

    Doubly Occupied:

       1A    -80.117174     2A    -20.614902     3A    -20.607424
       4A    -20.599061     5A    -20.583738     6A    -20.577282
       7A    -20.575001     8A    -20.572806     9A    -20.571976
      10A    -20.523652    11A    -11.321228    12A    -11.303832
      13A    -11.299845    14A    -11.299310    15A    -11.298573
      16A    -11.297443    17A    -11.291399    18A    -11.229819
      19A     -7.632624    20A     -5.531130    21A     -5.530757
      22A     -5.529554    23A     -1.460551    24A     -1.410584
      25A     -1.393694    26A     -1.392131    27A     -1.386869
      28A     -1.370640    29A     -1.362277    30A     -1.351692
      31A     -1.304043    32A     -1.121211    33A     -1.040455
      34A     -1.013532    35A     -1.004494    36A     -0.880565
      37A     -0.865001    38A     -0.859157    39A     -0.822594
      40A     -0.811901    41A     -0.751257    42A     -0.744942
      43A     -0.731187    44A     -0.728797    45A     -0.708449
      46A     -0.685983    47A     -0.678491    48A     -0.673367
      49A     -0.661357    50A     -0.660630    51A     -0.642930
      52A     -0.634031    53A     -0.627437    54A     -0.615543
      55A     -0.603307    56A     -0.598136    57A     -0.581127
      58A     -0.575624    59A     -0.571141    60A     -0.558954
      61A     -0.555988    62A     -0.548388    63A     -0.541249
      64A     -0.536182    65A     -0.529863    66A     -0.522246
      67A     -0.513049    68A     -0.504431    69A     -0.497607
      70A     -0.485447    71A     -0.480007    72A     -0.476835
      73A     -0.463373    74A     -0.456530    75A     -0.451005
      76A     -0.438204

  @DF-RHF Final Energy: -1327.86048377266093

   => Energetics <=

    Nuclear Repulsion Energy =           1772.6185390667726551
    One-Electron Energy =               -5357.3720119364706989
    Two-Electron Energy =                2256.8929890970375709
    Total Energy =                      -1327.8604837726607002
  Basis Set: (AUG-CC-PVTZ AUX)
    Blend: AUG-CC-PVTZ-RI
    Molecular point group: c1

    Geometry (in Angstrom), charge = 0, multiplicity = 1:

       Center              X                  Y                   Z               Mass
    ------------   -----------------  -----------------  -----------------  -----------------
         P           -2.289872531172    -0.939277269559     0.344250123090    30.973761998420
         O           -0.981929531172    -0.200796269559     0.937861123090    15.994914619570
         O            1.342473468828    -1.674717269559     1.230423123090    15.994914619570
         O            0.078928468828     2.360369730441     0.461740123090    15.994914619570
         O            3.068738468828    -2.186306269559    -0.809017876910    15.994914619570
         O            2.847558468828     2.503878730441     0.371107123090    15.994914619570
         O            4.195911468828     0.436162730441    -0.973301876910    15.994914619570
         O           -2.826639531172     0.034116730441    -0.807958876910    15.994914619570
         O           -3.258897531172    -0.722516269559     1.621243123090    15.994914619570
         O           -2.118769531172    -2.342878269559    -0.100095876910    15.994914619570
         C            0.118385468828     0.030774730441     0.015891123090    12.000000000000
         C            0.953515468828    -1.243439269559    -0.076152876910    12.000000000000
         C            0.902511968828     1.191018530441     0.567248723090    12.000000000000
         C            2.259883468828    -1.013541269559    -0.818464876910    12.000000000000
         C            2.177298468828     1.397237730441    -0.228468876910    12.000000000000
         C            3.017002368828     0.143480930441    -0.203304476910    12.000000000000
         C           -3.123989531172     1.432363730441    -0.489313876910    12.000000000000
         C           -3.536093531172     2.085930730441    -1.784546876910    12.000000000000
         H           -0.282868531172     0.299566730441    -0.970665876910     1.007825032230
         H            0.370492468828    -2.028598269559    -0.572459876910     1.007825032230
         H            1.157343468828     0.998642730441     1.611728123090     1.007825032230
         H            2.061157468828    -0.787894269559    -1.873183876910     1.007825032230
         H            1.917210468828     1.637052730441    -1.274010876910     1.007825032230
         H            3.296078468828    -0.093766269559     0.827218123090     1.007825032230
         H            0.521998468828    -1.887266269559     1.711082123090     1.007825032230
         H            0.665763468828     3.110076730441     0.682756123090     1.007825032230
         H            2.973766468828    -2.546608269559     0.094226123090     1.007825032230
         H            3.721652468828     2.549951730441    -0.059296876910     1.007825032230
         H            4.639950468828    -0.423068269559    -1.097514876910     1.007825032230
         H           -3.808171531172    -1.521572269559     1.734300123090     1.007825032230
         H           -3.930322531172     1.446306730441     0.248958123090     1.007825032230
         H           -2.229538531172     1.893645730441    -0.059523876910     1.007825032230
         H           -3.800297531172     3.131647730441    -1.603098876910     1.007825032230
         H           -2.716972531172     2.054088730441    -2.505302876910     1.007825032230
         H           -4.400720531172     1.575088730441    -2.213151876910     1.007825032230

  Basis Set: AUG-CC-PVTZ
    Blend: AUG-CC-PVTZ
  Basis Set: (AUG-CC-PVTZ AUX)
    Blend: AUG-CC-PVTZ-JKFIT
	 Reference Energy          =   -1327.8604837726609276 [Eh]
	 Singles Energy            =      -0.0000000000000000 [Eh]
	 Same-Spin Energy          =      -1.0147383330614470 [Eh]
	 Opposite-Spin Energy      =      -3.0765741769904409 [Eh]
	 Correlation Energy        =      -4.0913125100518881 [Eh]
	 Total Energy              =   -1331.9517962827128486 [Eh]

	 ================> DF-SCS-MP2 Energies <==================
	-----------------------------------------------------------
	 SCS Same-Spin Scale       =       0.3333333333333333 [-]
	 SCS Opposite-Spin Scale   =       1.2000000000000000 [-]
	 SCS Same-Spin Energy      =      -0.3382461110204823 [Eh]
	 SCS Opposite-Spin Energy  =      -3.6918890123885291 [Eh]
	 SCS Correlation Energy    =      -4.0301351234090115 [Eh]
	 SCS Total Energy          =   -1331.8906188960700092 [Eh]
	-----------------------------------------------------------

  Dipole Moment: [D]
     X:    -1.1298      Y:     1.8176      Z:     0.7451     Total:     2.2661

*** Psi4 exiting successfully. Buy a developer a beer!
