                               Psi4 1.3.2 release

  ==> Input File <==

--------------------------------------------------------------------------
#psi4
#
memory 32 gb

molecule  {
0 1
  P       -2.2900960    -0.9400430     0.3446780
  O       -0.9821530    -0.2015620     0.9382890
  O        1.3422500    -1.6754830     1.2308510
  O        0.0787050     2.3596040     0.4621680
  O        3.0685150    -2.1870720    -0.8085900
  O        2.8473350     2.5031130     0.3715350
  O        4.1956880     0.4353970    -0.9728740
  O       -2.8268630     0.0333510    -0.8075310
  O       -3.2591210    -0.7232820     1.6216710
  O       -2.1189930    -2.3436440    -0.0996680
  C        0.1181620     0.0300090     0.0163190
  C        0.9804950    -1.2743678     0.0156545
  C        0.8985890     1.2026440     0.5648510
  C        2.2596600    -1.0143070    -0.8180370
  C        2.1770750     1.3964720    -0.2280410
  C        3.0258420     0.1487050    -0.2103220
  C       -3.1242130     1.4315980    -0.4888860
  C       -3.5363170     2.0851650    -1.7841190
  H       -0.2830920     0.2988010    -0.9702380
  H        0.3702690    -2.0293640    -0.5720320
  H        1.1571200     0.9978770     1.6121560
  H        2.0609340    -0.7886600    -1.8727560
  H        1.9169870     1.6362870    -1.2735830
  H        3.2958550    -0.0945320     0.8276460
  H        0.5217750    -1.8880320     1.7115100
  H        0.6655400     3.1093110     0.6831840
  H        2.9735430    -2.5473740     0.0946540
  H        3.7214290     2.5491860    -0.0588690
  H        4.6397270    -0.4238340    -1.0970870
  H       -3.8083950    -1.5223380     1.7347280
  H       -3.9305460     1.4455410     0.2493860
  H       -2.2297620     1.8928800    -0.0590960
  H       -3.8005210     3.1308820    -1.6026710
  H       -2.7171960     2.0533230    -2.5048750
  H       -4.4009440     1.5743230    -2.2127240
units angstrom
no_reorient  #important for SAPT in psi4, default
symmetry c1  #important for SAPT in psi4, default
}

set PROPERTIES_ORIGIN ["COM"]
properties('MP2/aug-cc-pvtz', properties = ['dipole'])
--------------------------------------------------------------------------

    Molecular point group: c1
  Charge       = 0
  Multiplicity = 1
  Basis Set: AUG-CC-PVTZ
    Blend: AUG-CC-PVTZ
  Basis Set: (AUG-CC-PVTZ AUX)
    Blend: AUG-CC-PVTZ-JKFIT

    Orbital Energies [Eh]
    ---------------------

    Doubly Occupied:

       1A    -80.115759     2A    -20.613994     3A    -20.604765
       4A    -20.598027     5A    -20.594481     6A    -20.576090
       7A    -20.573143     8A    -20.572943     9A    -20.572292
      10A    -20.522211    11A    -11.317271    12A    -11.304449
      13A    -11.298683    14A    -11.297350    15A    -11.296805
      16A    -11.295648    17A    -11.289932    18A    -11.229271
      19A     -7.631200    20A     -5.529709    21A     -5.529335
      22A     -5.528131    23A     -1.460366    24A     -1.437208
      25A     -1.399662    26A     -1.392907    27A     -1.386020
      28A     -1.378268    29A     -1.365367    30A     -1.353958
      31A     -1.302625    32A     -1.112865    33A     -1.039754
      34A     -1.007660    35A     -0.995706    36A     -0.879254
      37A     -0.864354    38A     -0.855051    39A     -0.820667
      40A     -0.816889    41A     -0.759099    42A     -0.745201
      43A     -0.730838    44A     -0.728360    45A     -0.707153
      46A     -0.691318    47A     -0.687016    48A     -0.674564
      49A     -0.662254    50A     -0.660283    51A     -0.644455
      52A     -0.634119    53A     -0.629685    54A     -0.618916
      55A     -0.602714    56A     -0.599898    57A     -0.582137
      58A     -0.575435    59A     -0.574087    60A     -0.561458
      61A     -0.556508    62A     -0.551193    63A     -0.541217
      64A     -0.538309    65A     -0.531458    66A     -0.521538
      67A     -0.511617    68A     -0.501691    69A     -0.494911
      70A     -0.480913    71A     -0.478087    72A     -0.474798
      73A     -0.459127    74A     -0.455004    75A     -0.439531
      76A     -0.427290

  @DF-RHF Final Energy: -1327.85323289556118

   => Energetics <=

    Nuclear Repulsion Energy =           1772.7440759045782670
    One-Electron Energy =               -5357.6101165673217110
    Two-Electron Energy =                2257.0128077671820392
    Total Energy =                      -1327.8532328955611774
  Basis Set: (AUG-CC-PVTZ AUX)
    Blend: AUG-CC-PVTZ-RI
    Molecular point group: c1

    Geometry (in Angstrom), charge = 0, multiplicity = 1:

       Center              X                  Y                   Z               Mass
    ------------   -----------------  -----------------  -----------------  -----------------
         P           -2.291229185402    -0.938786465213     0.340871318130    30.973761998420
         O           -0.983286185402    -0.200305465213     0.934482318130    15.994914619570
         O            1.341116814598    -1.674226465213     1.227044318130    15.994914619570
         O            0.077571814598     2.360860534787     0.458361318130    15.994914619570
         O            3.067381814598    -2.185815465213    -0.812396681870    15.994914619570
         O            2.846201814598     2.504369534787     0.367728318130    15.994914619570
         O            4.194554814598     0.436653534787    -0.976680681870    15.994914619570
         O           -2.827996185402     0.034607534787    -0.811337681870    15.994914619570
         O           -3.260254185402    -0.722025465213     1.617864318130    15.994914619570
         O           -2.120126185402    -2.342387465213    -0.103474681870    15.994914619570
         C            0.117028814598     0.031265534787     0.012512318130    12.000000000000
         C            0.979361814598    -1.273111265213     0.011847818130    12.000000000000
         C            0.897455814598     1.203900534787     0.561044318130    12.000000000000
         C            2.258526814598    -1.013050465213    -0.821843681870    12.000000000000
         C            2.175941814598     1.397728534787    -0.231847681870    12.000000000000
         C            3.024708814598     0.149961534787    -0.214128681870    12.000000000000
         C           -3.125346185402     1.432854534787    -0.492692681870    12.000000000000
         C           -3.537450185402     2.086421534787    -1.787925681870    12.000000000000
         H           -0.284225185402     0.300057534787    -0.974044681870     1.007825032230
         H            0.369135814598    -2.028107465213    -0.575838681870     1.007825032230
         H            1.155986814598     0.999133534787     1.608349318130     1.007825032230
         H            2.059800814598    -0.787403465213    -1.876562681870     1.007825032230
         H            1.915853814598     1.637543534787    -1.277389681870     1.007825032230
         H            3.294721814598    -0.093275465213     0.823839318130     1.007825032230
         H            0.520641814598    -1.886775465213     1.707703318130     1.007825032230
         H            0.664406814598     3.110567534787     0.679377318130     1.007825032230
         H            2.972409814598    -2.546117465213     0.090847318130     1.007825032230
         H            3.720295814598     2.550442534787    -0.062675681870     1.007825032230
         H            4.638593814598    -0.422577465213    -1.100893681870     1.007825032230
         H           -3.809528185402    -1.521081465213     1.730921318130     1.007825032230
         H           -3.931679185402     1.446797534787     0.245579318130     1.007825032230
         H           -2.230895185402     1.894136534787    -0.062902681870     1.007825032230
         H           -3.801654185402     3.132138534787    -1.606477681870     1.007825032230
         H           -2.718329185402     2.054579534787    -2.508681681870     1.007825032230
         H           -4.402077185402     1.575579534787    -2.216530681870     1.007825032230

  Basis Set: AUG-CC-PVTZ
    Blend: AUG-CC-PVTZ
  Basis Set: (AUG-CC-PVTZ AUX)
    Blend: AUG-CC-PVTZ-JKFIT
	 Reference Energy          =   -1327.8532328955611774 [Eh]
	 Singles Energy            =      -0.0000000000000000 [Eh]
	 Same-Spin Energy          =      -1.0147039253651366 [Eh]
	 Opposite-Spin Energy      =      -3.0751350053360147 [Eh]
	 Correlation Energy        =      -4.0898389307011511 [Eh]
	 Total Energy              =   -1331.9430718262624396 [Eh]

	 ================> DF-SCS-MP2 Energies <==================
	-----------------------------------------------------------
	 SCS Same-Spin Scale       =       0.3333333333333333 [-]
	 SCS Opposite-Spin Scale   =       1.2000000000000000 [-]
	 SCS Same-Spin Energy      =      -0.3382346417883789 [Eh]
	 SCS Opposite-Spin Energy  =      -3.6901620064032175 [Eh]
	 SCS Correlation Energy    =      -4.0283966481915963 [Eh]
	 SCS Total Energy          =   -1331.8816295437527515 [Eh]
	-----------------------------------------------------------

  Dipole Moment: [D]
     X:    -1.0285      Y:     1.7329      Z:     0.9817     Total:     2.2415

*** Psi4 exiting successfully. Buy a developer a beer!
