                               Psi4 1.3.2 release

  ==> Input File <==

--------------------------------------------------------------------------
#psi4
#
memory 32 gb

molecule  {
0 1
  P       -2.2900960    -0.9400430     0.3446780
  O       -0.9821530    -0.2015620     0.9382890
  O        1.3422500    -1.6754830     1.2308510
  O        0.0787050     2.3596040     0.4621680
  O        3.0685150    -2.1870720    -0.8085900
  O        2.8473350     2.5031130     0.3715350
  O        4.1956880     0.4353970    -0.9728740
  O       -2.8268630     0.0333510    -0.8075310
  O       -3.2591210    -0.7232820     1.6216710
  O       -2.1189930    -2.3436440    -0.0996680
  C        0.1181620     0.0300090     0.0163190
  C        0.9532920    -1.2442050    -0.0757250
  C        0.8985890     1.2026440     0.5648510
  C        2.2596600    -1.0143070    -0.8180370
  C        2.1770750     1.3964720    -0.2280410
  C        3.0258420     0.1487050    -0.2103220
  C       -3.1242130     1.4315980    -0.4888860
  C       -3.5363170     2.0851650    -1.7841190
  H       -0.2830920     0.2988010    -0.9702380
  H        0.3702690    -2.0293640    -0.5720320
  H        1.1571200     0.9978770     1.6121560
  H        2.0609340    -0.7886600    -1.8727560
  H        1.9169870     1.6362870    -1.2735830
  H        3.2958550    -0.0945320     0.8276460
  H        0.5217750    -1.8880320     1.7115100
  H        0.6655400     3.1093110     0.6831840
  H        2.9735430    -2.5473740     0.0946540
  H        3.7214290     2.5491860    -0.0588690
  H        4.6397270    -0.4238340    -1.0970870
  H       -3.7521287    -1.4404846     1.7231467
  H       -3.9305460     1.4455410     0.2493860
  H       -2.2297620     1.8928800    -0.0590960
  H       -3.8005210     3.1308820    -1.6026710
  H       -2.7171960     2.0533230    -2.5048750
  H       -4.4009440     1.5743230    -2.2127240
units angstrom
no_reorient  #important for SAPT in psi4, default
symmetry c1  #important for SAPT in psi4, default
}

set PROPERTIES_ORIGIN ["COM"]
properties('MP2/aug-cc-pvtz', properties = ['dipole'])
--------------------------------------------------------------------------

    Molecular point group: c1
  Charge       = 0
  Multiplicity = 1
  Basis Set: AUG-CC-PVTZ
    Blend: AUG-CC-PVTZ
  Basis Set: (AUG-CC-PVTZ AUX)
    Blend: AUG-CC-PVTZ-JKFIT

    Orbital Energies [Eh]
    ---------------------

    Doubly Occupied:

       1A    -80.118845     2A    -20.607981     3A    -20.607259
       4A    -20.600096     5A    -20.583621     6A    -20.577161
       7A    -20.574966     8A    -20.574426     9A    -20.573959
      10A    -20.525094    11A    -11.321442    12A    -11.304081
      13A    -11.300184    14A    -11.299769    15A    -11.299144
      16A    -11.297114    17A    -11.291819    18A    -11.230423
      19A     -7.634298    20A     -5.532842    21A     -5.532414
      22A     -5.531212    23A     -1.469780    24A     -1.417659
      25A     -1.403285    26A     -1.394174    27A     -1.390946
      28A     -1.373640    29A     -1.364384    30A     -1.354292
      31A     -1.306016    32A     -1.119681    33A     -1.041318
      34A     -1.012985    35A     -1.003935    36A     -0.885155
      37A     -0.865837    38A     -0.860077    39A     -0.833851
      40A     -0.811345    41A     -0.754430    42A     -0.749722
      43A     -0.735783    44A     -0.729786    45A     -0.712238
      46A     -0.688234    47A     -0.679167    48A     -0.676151
      49A     -0.663964    50A     -0.661790    51A     -0.644077
      52A     -0.636059    53A     -0.629711    54A     -0.616350
      55A     -0.604754    56A     -0.598960    57A     -0.582840
      58A     -0.578416    59A     -0.571829    60A     -0.560349
      61A     -0.557330    62A     -0.549240    63A     -0.542637
      64A     -0.537052    65A     -0.531023    66A     -0.522368
      67A     -0.513845    68A     -0.504825    69A     -0.498221
      70A     -0.485508    71A     -0.480979    72A     -0.478091
      73A     -0.463076    74A     -0.456273    75A     -0.450743
      76A     -0.436745

  @DF-RHF Final Energy: -1327.85625531418327

   => Energetics <=

    Nuclear Repulsion Energy =           1773.2678328433619299
    One-Electron Energy =               -5358.4300257983313713
    Two-Electron Energy =                2257.3059376407859418
    Total Energy =                      -1327.8562553141832723
  Basis Set: (AUG-CC-PVTZ AUX)
    Blend: AUG-CC-PVTZ-RI
    Molecular point group: c1

    Geometry (in Angstrom), charge = 0, multiplicity = 1:

       Center              X                  Y                   Z               Mass
    ------------   -----------------  -----------------  -----------------  -----------------
         P           -2.290292823324    -0.940329358823     0.344718509699    30.973761998420
         O           -0.982349823324    -0.201848358823     0.938329509699    15.994914619570
         O            1.342053176676    -1.675769358823     1.230891509699    15.994914619570
         O            0.078508176676     2.359317641177     0.462208509699    15.994914619570
         O            3.068318176676    -2.187358358823    -0.808549490301    15.994914619570
         O            2.847138176676     2.502826641177     0.371575509699    15.994914619570
         O            4.195491176676     0.435110641177    -0.972833490301    15.994914619570
         O           -2.827059823324     0.033064641177    -0.807490490301    15.994914619570
         O           -3.259317823324    -0.723568358823     1.621711509699    15.994914619570
         O           -2.119189823324    -2.343930358823    -0.099627490301    15.994914619570
         C            0.117965176676     0.029722641177     0.016359509699    12.000000000000
         C            0.953095176676    -1.244491358823    -0.075684490301    12.000000000000
         C            0.898392176676     1.202357641177     0.564891509699    12.000000000000
         C            2.259463176676    -1.014593358823    -0.817996490301    12.000000000000
         C            2.176878176676     1.396185641177    -0.228000490301    12.000000000000
         C            3.025645176676     0.148418641177    -0.210281490301    12.000000000000
         C           -3.124409823324     1.431311641177    -0.488845490301    12.000000000000
         C           -3.536513823324     2.084878641177    -1.784078490301    12.000000000000
         H           -0.283288823324     0.298514641177    -0.970197490301     1.007825032230
         H            0.370072176676    -2.029650358823    -0.571991490301     1.007825032230
         H            1.156923176676     0.997590641177     1.612196509699     1.007825032230
         H            2.060737176676    -0.788946358823    -1.872715490301     1.007825032230
         H            1.916790176676     1.636000641177    -1.273542490301     1.007825032230
         H            3.295658176676    -0.094818358823     0.827686509699     1.007825032230
         H            0.521578176676    -1.888318358823     1.711550509699     1.007825032230
         H            0.665343176676     3.109024641177     0.683224509699     1.007825032230
         H            2.973346176676    -2.547660358823     0.094694509699     1.007825032230
         H            3.721232176676     2.548899641177    -0.058828490301     1.007825032230
         H            4.639530176676    -0.424120358823    -1.097046490301     1.007825032230
         H           -3.752325523324    -1.440770958823     1.723187209699     1.007825032230
         H           -3.930742823324     1.445254641177     0.249426509699     1.007825032230
         H           -2.229958823324     1.892593641177    -0.059055490301     1.007825032230
         H           -3.800717823324     3.130595641177    -1.602630490301     1.007825032230
         H           -2.717392823324     2.053036641177    -2.504834490301     1.007825032230
         H           -4.401140823324     1.574036641177    -2.212683490301     1.007825032230

  Basis Set: AUG-CC-PVTZ
    Blend: AUG-CC-PVTZ
  Basis Set: (AUG-CC-PVTZ AUX)
    Blend: AUG-CC-PVTZ-JKFIT
	 Reference Energy          =   -1327.8562553141832723 [Eh]
	 Singles Energy            =      -0.0000000000000000 [Eh]
	 Same-Spin Energy          =      -1.0134750241257995 [Eh]
	 Opposite-Spin Energy      =      -3.0735306104893896 [Eh]
	 Correlation Energy        =      -4.0870056346151893 [Eh]
	 Total Energy              =   -1331.9432609487985246 [Eh]

	 ================> DF-SCS-MP2 Energies <==================
	-----------------------------------------------------------
	 SCS Same-Spin Scale       =       0.3333333333333333 [-]
	 SCS Opposite-Spin Scale   =       1.2000000000000000 [-]
	 SCS Same-Spin Energy      =      -0.3378250080419332 [Eh]
	 SCS Opposite-Spin Energy  =      -3.6882367325872671 [Eh]
	 SCS Correlation Energy    =      -4.0260617406292001 [Eh]
	 SCS Total Energy          =   -1331.8823170548125745 [Eh]
	-----------------------------------------------------------

  Dipole Moment: [D]
     X:    -0.9905      Y:     1.9718      Z:     0.6505     Total:     2.3005

*** Psi4 exiting successfully. Buy a developer a beer!
