                               Psi4 1.3.2 release

  ==> Input File <==

--------------------------------------------------------------------------
#psi4
#
memory 32 gb

molecule  {
0 1
  P       -2.2900960    -0.9400430     0.3446780
  O       -0.9803602    -0.2121806     0.9473816
  O        1.3422500    -1.6754830     1.2308510
  O        0.0787050     2.3596040     0.4621680
  O        3.0685150    -2.1870720    -0.8085900
  O        2.8473350     2.5031130     0.3715350
  O        4.1956880     0.4353970    -0.9728740
  O       -2.8373025     0.0244332    -0.8101168
  O       -3.2591210    -0.7232820     1.6216710
  O       -2.1189930    -2.3436440    -0.0996680
  C        0.1181620     0.0300090     0.0163190
  C        0.9532920    -1.2442050    -0.0757250
  C        0.8985890     1.2026440     0.5648510
  C        2.2596600    -1.0143070    -0.8180370
  C        2.1770750     1.3964720    -0.2280410
  C        3.0258420     0.1487050    -0.2103220
  C       -3.1242130     1.4315980    -0.4888860
  C       -3.5363170     2.0851650    -1.7841190
  H       -0.2830920     0.2988010    -0.9702380
  H        0.3702690    -2.0293640    -0.5720320
  H        1.1571200     0.9978770     1.6121560
  H        2.0609340    -0.7886600    -1.8727560
  H        1.9169870     1.6362870    -1.2735830
  H        3.2958550    -0.0945320     0.8276460
  H        0.5217750    -1.8880320     1.7115100
  H        0.6655400     3.1093110     0.6831840
  H        2.9735430    -2.5473740     0.0946540
  H        3.7214290     2.5491860    -0.0588690
  H        4.6397270    -0.4238340    -1.0970870
  H       -3.8083950    -1.5223380     1.7347280
  H       -3.9305460     1.4455410     0.2493860
  H       -2.2297620     1.8928800    -0.0590960
  H       -3.8005210     3.1308820    -1.6026710
  H       -2.7171960     2.0533230    -2.5048750
  H       -4.4009440     1.5743230    -2.2127240
units angstrom
no_reorient  #important for SAPT in psi4, default
symmetry c1  #important for SAPT in psi4, default
}

set PROPERTIES_ORIGIN ["COM"]
properties('MP2/aug-cc-pvtz', properties = ['dipole'])
--------------------------------------------------------------------------

    Molecular point group: c1
  Charge       = 0
  Multiplicity = 1
  Basis Set: AUG-CC-PVTZ
    Blend: AUG-CC-PVTZ
  Basis Set: (AUG-CC-PVTZ AUX)
    Blend: AUG-CC-PVTZ-JKFIT

    Orbital Energies [Eh]
    ---------------------

    Doubly Occupied:

       1A    -80.116099     2A    -20.613634     3A    -20.607684
       4A    -20.599652     5A    -20.582998     6A    -20.577138
       7A    -20.574680     8A    -20.574282     9A    -20.573988
      10A    -20.521966    11A    -11.321724    12A    -11.303679
      13A    -11.300509    14A    -11.299471    15A    -11.299208
      16A    -11.297115    17A    -11.291656    18A    -11.230428
      19A     -7.631601    20A     -5.530114    21A     -5.529694
      22A     -5.528542    23A     -1.459155    24A     -1.410670
      25A     -1.394609    26A     -1.392791    27A     -1.385660
      28A     -1.372642    29A     -1.364192    30A     -1.354038
      31A     -1.302496    32A     -1.119457    33A     -1.040882
      34A     -1.012309    35A     -1.003696    36A     -0.879529
      37A     -0.864847    38A     -0.859279    39A     -0.822400
      40A     -0.810923    41A     -0.751757    42A     -0.745019
      43A     -0.731244    44A     -0.728118    45A     -0.707591
      46A     -0.687229    47A     -0.677984    48A     -0.673385
      49A     -0.662258    50A     -0.660744    51A     -0.642926
      52A     -0.635227    53A     -0.626627    54A     -0.615155
      55A     -0.603749    56A     -0.598696    57A     -0.581608
      58A     -0.574788    59A     -0.571221    60A     -0.559464
      61A     -0.556621    62A     -0.548810    63A     -0.540928
      64A     -0.536776    65A     -0.530467    66A     -0.521958
      67A     -0.513822    68A     -0.504699    69A     -0.497114
      70A     -0.485570    71A     -0.480203    72A     -0.475522
      73A     -0.462431    74A     -0.456201    75A     -0.450378
      76A     -0.436390

  @DF-RHF Final Energy: -1327.86085011767523

   => Energetics <=

    Nuclear Repulsion Energy =           1771.9533674668311960
    One-Electron Energy =               -5356.0522052776923374
    Two-Electron Energy =                2256.2379876931863691
    Total Energy =                      -1327.8608501176749996
  Basis Set: (AUG-CC-PVTZ AUX)
    Blend: AUG-CC-PVTZ-RI
    Molecular point group: c1

    Geometry (in Angstrom), charge = 0, multiplicity = 1:

       Center              X                  Y                   Z               Mass
    ------------   -----------------  -----------------  -----------------  -----------------
         P           -2.289615849347    -0.938958201570     0.344316693324    30.973761998420
         O           -0.979880049347    -0.211095801570     0.947020293324    15.994914619570
         O            1.342730150653    -1.674398201570     1.230489693324    15.994914619570
         O            0.079185150653     2.360688798430     0.461806693324    15.994914619570
         O            3.068995150653    -2.185987201570    -0.808951306676    15.994914619570
         O            2.847815150653     2.504197798430     0.371173693324    15.994914619570
         O            4.196168150653     0.436481798430    -0.973235306676    15.994914619570
         O           -2.836822349347     0.025517998430    -0.810478106676    15.994914619570
         O           -3.258640849347    -0.722197201570     1.621309693324    15.994914619570
         O           -2.118512849347    -2.342559201570    -0.100029306676    15.994914619570
         C            0.118642150653     0.031093798430     0.015957693324    12.000000000000
         C            0.953772150653    -1.243120201570    -0.076086306676    12.000000000000
         C            0.899069150653     1.203728798430     0.564489693324    12.000000000000
         C            2.260140150653    -1.013222201570    -0.818398306676    12.000000000000
         C            2.177555150653     1.397556798430    -0.228402306676    12.000000000000
         C            3.026322150653     0.149789798430    -0.210683306676    12.000000000000
         C           -3.123732849347     1.432682798430    -0.489247306676    12.000000000000
         C           -3.535836849347     2.086249798430    -1.784480306676    12.000000000000
         H           -0.282611849347     0.299885798430    -0.970599306676     1.007825032230
         H            0.370749150653    -2.028279201570    -0.572393306676     1.007825032230
         H            1.157600150653     0.998961798430     1.611794693324     1.007825032230
         H            2.061414150653    -0.787575201570    -1.873117306676     1.007825032230
         H            1.917467150653     1.637371798430    -1.273944306676     1.007825032230
         H            3.296335150653    -0.093447201570     0.827284693324     1.007825032230
         H            0.522255150653    -1.886947201570     1.711148693324     1.007825032230
         H            0.666020150653     3.110395798430     0.682822693324     1.007825032230
         H            2.974023150653    -2.546289201570     0.094292693324     1.007825032230
         H            3.721909150653     2.550270798430    -0.059230306676     1.007825032230
         H            4.640207150653    -0.422749201570    -1.097448306676     1.007825032230
         H           -3.807914849347    -1.521253201570     1.734366693324     1.007825032230
         H           -3.930065849347     1.446625798430     0.249024693324     1.007825032230
         H           -2.229281849347     1.893964798430    -0.059457306676     1.007825032230
         H           -3.800040849347     3.131966798430    -1.603032306676     1.007825032230
         H           -2.716715849347     2.054407798430    -2.505236306676     1.007825032230
         H           -4.400463849347     1.575407798430    -2.213085306676     1.007825032230

  Basis Set: AUG-CC-PVTZ
    Blend: AUG-CC-PVTZ
  Basis Set: (AUG-CC-PVTZ AUX)
    Blend: AUG-CC-PVTZ-JKFIT
	 Reference Energy          =   -1327.8608501176752270 [Eh]
	 Singles Energy            =      -0.0000000000000000 [Eh]
	 Same-Spin Energy          =      -1.0146493898394997 [Eh]
	 Opposite-Spin Energy      =      -3.0763616014705022 [Eh]
	 Correlation Energy        =      -4.0910109913100019 [Eh]
	 Total Energy              =   -1331.9518611089852129 [Eh]

	 ================> DF-SCS-MP2 Energies <==================
	-----------------------------------------------------------
	 SCS Same-Spin Scale       =       0.3333333333333333 [-]
	 SCS Opposite-Spin Scale   =       1.2000000000000000 [-]
	 SCS Same-Spin Energy      =      -0.3382164632798332 [Eh]
	 SCS Opposite-Spin Energy  =      -3.6916339217646024 [Eh]
	 SCS Correlation Energy    =      -4.0298503850444352 [Eh]
	 SCS Total Energy          =   -1331.8907005027197101 [Eh]
	-----------------------------------------------------------

  Dipole Moment: [D]
     X:    -1.0796      Y:     1.9387      Z:     0.6965     Total:     2.3257

*** Psi4 exiting successfully. Buy a developer a beer!
