                               Psi4 1.3.2 release

  ==> Input File <==

--------------------------------------------------------------------------
#psi4
#
memory 32 gb

molecule  {
0 1
  P       -2.2900960    -0.9400430     0.3446780
  O       -0.9821530    -0.2015620     0.9382890
  O        1.3422500    -1.6754830     1.2308510
  O        0.0787050     2.3596040     0.4621680
  O        3.0685150    -2.1870720    -0.8085900
  O        2.8473350     2.5031130     0.3715350
  O        4.1956880     0.4353970    -0.9728740
  O       -2.8268630     0.0333510    -0.8075310
  O       -3.2591210    -0.7232820     1.6216710
  O       -2.1189930    -2.3436440    -0.0996680
  C        0.1181620     0.0300090     0.0163190
  C        0.9532920    -1.2442050    -0.0757250
  C        0.8985890     1.2026440     0.5648510
  C        2.2596600    -1.0143070    -0.8180370
  C        2.1770750     1.3964720    -0.2280410
  C        3.0263016     0.1359519    -0.1870739
  C       -3.1242130     1.4315980    -0.4888860
  C       -3.5363170     2.0851650    -1.7841190
  H       -0.2830920     0.2988010    -0.9702380
  H        0.3702690    -2.0293640    -0.5720320
  H        1.1571200     0.9978770     1.6121560
  H        2.0519481    -0.8054724    -1.8744861
  H        1.9169870     1.6362870    -1.2735830
  H        3.2958550    -0.0945320     0.8276460
  H        0.5217750    -1.8880320     1.7115100
  H        0.6655400     3.1093110     0.6831840
  H        2.9735430    -2.5473740     0.0946540
  H        3.7214290     2.5491860    -0.0588690
  H        4.6397270    -0.4238340    -1.0970870
  H       -3.8083950    -1.5223380     1.7347280
  H       -3.9305460     1.4455410     0.2493860
  H       -2.2297620     1.8928800    -0.0590960
  H       -3.8005210     3.1308820    -1.6026710
  H       -2.7171960     2.0533230    -2.5048750
  H       -4.4009440     1.5743230    -2.2127240
units angstrom
no_reorient  #important for SAPT in psi4, default
symmetry c1  #important for SAPT in psi4, default
}

set PROPERTIES_ORIGIN ["COM"]
properties('MP2/aug-cc-pvtz', properties = ['dipole'])
--------------------------------------------------------------------------

    Molecular point group: c1
  Charge       = 0
  Multiplicity = 1
  Basis Set: AUG-CC-PVTZ
    Blend: AUG-CC-PVTZ
  Basis Set: (AUG-CC-PVTZ AUX)
    Blend: AUG-CC-PVTZ-JKFIT

    Orbital Energies [Eh]
    ---------------------

    Doubly Occupied:

       1A    -80.117003     2A    -20.614789     3A    -20.607106
       4A    -20.598987     5A    -20.583419     6A    -20.576628
       7A    -20.574071     8A    -20.573283     9A    -20.572750
      10A    -20.523495    11A    -11.320817    12A    -11.303293
      13A    -11.299592    14A    -11.299411    15A    -11.298348
      16A    -11.297184    17A    -11.291057    18A    -11.229891
      19A     -7.632453    20A     -5.530959    21A     -5.530586
      22A     -5.529384    23A     -1.460349    24A     -1.410450
      25A     -1.393418    26A     -1.392840    27A     -1.386815
      28A     -1.371072    29A     -1.363797    30A     -1.351762
      31A     -1.303892    32A     -1.118744    33A     -1.040482
      34A     -1.011471    35A     -1.003395    36A     -0.880810
      37A     -0.865141    38A     -0.857708    39A     -0.823117
      40A     -0.811698    41A     -0.751541    42A     -0.744663
      43A     -0.731073    44A     -0.728743    45A     -0.708087
      46A     -0.687088    47A     -0.677936    48A     -0.673129
      49A     -0.661323    50A     -0.660159    51A     -0.643001
      52A     -0.633760    53A     -0.627180    54A     -0.615184
      55A     -0.603487    56A     -0.599491    57A     -0.581623
      58A     -0.575618    59A     -0.571203    60A     -0.559430
      61A     -0.555992    62A     -0.548531    63A     -0.541226
      64A     -0.535555    65A     -0.529838    66A     -0.521474
      67A     -0.512823    68A     -0.505107    69A     -0.497026
      70A     -0.485086    71A     -0.479884    72A     -0.476792
      73A     -0.462687    74A     -0.456296    75A     -0.450066
      76A     -0.437411

  @DF-RHF Final Energy: -1327.86033504126067

   => Energetics <=

    Nuclear Repulsion Energy =           1772.3018810951116393
    One-Electron Energy =               -5356.7624662151847588
    Two-Electron Energy =                2256.6002500788126781
    Total Energy =                      -1327.8603350412604414
  Basis Set: (AUG-CC-PVTZ AUX)
    Blend: AUG-CC-PVTZ-RI
    Molecular point group: c1

    Geometry (in Angstrom), charge = 0, multiplicity = 1:

       Center              X                  Y                   Z               Mass
    ------------   -----------------  -----------------  -----------------  -----------------
         P           -2.290083674579    -0.939452894996     0.343715578144    30.973761998420
         O           -0.982140674579    -0.200971894996     0.937326578144    15.994914619570
         O            1.342262325421    -1.674892894996     1.229888578144    15.994914619570
         O            0.078717325421     2.360194105004     0.461205578144    15.994914619570
         O            3.068527325421    -2.186481894996    -0.809552421856    15.994914619570
         O            2.847347325421     2.503703105004     0.370572578144    15.994914619570
         O            4.195700325421     0.435987105004    -0.973836421856    15.994914619570
         O           -2.826850674579     0.033941105004    -0.808493421856    15.994914619570
         O           -3.259108674579    -0.722691894996     1.620708578144    15.994914619570
         O           -2.118980674579    -2.343053894996    -0.100630421856    15.994914619570
         C            0.118174325421     0.030599105004     0.015356578144    12.000000000000
         C            0.953304325421    -1.243614894996    -0.076687421856    12.000000000000
         C            0.898601325421     1.203234105004     0.563888578144    12.000000000000
         C            2.259672325421    -1.013716894996    -0.818999421856    12.000000000000
         C            2.177087325421     1.397062105004    -0.229003421856    12.000000000000
         C            3.026313925421     0.136542005004    -0.188036321856    12.000000000000
         C           -3.124200674579     1.432188105004    -0.489848421856    12.000000000000
         C           -3.536304674579     2.085755105004    -1.785081421856    12.000000000000
         H           -0.283079674579     0.299391105004    -0.971200421856     1.007825032230
         H            0.370281325421    -2.028773894996    -0.572994421856     1.007825032230
         H            1.157132325421     0.998467105004     1.611193578144     1.007825032230
         H            2.051960425421    -0.804882294996    -1.875448521856     1.007825032230
         H            1.916999325421     1.636877105004    -1.274545421856     1.007825032230
         H            3.295867325421    -0.093941894996     0.826683578144     1.007825032230
         H            0.521787325421    -1.887441894996     1.710547578144     1.007825032230
         H            0.665552325421     3.109901105004     0.682221578144     1.007825032230
         H            2.973555325421    -2.546783894996     0.093691578144     1.007825032230
         H            3.721441325421     2.549776105004    -0.059831421856     1.007825032230
         H            4.639739325421    -0.423243894996    -1.098049421856     1.007825032230
         H           -3.808382674579    -1.521747894996     1.733765578144     1.007825032230
         H           -3.930533674579     1.446131105004     0.248423578144     1.007825032230
         H           -2.229749674579     1.893470105004    -0.060058421856     1.007825032230
         H           -3.800508674579     3.131472105004    -1.603633421856     1.007825032230
         H           -2.717183674579     2.053913105004    -2.505837421856     1.007825032230
         H           -4.400931674579     1.574913105004    -2.213686421856     1.007825032230

  Basis Set: AUG-CC-PVTZ
    Blend: AUG-CC-PVTZ
  Basis Set: (AUG-CC-PVTZ AUX)
    Blend: AUG-CC-PVTZ-JKFIT
	 Reference Energy          =   -1327.8603350412606687 [Eh]
	 Singles Energy            =      -0.0000000000000000 [Eh]
	 Same-Spin Energy          =      -1.0145691135715187 [Eh]
	 Opposite-Spin Energy      =      -3.0763445979352402 [Eh]
	 Correlation Energy        =      -4.0909137115067589 [Eh]
	 Total Energy              =   -1331.9512487527674693 [Eh]

	 ================> DF-SCS-MP2 Energies <==================
	-----------------------------------------------------------
	 SCS Same-Spin Scale       =       0.3333333333333333 [-]
	 SCS Opposite-Spin Scale   =       1.2000000000000000 [-]
	 SCS Same-Spin Energy      =      -0.3381897045238396 [Eh]
	 SCS Opposite-Spin Energy  =      -3.6916135175222879 [Eh]
	 SCS Correlation Energy    =      -4.0298032220461275 [Eh]
	 SCS Total Energy          =   -1331.8901382633068806 [Eh]
	-----------------------------------------------------------

  Dipole Moment: [D]
     X:    -1.1406      Y:     1.8499      Z:     0.7532     Total:     2.3001

*** Psi4 exiting successfully. Buy a developer a beer!
