                               Psi4 1.3.2 release

  ==> Input File <==

--------------------------------------------------------------------------
#psi4
#
memory 32 gb

molecule  {
0 1
  P       -2.2900960    -0.9400430     0.3446780
  O       -0.9821530    -0.2015620     0.9382890
  O        1.3422500    -1.6754830     1.2308510
  O        0.0787050     2.3596040     0.4621680
  O        3.0685150    -2.1870720    -0.8085900
  O        2.8473350     2.5031130     0.3715350
  O        4.1956880     0.4353970    -0.9728740
  O       -2.8268630     0.0333510    -0.8075310
  O       -3.2591210    -0.7232820     1.6216710
  O       -2.1189930    -2.3436440    -0.0996680
  C        0.1181620     0.0300090     0.0163190
  C        0.9532920    -1.2442050    -0.0757250
  C        0.8985890     1.2026440     0.5648510
  C        2.2596600    -1.0143070    -0.8180370
  C        2.1770750     1.3964720    -0.2280410
  C        3.0258420     0.1487050    -0.2103220
  C       -3.1242130     1.4315980    -0.4888860
  C       -3.5363170     2.0851650    -1.7841190
  H       -0.2830920     0.2988010    -0.9702380
  H        0.3702690    -2.0293640    -0.5720320
  H        1.1335745     1.0165260     1.5167735
  H        2.0609340    -0.7886600    -1.8727560
  H        1.9169870     1.6362870    -1.2735830
  H        3.2958550    -0.0945320     0.8276460
  H        0.5217750    -1.8880320     1.7115100
  H        0.6655400     3.1093110     0.6831840
  H        2.9735430    -2.5473740     0.0946540
  H        3.7214290     2.5491860    -0.0588690
  H        4.6397270    -0.4238340    -1.0970870
  H       -3.8083950    -1.5223380     1.7347280
  H       -3.9305460     1.4455410     0.2493860
  H       -2.2297620     1.8928800    -0.0590960
  H       -3.8005210     3.1308820    -1.6026710
  H       -2.7171960     2.0533230    -2.5048750
  H       -4.4009440     1.5743230    -2.2127240
units angstrom
no_reorient  #important for SAPT in psi4, default
symmetry c1  #important for SAPT in psi4, default
}

set PROPERTIES_ORIGIN ["COM"]
properties('MP2/aug-cc-pvtz', properties = ['dipole'])
--------------------------------------------------------------------------

    Molecular point group: c1
  Charge       = 0
  Multiplicity = 1
  Basis Set: AUG-CC-PVTZ
    Blend: AUG-CC-PVTZ
  Basis Set: (AUG-CC-PVTZ AUX)
    Blend: AUG-CC-PVTZ-JKFIT

    Orbital Energies [Eh]
    ---------------------

    Doubly Occupied:

       1A    -80.117007     2A    -20.614765     3A    -20.607122
       4A    -20.598891     5A    -20.583636     6A    -20.576915
       7A    -20.574702     8A    -20.574199     9A    -20.572076
      10A    -20.523477    11A    -11.320107    12A    -11.303596
      13A    -11.299428    14A    -11.299261    15A    -11.296105
      16A    -11.291595    17A    -11.286979    18A    -11.229748
      19A     -7.632451    20A     -5.530959    21A     -5.530584
      22A     -5.529382    23A     -1.460343    24A     -1.411067
      25A     -1.394800    26A     -1.393099    27A     -1.386835
      28A     -1.372776    29A     -1.363858    30A     -1.353854
      31A     -1.303867    32A     -1.120384    33A     -1.040352
      34A     -1.012453    35A     -1.006422    36A     -0.880718
      37A     -0.865329    38A     -0.863856    39A     -0.822238
      40A     -0.815703    41A     -0.753451    42A     -0.746041
      43A     -0.733469    44A     -0.728565    45A     -0.708625
      46A     -0.689111    47A     -0.678313    48A     -0.673673
      49A     -0.662791    50A     -0.661051    51A     -0.645133
      52A     -0.636353    53A     -0.627314    54A     -0.615421
      55A     -0.606387    56A     -0.598490    57A     -0.581629
      58A     -0.575696    59A     -0.571365    60A     -0.559826
      61A     -0.556646    62A     -0.548503    63A     -0.541194
      64A     -0.536846    65A     -0.529966    66A     -0.522390
      67A     -0.513495    68A     -0.504704    69A     -0.497682
      70A     -0.485837    71A     -0.479844    72A     -0.476624
      73A     -0.463877    74A     -0.456158    75A     -0.451935
      76A     -0.436398

  @DF-RHF Final Energy: -1327.85615886086453

   => Energetics <=

    Nuclear Repulsion Energy =           1773.1097439321570164
    One-Electron Energy =               -5358.3003169009998601
    Two-Electron Energy =                2257.3344141079783185
    Total Energy =                      -1327.8561588608645252
  Basis Set: (AUG-CC-PVTZ AUX)
    Blend: AUG-CC-PVTZ-RI
    Molecular point group: c1

    Geometry (in Angstrom), charge = 0, multiplicity = 1:

       Center              X                  Y                   Z               Mass
    ------------   -----------------  -----------------  -----------------  -----------------
         P           -2.290013589674    -0.940108228672     0.345011700869    30.973761998420
         O           -0.982070589674    -0.201627228672     0.938622700869    15.994914619570
         O            1.342332410326    -1.675548228672     1.231184700869    15.994914619570
         O            0.078787410326     2.359538771328     0.462501700869    15.994914619570
         O            3.068597410326    -2.187137228672    -0.808256299131    15.994914619570
         O            2.847417410326     2.503047771328     0.371868700869    15.994914619570
         O            4.195770410326     0.435331771328    -0.972540299131    15.994914619570
         O           -2.826780589674     0.033285771328    -0.807197299131    15.994914619570
         O           -3.259038589674    -0.723347228672     1.622004700869    15.994914619570
         O           -2.118910589674    -2.343709228672    -0.099334299131    15.994914619570
         C            0.118244410326     0.029943771328     0.016652700869    12.000000000000
         C            0.953374410326    -1.244270228672    -0.075391299131    12.000000000000
         C            0.898671410326     1.202578771328     0.565184700869    12.000000000000
         C            2.259742410326    -1.014372228672    -0.817703299131    12.000000000000
         C            2.177157410326     1.396406771328    -0.227707299131    12.000000000000
         C            3.025924410326     0.148639771328    -0.209988299131    12.000000000000
         C           -3.124130589674     1.431532771328    -0.488552299131    12.000000000000
         C           -3.536234589674     2.085099771328    -1.783785299131    12.000000000000
         H           -0.283009589674     0.298735771328    -0.969904299131     1.007825032230
         H            0.370351410326    -2.029429228672    -0.571698299131     1.007825032230
         H            1.133656910326     1.016460771328     1.517107200869     1.007825032230
         H            2.061016410326    -0.788725228672    -1.872422299131     1.007825032230
         H            1.917069410326     1.636221771328    -1.273249299131     1.007825032230
         H            3.295937410326    -0.094597228672     0.827979700869     1.007825032230
         H            0.521857410326    -1.888097228672     1.711843700869     1.007825032230
         H            0.665622410326     3.109245771328     0.683517700869     1.007825032230
         H            2.973625410326    -2.547439228672     0.094987700869     1.007825032230
         H            3.721511410326     2.549120771328    -0.058535299131     1.007825032230
         H            4.639809410326    -0.423899228672    -1.096753299131     1.007825032230
         H           -3.808312589674    -1.522403228672     1.735061700869     1.007825032230
         H           -3.930463589674     1.445475771328     0.249719700869     1.007825032230
         H           -2.229679589674     1.892814771328    -0.058762299131     1.007825032230
         H           -3.800438589674     3.130816771328    -1.602337299131     1.007825032230
         H           -2.717113589674     2.053257771328    -2.504541299131     1.007825032230
         H           -4.400861589674     1.574257771328    -2.212390299131     1.007825032230

  Basis Set: AUG-CC-PVTZ
    Blend: AUG-CC-PVTZ
  Basis Set: (AUG-CC-PVTZ AUX)
    Blend: AUG-CC-PVTZ-JKFIT
	 Reference Energy          =   -1327.8561588608645252 [Eh]
	 Singles Energy            =      -0.0000000000000000 [Eh]
	 Same-Spin Energy          =      -1.0143318306499887 [Eh]
	 Opposite-Spin Energy      =      -3.0752990953609345 [Eh]
	 Correlation Energy        =      -4.0896309260109227 [Eh]
	 Total Energy              =   -1331.9457897868753662 [Eh]

	 ================> DF-SCS-MP2 Energies <==================
	-----------------------------------------------------------
	 SCS Same-Spin Scale       =       0.3333333333333333 [-]
	 SCS Opposite-Spin Scale   =       1.2000000000000000 [-]
	 SCS Same-Spin Energy      =      -0.3381106102166629 [Eh]
	 SCS Opposite-Spin Energy  =      -3.6903589144331210 [Eh]
	 SCS Correlation Energy    =      -4.0284695246497844 [Eh]
	 SCS Total Energy          =   -1331.8846283855143611 [Eh]
	-----------------------------------------------------------

  Dipole Moment: [D]
     X:    -1.0965      Y:     1.8399      Z:     0.7381     Total:     2.2655

*** Psi4 exiting successfully. Buy a developer a beer!
