                               Psi4 1.3.2 release

  ==> Input File <==

--------------------------------------------------------------------------
#psi4
#
memory 32 gb

molecule  {
0 1
  P       -2.2900960    -0.9400430     0.3446780
  O       -0.9786672    -0.2228546     0.9564282
  O        1.3422500    -1.6754830     1.2308510
  O        0.0787050     2.3596040     0.4621680
  O        3.0685150    -2.1870720    -0.8085900
  O        2.8473350     2.5031130     0.3715350
  O        4.1956880     0.4353970    -0.9728740
  O       -2.8477004     0.0154419    -0.8126146
  O       -3.2591210    -0.7232820     1.6216710
  O       -2.1189930    -2.3436440    -0.0996680
  C        0.1181620     0.0300090     0.0163190
  C        0.9532920    -1.2442050    -0.0757250
  C        0.8985890     1.2026440     0.5648510
  C        2.2596600    -1.0143070    -0.8180370
  C        2.1770750     1.3964720    -0.2280410
  C        3.0258420     0.1487050    -0.2103220
  C       -3.1242130     1.4315980    -0.4888860
  C       -3.5363170     2.0851650    -1.7841190
  H       -0.2830920     0.2988010    -0.9702380
  H        0.3702690    -2.0293640    -0.5720320
  H        1.1571200     0.9978770     1.6121560
  H        2.0609340    -0.7886600    -1.8727560
  H        1.9169870     1.6362870    -1.2735830
  H        3.2958550    -0.0945320     0.8276460
  H        0.5217750    -1.8880320     1.7115100
  H        0.6655400     3.1093110     0.6831840
  H        2.9735430    -2.5473740     0.0946540
  H        3.7214290     2.5491860    -0.0588690
  H        4.6397270    -0.4238340    -1.0970870
  H       -3.8083950    -1.5223380     1.7347280
  H       -3.9305460     1.4455410     0.2493860
  H       -2.2297620     1.8928800    -0.0590960
  H       -3.8005210     3.1308820    -1.6026710
  H       -2.7171960     2.0533230    -2.5048750
  H       -4.4009440     1.5743230    -2.2127240
units angstrom
no_reorient  #important for SAPT in psi4, default
symmetry c1  #important for SAPT in psi4, default
}

set PROPERTIES_ORIGIN ["COM"]
properties('MP2/aug-cc-pvtz', properties = ['dipole'])
--------------------------------------------------------------------------

    Molecular point group: c1
  Charge       = 0
  Multiplicity = 1
  Basis Set: AUG-CC-PVTZ
    Blend: AUG-CC-PVTZ
  Basis Set: (AUG-CC-PVTZ AUX)
    Blend: AUG-CC-PVTZ-JKFIT

    Orbital Energies [Eh]
    ---------------------

    Doubly Occupied:

       1A    -80.115239     2A    -20.612515     3A    -20.608287
       4A    -20.600320     5A    -20.582840     6A    -20.577458
       7A    -20.574732     8A    -20.574484     9A    -20.574446
      10A    -20.520472    11A    -11.322675    12A    -11.303805
      13A    -11.301635    14A    -11.299772    15A    -11.299570
      16A    -11.297516    17A    -11.291851    18A    -11.230990
      19A     -7.630793    20A     -5.529314    21A     -5.528846
      22A     -5.527743    23A     -1.458007    24A     -1.410507
      25A     -1.394643    26A     -1.392419    27A     -1.384404
      28A     -1.372493    29A     -1.364400    30A     -1.354200
      31A     -1.301134    32A     -1.119827    33A     -1.041306
      34A     -1.012565    35A     -1.003917    36A     -0.878772
      37A     -0.864770    38A     -0.859459    39A     -0.822445
      40A     -0.811152    41A     -0.751787    42A     -0.744762
      43A     -0.730974    44A     -0.727574    45A     -0.707220
      46A     -0.687305    47A     -0.677810    48A     -0.673073
      49A     -0.662302    50A     -0.660370    51A     -0.642658
      52A     -0.635487    53A     -0.625934    54A     -0.614879
      55A     -0.603841    56A     -0.598883    57A     -0.581538
      58A     -0.574004    59A     -0.571297    60A     -0.559589
      61A     -0.556579    62A     -0.549099    63A     -0.540652
      64A     -0.536929    65A     -0.530964    66A     -0.522217
      67A     -0.514518    68A     -0.505090    69A     -0.497179
      70A     -0.486434    71A     -0.480432    72A     -0.474279
      73A     -0.462424    74A     -0.456495    75A     -0.450607
      76A     -0.436463

  @DF-RHF Final Energy: -1327.85999221506063

   => Energetics <=

    Nuclear Repulsion Energy =           1771.4594167210955220
    One-Electron Energy =               -5355.0720812022154860
    Two-Electron Energy =                2255.7526722660595624
    Total Energy =                      -1327.8599922150606290
  Basis Set: (AUG-CC-PVTZ AUX)
    Blend: AUG-CC-PVTZ-RI
    Molecular point group: c1

    Geometry (in Angstrom), charge = 0, multiplicity = 1:

       Center              X                  Y                   Z               Mass
    ------------   -----------------  -----------------  -----------------  -----------------
         P           -2.289132499907    -0.937866263496     0.343953063781    30.973761998420
         O           -0.977703699907    -0.220677863496     0.955703263781    15.994914619570
         O            1.343213500093    -1.673306263496     1.230126063781    15.994914619570
         O            0.079668500093     2.361780736504     0.461443063781    15.994914619570
         O            3.069478500093    -2.184895263496    -0.809314936219    15.994914619570
         O            2.848298500093     2.505289736504     0.370810063781    15.994914619570
         O            4.196651500093     0.437573736504    -0.973598936219    15.994914619570
         O           -2.846736899907     0.017618636504    -0.813339536219    15.994914619570
         O           -3.258157499907    -0.721105263496     1.620946063781    15.994914619570
         O           -2.118029499907    -2.341467263496    -0.100392936219    15.994914619570
         C            0.119125500093     0.032185736504     0.015594063781    12.000000000000
         C            0.954255500093    -1.242028263496    -0.076449936219    12.000000000000
         C            0.899552500093     1.204820736504     0.564126063781    12.000000000000
         C            2.260623500093    -1.012130263496    -0.818761936219    12.000000000000
         C            2.178038500093     1.398648736504    -0.228765936219    12.000000000000
         C            3.026805500093     0.150881736504    -0.211046936219    12.000000000000
         C           -3.123249499907     1.433774736504    -0.489610936219    12.000000000000
         C           -3.535353499907     2.087341736504    -1.784843936219    12.000000000000
         H           -0.282128499907     0.300977736504    -0.970962936219     1.007825032230
         H            0.371232500093    -2.027187263496    -0.572756936219     1.007825032230
         H            1.158083500093     1.000053736504     1.611431063781     1.007825032230
         H            2.061897500093    -0.786483263496    -1.873480936219     1.007825032230
         H            1.917950500093     1.638463736504    -1.274307936219     1.007825032230
         H            3.296818500093    -0.092355263496     0.826921063781     1.007825032230
         H            0.522738500093    -1.885855263496     1.710785063781     1.007825032230
         H            0.666503500093     3.111487736504     0.682459063781     1.007825032230
         H            2.974506500093    -2.545197263496     0.093929063781     1.007825032230
         H            3.722392500093     2.551362736504    -0.059593936219     1.007825032230
         H            4.640690500093    -0.421657263496    -1.097811936219     1.007825032230
         H           -3.807431499907    -1.520161263496     1.734003063781     1.007825032230
         H           -3.929582499907     1.447717736504     0.248661063781     1.007825032230
         H           -2.228798499907     1.895056736504    -0.059820936219     1.007825032230
         H           -3.799557499907     3.133058736504    -1.603395936219     1.007825032230
         H           -2.716232499907     2.055499736504    -2.505599936219     1.007825032230
         H           -4.399980499907     1.576499736504    -2.213448936219     1.007825032230

  Basis Set: AUG-CC-PVTZ
    Blend: AUG-CC-PVTZ
  Basis Set: (AUG-CC-PVTZ AUX)
    Blend: AUG-CC-PVTZ-JKFIT
	 Reference Energy          =   -1327.8599922150606290 [Eh]
	 Singles Energy            =      -0.0000000000000000 [Eh]
	 Same-Spin Energy          =      -1.0147059811705255 [Eh]
	 Opposite-Spin Energy      =      -3.0766549343846243 [Eh]
	 Correlation Energy        =      -4.0913609155551498 [Eh]
	 Total Energy              =   -1331.9513531306158711 [Eh]

	 ================> DF-SCS-MP2 Energies <==================
	-----------------------------------------------------------
	 SCS Same-Spin Scale       =       0.3333333333333333 [-]
	 SCS Opposite-Spin Scale   =       1.2000000000000000 [-]
	 SCS Same-Spin Energy      =      -0.3382353270568418 [Eh]
	 SCS Opposite-Spin Energy  =      -3.6919859212615491 [Eh]
	 SCS Correlation Energy    =      -4.0302212483183908 [Eh]
	 SCS Total Energy          =   -1331.8902134633790411 [Eh]
	-----------------------------------------------------------

  Dipole Moment: [D]
     X:    -1.0455      Y:     2.0147      Z:     0.6714     Total:     2.3671

*** Psi4 exiting successfully. Buy a developer a beer!
