                               Psi4 1.3.2 release

  ==> Input File <==

--------------------------------------------------------------------------
#psi4
#
memory 32 gb

molecule  {
0 1
  P       -2.2900960    -0.9400430     0.3446780
  O       -0.9821530    -0.2015620     0.9382890
  O        1.3422500    -1.6754830     1.2308510
  O        0.0787050     2.3596040     0.4621680
  O        3.0685150    -2.1870720    -0.8085900
  O        2.8473350     2.5031130     0.3715350
  O        4.1956880     0.4353970    -0.9728740
  O       -2.8268630     0.0333510    -0.8075310
  O       -3.2591210    -0.7232820     1.6216710
  O       -2.1189930    -2.3436440    -0.0996680
  C        0.1181620     0.0300090     0.0163190
  C        0.9561803    -1.2341006    -0.0676311
  C        0.8985890     1.2026440     0.5648510
  C        2.2596600    -1.0143070    -0.8180370
  C        2.1770750     1.3964720    -0.2280410
  C        3.0161576     0.1503555    -0.2014156
  C       -3.1242130     1.4315980    -0.4888860
  C       -3.5363170     2.0851650    -1.7841190
  H       -0.2830920     0.2988010    -0.9702380
  H        0.3702690    -2.0293640    -0.5720320
  H        1.1571200     0.9978770     1.6121560
  H        2.0609340    -0.7886600    -1.8727560
  H        1.9169870     1.6362870    -1.2735830
  H        3.2958550    -0.0945320     0.8276460
  H        0.5217750    -1.8880320     1.7115100
  H        0.6655400     3.1093110     0.6831840
  H        2.9735430    -2.5473740     0.0946540
  H        3.7214290     2.5491860    -0.0588690
  H        4.6397270    -0.4238340    -1.0970870
  H       -3.8083950    -1.5223380     1.7347280
  H       -3.9305460     1.4455410     0.2493860
  H       -2.2297620     1.8928800    -0.0590960
  H       -3.8005210     3.1308820    -1.6026710
  H       -2.7171960     2.0533230    -2.5048750
  H       -4.4009440     1.5743230    -2.2127240
units angstrom
no_reorient  #important for SAPT in psi4, default
symmetry c1  #important for SAPT in psi4, default
}

set PROPERTIES_ORIGIN ["COM"]
properties('MP2/aug-cc-pvtz', properties = ['dipole'])
--------------------------------------------------------------------------

    Molecular point group: c1
  Charge       = 0
  Multiplicity = 1
  Basis Set: AUG-CC-PVTZ
    Blend: AUG-CC-PVTZ
  Basis Set: (AUG-CC-PVTZ AUX)
    Blend: AUG-CC-PVTZ-JKFIT

    Orbital Energies [Eh]
    ---------------------

    Doubly Occupied:

       1A    -80.117040     2A    -20.614830     3A    -20.607340
       4A    -20.599065     5A    -20.583856     6A    -20.577063
       7A    -20.575178     8A    -20.573582     9A    -20.572387
      10A    -20.523381    11A    -11.320796    12A    -11.303678
      13A    -11.299790    14A    -11.299503    15A    -11.298755
      16A    -11.296927    17A    -11.291176    18A    -11.229959
      19A     -7.632490    20A     -5.530996    21A     -5.530624
      22A     -5.529418    23A     -1.460529    24A     -1.411352
      25A     -1.394291    26A     -1.393152    27A     -1.386903
      28A     -1.371790    29A     -1.364447    30A     -1.352200
      31A     -1.303790    32A     -1.120971    33A     -1.040589
      34A     -1.013484    35A     -1.003640    36A     -0.879986
      37A     -0.864895    38A     -0.859210    39A     -0.822579
      40A     -0.811789    41A     -0.752608    42A     -0.744911
      43A     -0.730678    44A     -0.728925    45A     -0.708418
      46A     -0.686784    47A     -0.678921    48A     -0.673296
      49A     -0.661692    50A     -0.660845    51A     -0.643207
      52A     -0.634562    53A     -0.627438    54A     -0.615698
      55A     -0.603717    56A     -0.598591    57A     -0.581262
      58A     -0.575708    59A     -0.571271    60A     -0.559558
      61A     -0.555898    62A     -0.548569    63A     -0.541262
      64A     -0.536215    65A     -0.530033    66A     -0.521862
      67A     -0.513212    68A     -0.504252    69A     -0.496864
      70A     -0.485765    71A     -0.479893    72A     -0.476734
      73A     -0.462693    74A     -0.457795    75A     -0.450283
      76A     -0.435427

  @DF-RHF Final Energy: -1327.86067330773949

   => Energetics <=

    Nuclear Repulsion Energy =           1772.7808465766318022
    One-Electron Energy =               -5357.6864833386771352
    Two-Electron Energy =                2257.0449634543056163
    Total Energy =                      -1327.8606733077394892
  Basis Set: (AUG-CC-PVTZ AUX)
    Blend: AUG-CC-PVTZ-RI
    Molecular point group: c1

    Geometry (in Angstrom), charge = 0, multiplicity = 1:

       Center              X                  Y                   Z               Mass
    ------------   -----------------  -----------------  -----------------  -----------------
         P           -2.289812856316    -0.940532666076     0.343969794983    30.973761998420
         O           -0.981869856316    -0.202051666076     0.937580794983    15.994914619570
         O            1.342533143684    -1.675972666076     1.230142794983    15.994914619570
         O            0.078988143684     2.359114333924     0.461459794983    15.994914619570
         O            3.068798143684    -2.187561666076    -0.809298205017    15.994914619570
         O            2.847618143684     2.502623333924     0.370826794983    15.994914619570
         O            4.195971143684     0.434907333924    -0.973582205017    15.994914619570
         O           -2.826579856316     0.032861333924    -0.808239205017    15.994914619570
         O           -3.258837856316    -0.723771666076     1.620962794983    15.994914619570
         O           -2.118709856316    -2.344133666076    -0.100376205017    15.994914619570
         C            0.118445143684     0.029519333924     0.015610794983    12.000000000000
         C            0.956463443684    -1.234590266076    -0.068339305017    12.000000000000
         C            0.898872143684     1.202154333924     0.564142794983    12.000000000000
         C            2.259943143684    -1.014796666076    -0.818745205017    12.000000000000
         C            2.177358143684     1.395982333924    -0.228749205017    12.000000000000
         C            3.016440743684     0.149865833924    -0.202123805017    12.000000000000
         C           -3.123929856316     1.431108333924    -0.489594205017    12.000000000000
         C           -3.536033856316     2.084675333924    -1.784827205017    12.000000000000
         H           -0.282808856316     0.298311333924    -0.970946205017     1.007825032230
         H            0.370552143684    -2.029853666076    -0.572740205017     1.007825032230
         H            1.157403143684     0.997387333924     1.611447794983     1.007825032230
         H            2.061217143684    -0.789149666076    -1.873464205017     1.007825032230
         H            1.917270143684     1.635797333924    -1.274291205017     1.007825032230
         H            3.296138143684    -0.095021666076     0.826937794983     1.007825032230
         H            0.522058143684    -1.888521666076     1.710801794983     1.007825032230
         H            0.665823143684     3.108821333924     0.682475794983     1.007825032230
         H            2.973826143684    -2.547863666076     0.093945794983     1.007825032230
         H            3.721712143684     2.548696333924    -0.059577205017     1.007825032230
         H            4.640010143684    -0.424323666076    -1.097795205017     1.007825032230
         H           -3.808111856316    -1.522827666076     1.734019794983     1.007825032230
         H           -3.930262856316     1.445051333924     0.248677794983     1.007825032230
         H           -2.229478856316     1.892390333924    -0.059804205017     1.007825032230
         H           -3.800237856316     3.130392333924    -1.603379205017     1.007825032230
         H           -2.716912856316     2.052833333924    -2.505583205017     1.007825032230
         H           -4.400660856316     1.573833333924    -2.213432205017     1.007825032230

  Basis Set: AUG-CC-PVTZ
    Blend: AUG-CC-PVTZ
  Basis Set: (AUG-CC-PVTZ AUX)
    Blend: AUG-CC-PVTZ-JKFIT
	 Reference Energy          =   -1327.8606733077394892 [Eh]
	 Singles Energy            =      -0.0000000000000000 [Eh]
	 Same-Spin Energy          =      -1.0147688263294441 [Eh]
	 Opposite-Spin Energy      =      -3.0763485398405916 [Eh]
	 Correlation Energy        =      -4.0911173661700353 [Eh]
	 Total Energy              =   -1331.9517906739094997 [Eh]

	 ================> DF-SCS-MP2 Energies <==================
	-----------------------------------------------------------
	 SCS Same-Spin Scale       =       0.3333333333333333 [-]
	 SCS Opposite-Spin Scale   =       1.2000000000000000 [-]
	 SCS Same-Spin Energy      =      -0.3382562754431480 [Eh]
	 SCS Opposite-Spin Energy  =      -3.6916182478087096 [Eh]
	 SCS Correlation Energy    =      -4.0298745232518574 [Eh]
	 SCS Total Energy          =   -1331.8905478309914088 [Eh]
	-----------------------------------------------------------

  Dipole Moment: [D]
     X:    -1.1480      Y:     1.8613      Z:     0.7585     Total:     2.3147

*** Psi4 exiting successfully. Buy a developer a beer!
