                               Psi4 1.3.2 release

  ==> Input File <==

--------------------------------------------------------------------------
#psi4
#
memory 32 gb

molecule  {
0 1
  P       -2.2900960    -0.9400430     0.3446780
  O       -0.9821530    -0.2015620     0.9382890
  O        1.3422500    -1.6754830     1.2308510
  O        0.0787050     2.3596040     0.4621680
  O        3.0685150    -2.1870720    -0.8085900
  O        2.8473350     2.5031130     0.3715350
  O        4.1956880     0.4353970    -0.9728740
  O       -2.8268630     0.0333510    -0.8075310
  O       -3.2591210    -0.7232820     1.6216710
  O       -2.1189930    -2.3436440    -0.0996680
  C        0.1181620     0.0300090     0.0163190
  C        0.9532920    -1.2442050    -0.0757250
  C        0.8985890     1.2026440     0.5648510
  C        2.2596600    -1.0143070    -0.8180370
  C        2.1770750     1.3964720    -0.2280410
  C        3.0258420     0.1487050    -0.2103220
  C       -3.1242130     1.4315980    -0.4888860
  C       -3.5363170     2.0851650    -1.7841190
  H       -0.2830920     0.2988010    -0.9702380
  H        0.3702690    -2.0293640    -0.5720320
  H        1.1571200     0.9978770     1.6121560
  H        2.0609340    -0.7886600    -1.8727560
  H        1.8934235     1.6580138    -1.3683074
  H        3.2958550    -0.0945320     0.8276460
  H        0.5217750    -1.8880320     1.7115100
  H        0.6655400     3.1093110     0.6831840
  H        2.9735430    -2.5473740     0.0946540
  H        3.7214290     2.5491860    -0.0588690
  H        4.6397270    -0.4238340    -1.0970870
  H       -3.8083950    -1.5223380     1.7347280
  H       -3.9305460     1.4455410     0.2493860
  H       -2.2297620     1.8928800    -0.0590960
  H       -3.8005210     3.1308820    -1.6026710
  H       -2.7171960     2.0533230    -2.5048750
  H       -4.4009440     1.5743230    -2.2127240
units angstrom
no_reorient  #important for SAPT in psi4, default
symmetry c1  #important for SAPT in psi4, default
}

set PROPERTIES_ORIGIN ["COM"]
properties('MP2/aug-cc-pvtz', properties = ['dipole'])
--------------------------------------------------------------------------

    Molecular point group: c1
  Charge       = 0
  Multiplicity = 1
  Basis Set: AUG-CC-PVTZ
    Blend: AUG-CC-PVTZ
  Basis Set: (AUG-CC-PVTZ AUX)
    Blend: AUG-CC-PVTZ-JKFIT

    Orbital Energies [Eh]
    ---------------------

    Doubly Occupied:

       1A    -80.116930     2A    -20.614725     3A    -20.607022
       4A    -20.598859     5A    -20.583291     6A    -20.579073
       7A    -20.574666     8A    -20.574235     9A    -20.573535
      10A    -20.523415    11A    -11.320714    12A    -11.308377
      13A    -11.303543    14A    -11.299673    15A    -11.299290
      16A    -11.299272    17A    -11.292702    18A    -11.229727
      19A     -7.632377    20A     -5.530884    21A     -5.530511
      22A     -5.529309    23A     -1.460269    24A     -1.410980
      25A     -1.395117    26A     -1.393201    27A     -1.386808
      28A     -1.372867    29A     -1.364383    30A     -1.354339
      31A     -1.303810    32A     -1.118456    33A     -1.040335
      34A     -1.011509    35A     -1.002376    36A     -0.879806
      37A     -0.864661    38A     -0.857734    39A     -0.821463
      40A     -0.806861    41A     -0.749911    42A     -0.745346
      43A     -0.730396    44A     -0.727858    45A     -0.708181
      46A     -0.685610    47A     -0.677999    48A     -0.673089
      49A     -0.662655    50A     -0.661206    51A     -0.642453
      52A     -0.635272    53A     -0.626806    54A     -0.614818
      55A     -0.602795    56A     -0.597681    57A     -0.581358
      58A     -0.575512    59A     -0.571098    60A     -0.558233
      61A     -0.556078    62A     -0.548398    63A     -0.540956
      64A     -0.536281    65A     -0.529755    66A     -0.521621
      67A     -0.512171    68A     -0.504054    69A     -0.496983
      70A     -0.484876    71A     -0.479749    72A     -0.476592
      73A     -0.461628    74A     -0.454058    75A     -0.448373
      76A     -0.436599

  @DF-RHF Final Energy: -1327.85458949924509

   => Energetics <=

    Nuclear Repulsion Energy =           1771.8631596423590508
    One-Electron Energy =               -5355.8683930760180374
    Two-Electron Energy =                2256.1506439344138926
    Total Energy =                      -1327.8545894992448666
  Basis Set: (AUG-CC-PVTZ AUX)
    Blend: AUG-CC-PVTZ-RI
    Molecular point group: c1

    Geometry (in Angstrom), charge = 0, multiplicity = 1:

       Center              X                  Y                   Z               Mass
    ------------   -----------------  -----------------  -----------------  -----------------
         P           -2.290013526698    -0.940118996821     0.345009398406    30.973761998420
         O           -0.982070526698    -0.201637996821     0.938620398406    15.994914619570
         O            1.342332473302    -1.675558996821     1.231182398406    15.994914619570
         O            0.078787473302     2.359528003179     0.462499398406    15.994914619570
         O            3.068597473302    -2.187147996821    -0.808258601594    15.994914619570
         O            2.847417473302     2.503037003179     0.371866398406    15.994914619570
         O            4.195770473302     0.435321003179    -0.972542601594    15.994914619570
         O           -2.826780526698     0.033275003179    -0.807199601594    15.994914619570
         O           -3.259038526698    -0.723357996821     1.622002398406    15.994914619570
         O           -2.118910526698    -2.343719996821    -0.099336601594    15.994914619570
         C            0.118244473302     0.029933003179     0.016650398406    12.000000000000
         C            0.953374473302    -1.244280996821    -0.075393601594    12.000000000000
         C            0.898671473302     1.202568003179     0.565182398406    12.000000000000
         C            2.259742473302    -1.014382996821    -0.817705601594    12.000000000000
         C            2.177157473302     1.396396003179    -0.227709601594    12.000000000000
         C            3.025924473302     0.148629003179    -0.209990601594    12.000000000000
         C           -3.124130526698     1.431522003179    -0.488554601594    12.000000000000
         C           -3.536234526698     2.085089003179    -1.783787601594    12.000000000000
         H           -0.283009526698     0.298725003179    -0.969906601594     1.007825032230
         H            0.370351473302    -2.029439996821    -0.571700601594     1.007825032230
         H            1.157202473302     0.997801003179     1.612487398406     1.007825032230
         H            2.061016473302    -0.788735996821    -1.872424601594     1.007825032230
         H            1.893505973302     1.657937803179    -1.367976001594     1.007825032230
         H            3.295937473302    -0.094607996821     0.827977398406     1.007825032230
         H            0.521857473302    -1.888107996821     1.711841398406     1.007825032230
         H            0.665622473302     3.109235003179     0.683515398406     1.007825032230
         H            2.973625473302    -2.547449996821     0.094985398406     1.007825032230
         H            3.721511473302     2.549110003179    -0.058537601594     1.007825032230
         H            4.639809473302    -0.423909996821    -1.096755601594     1.007825032230
         H           -3.808312526698    -1.522413996821     1.735059398406     1.007825032230
         H           -3.930463526698     1.445465003179     0.249717398406     1.007825032230
         H           -2.229679526698     1.892804003179    -0.058764601594     1.007825032230
         H           -3.800438526698     3.130806003179    -1.602339601594     1.007825032230
         H           -2.717113526698     2.053247003179    -2.504543601594     1.007825032230
         H           -4.400861526698     1.574247003179    -2.212392601594     1.007825032230

  Basis Set: AUG-CC-PVTZ
    Blend: AUG-CC-PVTZ
  Basis Set: (AUG-CC-PVTZ AUX)
    Blend: AUG-CC-PVTZ-JKFIT
	 Reference Energy          =   -1327.8545894992450940 [Eh]
	 Singles Energy            =      -0.0000000000000000 [Eh]
	 Same-Spin Energy          =      -1.0148698914959597 [Eh]
	 Opposite-Spin Energy      =      -3.0770968027505461 [Eh]
	 Correlation Energy        =      -4.0919666942465058 [Eh]
	 Total Energy              =   -1331.9465561934916877 [Eh]

	 ================> DF-SCS-MP2 Energies <==================
	-----------------------------------------------------------
	 SCS Same-Spin Scale       =       0.3333333333333333 [-]
	 SCS Opposite-Spin Scale   =       1.2000000000000000 [-]
	 SCS Same-Spin Energy      =      -0.3382899638319866 [Eh]
	 SCS Opposite-Spin Energy  =      -3.6925161633006551 [Eh]
	 SCS Correlation Energy    =      -4.0308061271326414 [Eh]
	 SCS Total Energy          =   -1331.8853956263776581 [Eh]
	-----------------------------------------------------------

  Dipole Moment: [D]
     X:    -1.0812      Y:     1.8711      Z:     0.7858     Total:     2.2994

*** Psi4 exiting successfully. Buy a developer a beer!
