                               Psi4 1.3.2 release

  ==> Input File <==

--------------------------------------------------------------------------
#psi4
#
memory 32 gb

molecule  {
0 1
  P       -2.2900960    -0.9400430     0.3446780
  O       -0.9821530    -0.2015620     0.9382890
  O        1.3067921    -1.7401301     1.2179233
  O        0.0787050     2.3596040     0.4621680
  O        3.0685150    -2.1870720    -0.8085900
  O        2.8473350     2.5031130     0.3715350
  O        4.1956880     0.4353970    -0.9728740
  O       -2.8268630     0.0333510    -0.8075310
  O       -3.2591210    -0.7232820     1.6216710
  O       -2.1189930    -2.3436440    -0.0996680
  C        0.1181620     0.0300090     0.0163190
  C        0.9532920    -1.2442050    -0.0757250
  C        0.8985890     1.2026440     0.5648510
  C        2.2596600    -1.0143070    -0.8180370
  C        2.1770750     1.3964720    -0.2280410
  C        3.0258420     0.1487050    -0.2103220
  C       -3.1242130     1.4315980    -0.4888860
  C       -3.5363170     2.0851650    -1.7841190
  H       -0.2830920     0.2988010    -0.9702380
  H        0.3765718    -2.0616783    -0.5249936
  H        1.1571200     0.9978770     1.6121560
  H        2.0609340    -0.7886600    -1.8727560
  H        1.9169870     1.6362870    -1.2735830
  H        3.2958550    -0.0945320     0.8276460
  H        0.5217750    -1.8880320     1.7115100
  H        0.6655400     3.1093110     0.6831840
  H        2.9735430    -2.5473740     0.0946540
  H        3.7214290     2.5491860    -0.0588690
  H        4.6397270    -0.4238340    -1.0970870
  H       -3.8083950    -1.5223380     1.7347280
  H       -3.9305460     1.4455410     0.2493860
  H       -2.2297620     1.8928800    -0.0590960
  H       -3.8005210     3.1308820    -1.6026710
  H       -2.7171960     2.0533230    -2.5048750
  H       -4.4009440     1.5743230    -2.2127240
units angstrom
no_reorient  #important for SAPT in psi4, default
symmetry c1  #important for SAPT in psi4, default
}

set PROPERTIES_ORIGIN ["COM"]
properties('MP2/aug-cc-pvtz', properties = ['dipole'])
--------------------------------------------------------------------------

    Molecular point group: c1
  Charge       = 0
  Multiplicity = 1
  Basis Set: AUG-CC-PVTZ
    Blend: AUG-CC-PVTZ
  Basis Set: (AUG-CC-PVTZ AUX)
    Blend: AUG-CC-PVTZ-JKFIT

    Orbital Energies [Eh]
    ---------------------

    Doubly Occupied:

       1A    -80.116792     2A    -20.614596     3A    -20.607334
       4A    -20.598965     5A    -20.577784     6A    -20.576415
       7A    -20.575174     8A    -20.574785     9A    -20.574621
      10A    -20.522881    11A    -11.322384    12A    -11.303296
      13A    -11.300708    14A    -11.300201    15A    -11.299529
      16A    -11.297876    17A    -11.292871    18A    -11.229991
      19A     -7.632239    20A     -5.530745    21A     -5.530375
      22A     -5.529163    23A     -1.460376    24A     -1.412000
      25A     -1.396022    26A     -1.393948    27A     -1.386879
      28A     -1.374547    29A     -1.365510    30A     -1.354978
      31A     -1.303314    32A     -1.120913    33A     -1.040587
      34A     -1.012880    35A     -1.004712    36A     -0.881475
      37A     -0.865454    38A     -0.860037    39A     -0.822650
      40A     -0.813982    41A     -0.754109    42A     -0.745245
      43A     -0.731359    44A     -0.729135    45A     -0.709172
      46A     -0.688207    47A     -0.678516    48A     -0.674035
      49A     -0.663337    50A     -0.661578    51A     -0.644704
      52A     -0.635747    53A     -0.628157    54A     -0.618204
      55A     -0.604390    56A     -0.598232    57A     -0.582331
      58A     -0.575739    59A     -0.571659    60A     -0.559506
      61A     -0.556143    62A     -0.547095    63A     -0.540676
      64A     -0.538323    65A     -0.530327    66A     -0.522163
      67A     -0.513732    68A     -0.504231    69A     -0.495817
      70A     -0.485780    71A     -0.479659    72A     -0.476287
      73A     -0.463097    74A     -0.456976    75A     -0.451094
      76A     -0.435773

  @DF-RHF Final Energy: -1327.86158758310262

   => Energetics <=

    Nuclear Repulsion Energy =           1771.8030432251916864
    One-Electron Energy =               -5355.6702099679550884
    Two-Electron Energy =                2256.0055791596605559
    Total Energy =                      -1327.8615875831028461
  Basis Set: (AUG-CC-PVTZ AUX)
    Blend: AUG-CC-PVTZ-RI
    Molecular point group: c1

    Geometry (in Angstrom), charge = 0, multiplicity = 1:

       Center              X                  Y                   Z               Mass
    ------------   -----------------  -----------------  -----------------  -----------------
         P           -2.288149178374    -0.936340322353     0.345231245012    30.973761998420
         O           -0.980206178374    -0.197859322353     0.938842245012    15.994914619570
         O            1.308738921626    -1.736427422353     1.218476545012    15.994914619570
         O            0.080651821626     2.363306677647     0.462721245012    15.994914619570
         O            3.070461821626    -2.183369322353    -0.808036754988    15.994914619570
         O            2.849281821626     2.506815677647     0.372088245012    15.994914619570
         O            4.197634821626     0.439099677647    -0.972320754988    15.994914619570
         O           -2.824916178374     0.037053677647    -0.806977754988    15.994914619570
         O           -3.257174178374    -0.719579322353     1.622224245012    15.994914619570
         O           -2.117046178374    -2.339941322353    -0.099114754988    15.994914619570
         C            0.120108821626     0.033711677647     0.016872245012    12.000000000000
         C            0.955238821626    -1.240502322353    -0.075171754988    12.000000000000
         C            0.900535821626     1.206346677647     0.565404245012    12.000000000000
         C            2.261606821626    -1.010604322353    -0.817483754988    12.000000000000
         C            2.179021821626     1.400174677647    -0.227487754988    12.000000000000
         C            3.027788821626     0.152407677647    -0.209768754988    12.000000000000
         C           -3.122266178374     1.435300677647    -0.488332754988    12.000000000000
         C           -3.534370178374     2.088867677647    -1.783565754988    12.000000000000
         H           -0.281145178374     0.302503677647    -0.969684754988     1.007825032230
         H            0.378518621626    -2.057975622353    -0.524440354988     1.007825032230
         H            1.159066821626     1.001579677647     1.612709245012     1.007825032230
         H            2.062880821626    -0.784957322353    -1.872202754988     1.007825032230
         H            1.918933821626     1.639989677647    -1.273029754988     1.007825032230
         H            3.297801821626    -0.090829322353     0.828199245012     1.007825032230
         H            0.523721821626    -1.884329322353     1.712063245012     1.007825032230
         H            0.667486821626     3.113013677647     0.683737245012     1.007825032230
         H            2.975489821626    -2.543671322353     0.095207245012     1.007825032230
         H            3.723375821626     2.552888677647    -0.058315754988     1.007825032230
         H            4.641673821626    -0.420131322353    -1.096533754988     1.007825032230
         H           -3.806448178374    -1.518635322353     1.735281245012     1.007825032230
         H           -3.928599178374     1.449243677647     0.249939245012     1.007825032230
         H           -2.227815178374     1.896582677647    -0.058542754988     1.007825032230
         H           -3.798574178374     3.134584677647    -1.602117754988     1.007825032230
         H           -2.715249178374     2.057025677647    -2.504321754988     1.007825032230
         H           -4.398997178374     1.578025677647    -2.212170754988     1.007825032230

  Basis Set: AUG-CC-PVTZ
    Blend: AUG-CC-PVTZ
  Basis Set: (AUG-CC-PVTZ AUX)
    Blend: AUG-CC-PVTZ-JKFIT
	 Reference Energy          =   -1327.8615875831026187 [Eh]
	 Singles Energy            =      -0.0000000000000000 [Eh]
	 Same-Spin Energy          =      -1.0138922991577861 [Eh]
	 Opposite-Spin Energy      =      -3.0745516823132011 [Eh]
	 Correlation Energy        =      -4.0884439814709870 [Eh]
	 Total Energy              =   -1331.9500315645736919 [Eh]

	 ================> DF-SCS-MP2 Energies <==================
	-----------------------------------------------------------
	 SCS Same-Spin Scale       =       0.3333333333333333 [-]
	 SCS Opposite-Spin Scale   =       1.2000000000000000 [-]
	 SCS Same-Spin Energy      =      -0.3379640997192620 [Eh]
	 SCS Opposite-Spin Energy  =      -3.6894620187758411 [Eh]
	 SCS Correlation Energy    =      -4.0274261184951028 [Eh]
	 SCS Total Energy          =   -1331.8890137015978326 [Eh]
	-----------------------------------------------------------

  Dipole Moment: [D]
     X:    -1.0562      Y:     2.0275      Z:     0.7118     Total:     2.3943

*** Psi4 exiting successfully. Buy a developer a beer!
