                               Psi4 1.3.2 release

  ==> Input File <==

--------------------------------------------------------------------------
#psi4
#
memory 32 gb

molecule  {
0 1
  P       -2.2900960    -0.9400430     0.3446780
  O       -0.9821530    -0.2015620     0.9382890
  O        1.3422500    -1.6754830     1.2308510
  O        0.0787050     2.3596040     0.4621680
  O        3.0685150    -2.1870720    -0.8085900
  O        2.8473350     2.5031130     0.3715350
  O        4.1956880     0.4353970    -0.9728740
  O       -2.8268630     0.0333510    -0.8075310
  O       -3.2591210    -0.7232820     1.6216710
  O       -2.1189930    -2.3436440    -0.0996680
  C        0.1181620     0.0300090     0.0163190
  C        0.9591679    -1.2239796    -0.0595943
  C        0.8985890     1.2026440     0.5648510
  C        2.2596600    -1.0143070    -0.8180370
  C        2.1770750     1.3964720    -0.2280410
  C        3.0064156     0.1519173    -0.1925562
  C       -3.1242130     1.4315980    -0.4888860
  C       -3.5363170     2.0851650    -1.7841190
  H       -0.2830920     0.2988010    -0.9702380
  H        0.3702690    -2.0293640    -0.5720320
  H        1.1571200     0.9978770     1.6121560
  H        2.0609340    -0.7886600    -1.8727560
  H        1.9169870     1.6362870    -1.2735830
  H        3.2958550    -0.0945320     0.8276460
  H        0.5217750    -1.8880320     1.7115100
  H        0.6655400     3.1093110     0.6831840
  H        2.9735430    -2.5473740     0.0946540
  H        3.7214290     2.5491860    -0.0588690
  H        4.6397270    -0.4238340    -1.0970870
  H       -3.8083950    -1.5223380     1.7347280
  H       -3.9305460     1.4455410     0.2493860
  H       -2.2297620     1.8928800    -0.0590960
  H       -3.8005210     3.1308820    -1.6026710
  H       -2.7171960     2.0533230    -2.5048750
  H       -4.4009440     1.5743230    -2.2127240
units angstrom
no_reorient  #important for SAPT in psi4, default
symmetry c1  #important for SAPT in psi4, default
}

set PROPERTIES_ORIGIN ["COM"]
properties('MP2/aug-cc-pvtz', properties = ['dipole'])
--------------------------------------------------------------------------

    Molecular point group: c1
  Charge       = 0
  Multiplicity = 1
  Basis Set: AUG-CC-PVTZ
    Blend: AUG-CC-PVTZ
  Basis Set: (AUG-CC-PVTZ AUX)
    Blend: AUG-CC-PVTZ-JKFIT

    Orbital Energies [Eh]
    ---------------------

    Doubly Occupied:

       1A    -80.117123     2A    -20.614916     3A    -20.607635
       4A    -20.599180     5A    -20.584570     6A    -20.577315
       7A    -20.575733     8A    -20.573673     9A    -20.570642
      10A    -20.523311    11A    -11.320832    12A    -11.303853
      13A    -11.300251    14A    -11.299612    15A    -11.298868
      16A    -11.297146    17A    -11.290965    18A    -11.230046
      19A     -7.632572    20A     -5.531077    21A     -5.530707
      22A     -5.529497    23A     -1.460761    24A     -1.412069
      25A     -1.394662    26A     -1.392727    27A     -1.386942
      28A     -1.371168    29A     -1.364768    30A     -1.349988
      31A     -1.303733    32A     -1.122897    33A     -1.040712
      34A     -1.014944    35A     -1.003838    36A     -0.879706
      37A     -0.864869    38A     -0.859344    39A     -0.822857
      40A     -0.812904    41A     -0.753588    42A     -0.744642
      43A     -0.729928    44A     -0.729111    45A     -0.708894
      46A     -0.686564    47A     -0.679762    48A     -0.672841
      49A     -0.661753    50A     -0.659997    51A     -0.643240
      52A     -0.634125    53A     -0.627565    54A     -0.616061
      55A     -0.603771    56A     -0.598752    57A     -0.580860
      58A     -0.575848    59A     -0.571396    60A     -0.559747
      61A     -0.555274    62A     -0.548622    63A     -0.541349
      64A     -0.535806    65A     -0.530104    66A     -0.522019
      67A     -0.513289    68A     -0.504034    69A     -0.496582
      70A     -0.486744    71A     -0.479909    72A     -0.476802
      73A     -0.463048    74A     -0.459495    75A     -0.450383
      76A     -0.434275

  @DF-RHF Final Energy: -1327.85910629533691

   => Energetics <=

    Nuclear Repulsion Energy =           1773.1165298591981809
    One-Electron Energy =               -5358.3420906750825452
    Two-Electron Energy =                2257.3664545205474496
    Total Energy =                      -1327.8591062953369146
  Basis Set: (AUG-CC-PVTZ AUX)
    Blend: AUG-CC-PVTZ-RI
    Molecular point group: c1

    Geometry (in Angstrom), charge = 0, multiplicity = 1:

       Center              X                  Y                   Z               Mass
    ------------   -----------------  -----------------  -----------------  -----------------
         P           -2.289531482598    -0.941019346295     0.343265935778    30.973761998420
         O           -0.981588482598    -0.202538346295     0.936876935778    15.994914619570
         O            1.342814517402    -1.676459346295     1.229438935778    15.994914619570
         O            0.079269517402     2.358627653705     0.460755935778    15.994914619570
         O            3.069079517402    -2.188048346295    -0.810002064222    15.994914619570
         O            2.847899517402     2.502136653705     0.370122935778    15.994914619570
         O            4.196252517402     0.434420653705    -0.974286064222    15.994914619570
         O           -2.826298482598     0.032374653705    -0.808943064222    15.994914619570
         O           -3.258556482598    -0.724258346295     1.620258935778    15.994914619570
         O           -2.118428482598    -2.344620346295    -0.101080064222    15.994914619570
         C            0.118726517402     0.029032653705     0.014906935778    12.000000000000
         C            0.959732417402    -1.224955946295    -0.061006364222    12.000000000000
         C            0.899153517402     1.201667653705     0.563438935778    12.000000000000
         C            2.260224517402    -1.015283346295    -0.819449064222    12.000000000000
         C            2.177639517402     1.395495653705    -0.229453064222    12.000000000000
         C            3.006980117402     0.150940953705    -0.193968264222    12.000000000000
         C           -3.123648482598     1.430621653705    -0.490298064222    12.000000000000
         C           -3.535752482598     2.084188653705    -1.785531064222    12.000000000000
         H           -0.282527482598     0.297824653705    -0.971650064222     1.007825032230
         H            0.370833517402    -2.030340346295    -0.573444064222     1.007825032230
         H            1.157684517402     0.996900653705     1.610743935778     1.007825032230
         H            2.061498517402    -0.789636346295    -1.874168064222     1.007825032230
         H            1.917551517402     1.635310653705    -1.274995064222     1.007825032230
         H            3.296419517402    -0.095508346295     0.826233935778     1.007825032230
         H            0.522339517402    -1.889008346295     1.710097935778     1.007825032230
         H            0.666104517402     3.108334653705     0.681771935778     1.007825032230
         H            2.974107517402    -2.548350346295     0.093241935778     1.007825032230
         H            3.721993517402     2.548209653705    -0.060281064222     1.007825032230
         H            4.640291517402    -0.424810346295    -1.098499064222     1.007825032230
         H           -3.807830482598    -1.523314346295     1.733315935778     1.007825032230
         H           -3.929981482598     1.444564653705     0.247973935778     1.007825032230
         H           -2.229197482598     1.891903653705    -0.060508064222     1.007825032230
         H           -3.799956482598     3.129905653705    -1.604083064222     1.007825032230
         H           -2.716631482598     2.052346653705    -2.506287064222     1.007825032230
         H           -4.400379482598     1.573346653705    -2.214136064222     1.007825032230

  Basis Set: AUG-CC-PVTZ
    Blend: AUG-CC-PVTZ
  Basis Set: (AUG-CC-PVTZ AUX)
    Blend: AUG-CC-PVTZ-JKFIT
	 Reference Energy          =   -1327.8591062953369146 [Eh]
	 Singles Energy            =      -0.0000000000000000 [Eh]
	 Same-Spin Energy          =      -1.0149621265813213 [Eh]
	 Opposite-Spin Energy      =      -3.0766630386594809 [Eh]
	 Correlation Energy        =      -4.0916251652408020 [Eh]
	 Total Energy              =   -1331.9507314605777992 [Eh]

	 ================> DF-SCS-MP2 Energies <==================
	-----------------------------------------------------------
	 SCS Same-Spin Scale       =       0.3333333333333333 [-]
	 SCS Opposite-Spin Scale   =       1.2000000000000000 [-]
	 SCS Same-Spin Energy      =      -0.3383207088604404 [Eh]
	 SCS Opposite-Spin Energy  =      -3.6919956463913768 [Eh]
	 SCS Correlation Energy    =      -4.0303163552518173 [Eh]
	 SCS Total Energy          =   -1331.8894226505888128 [Eh]
	-----------------------------------------------------------

  Dipole Moment: [D]
     X:    -1.1819      Y:     1.8604      Z:     0.7952     Total:     2.3432

*** Psi4 exiting successfully. Buy a developer a beer!
