                               Psi4 1.3.2 release

  ==> Input File <==

--------------------------------------------------------------------------
#psi4
#
memory 32 gb

molecule  {
0 1
  P       -2.2900960    -0.9400430     0.3446780
  O       -0.9821530    -0.2015620     0.9382890
  O        1.3422500    -1.6754830     1.2308510
  O        0.0787050     2.3596040     0.4621680
  O        3.0685150    -2.1870720    -0.8085900
  O        2.8473350     2.5031130     0.3715350
  O        4.1956880     0.4353970    -0.9728740
  O       -2.8268630     0.0333510    -0.8075310
  O       -3.2591210    -0.7232820     1.6216710
  O       -2.1189930    -2.3436440    -0.0996680
  C        0.1757169     0.0681321    -0.0239197
  C        0.9532920    -1.2442050    -0.0757250
  C        0.8985890     1.2026440     0.5648510
  C        2.2384700    -0.9381852    -0.8274875
  C        2.1770750     1.3964720    -0.2280410
  C        3.0258420     0.1487050    -0.2103220
  C       -3.1242130     1.4315980    -0.4888860
  C       -3.5363170     2.0851650    -1.7841190
  H       -0.2830920     0.2988010    -0.9702380
  H        0.3702690    -2.0293640    -0.5720320
  H        1.1571200     0.9978770     1.6121560
  H        2.0609340    -0.7886600    -1.8727560
  H        1.9169870     1.6362870    -1.2735830
  H        3.2958550    -0.0945320     0.8276460
  H        0.5217750    -1.8880320     1.7115100
  H        0.6655400     3.1093110     0.6831840
  H        2.9735430    -2.5473740     0.0946540
  H        3.7214290     2.5491860    -0.0588690
  H        4.6397270    -0.4238340    -1.0970870
  H       -3.8083950    -1.5223380     1.7347280
  H       -3.9305460     1.4455410     0.2493860
  H       -2.2297620     1.8928800    -0.0590960
  H       -3.8005210     3.1308820    -1.6026710
  H       -2.7171960     2.0533230    -2.5048750
  H       -4.4009440     1.5743230    -2.2127240
units angstrom
no_reorient  #important for SAPT in psi4, default
symmetry c1  #important for SAPT in psi4, default
}

set PROPERTIES_ORIGIN ["COM"]
properties('MP2/aug-cc-pvtz', properties = ['dipole'])
--------------------------------------------------------------------------

    Molecular point group: c1
  Charge       = 0
  Multiplicity = 1
  Basis Set: AUG-CC-PVTZ
    Blend: AUG-CC-PVTZ
  Basis Set: (AUG-CC-PVTZ AUX)
    Blend: AUG-CC-PVTZ-JKFIT

    Orbital Energies [Eh]
    ---------------------

    Doubly Occupied:

       1A    -80.111729     2A    -20.611025     3A    -20.596330
       4A    -20.596258     5A    -20.586205     6A    -20.579699
       7A    -20.577620     8A    -20.577162     9A    -20.566453
      10A    -20.519927    11A    -11.324355    12A    -11.310418
      13A    -11.301965    14A    -11.301148    15A    -11.300823
      16A    -11.298042    17A    -11.295551    18A    -11.229276
      19A     -7.627123    20A     -5.525633    21A     -5.525256
      22A     -5.524102    23A     -1.450702    24A     -1.408771
      25A     -1.394650    26A     -1.386679    27A     -1.383989
      28A     -1.366427    29A     -1.360767    30A     -1.339250
      31A     -1.299853    32A     -1.135649    33A     -1.039433
      34A     -1.022905    35A     -1.010634    36A     -0.878662
      37A     -0.864838    38A     -0.860616    39A     -0.819654
      40A     -0.816528    41A     -0.752139    42A     -0.744892
      43A     -0.732436    44A     -0.722033    45A     -0.707707
      46A     -0.688865    47A     -0.673852    48A     -0.672972
      49A     -0.663441    50A     -0.655731    51A     -0.642186
      52A     -0.636122    53A     -0.622291    54A     -0.616744
      55A     -0.599448    56A     -0.594884    57A     -0.584741
      58A     -0.571785    59A     -0.567546    60A     -0.561997
      61A     -0.556504    62A     -0.549290    63A     -0.540636
      64A     -0.533936    65A     -0.531102    66A     -0.521844
      67A     -0.511542    68A     -0.506176    69A     -0.498440
      70A     -0.485145    71A     -0.477821    72A     -0.474381
      73A     -0.463834    74A     -0.458730    75A     -0.453239
      76A     -0.449318

  @DF-RHF Final Energy: -1327.84613231009166

   => Energetics <=

    Nuclear Repulsion Energy =           1772.4604647605485752
    One-Electron Energy =               -5357.1134882171008940
    Two-Electron Energy =                2256.8068911464611119
    Total Energy =                      -1327.8461323100914342
  Basis Set: (AUG-CC-PVTZ AUX)
    Blend: AUG-CC-PVTZ-RI
    Molecular point group: c1

    Geometry (in Angstrom), charge = 0, multiplicity = 1:

       Center              X                  Y                   Z               Mass
    ------------   -----------------  -----------------  -----------------  -----------------
         P           -2.291610850371    -0.944802178152     0.346747935540    30.973761998420
         O           -0.983667850371    -0.206321178152     0.940358935540    15.994914619570
         O            1.340735149629    -1.680242178152     1.232920935540    15.994914619570
         O            0.077190149629     2.354844821848     0.464237935540    15.994914619570
         O            3.067000149629    -2.191831178152    -0.806520064460    15.994914619570
         O            2.845820149629     2.498353821848     0.373604935540    15.994914619570
         O            4.194173149629     0.430637821848    -0.970804064460    15.994914619570
         O           -2.828377850371     0.028591821848    -0.805461064460    15.994914619570
         O           -3.260635850371    -0.728041178152     1.623740935540    15.994914619570
         O           -2.120507850371    -2.348403178152    -0.097598064460    15.994914619570
         C            0.174202049629     0.063372921848    -0.021849764460    12.000000000000
         C            0.951777149629    -1.248964178152    -0.073655064460    12.000000000000
         C            0.897074149629     1.197884821848     0.566920935540    12.000000000000
         C            2.236955149629    -0.942944378152    -0.825417564460    12.000000000000
         C            2.175560149629     1.391712821848    -0.225971064460    12.000000000000
         C            3.024327149629     0.143945821848    -0.208252064460    12.000000000000
         C           -3.125727850371     1.426838821848    -0.486816064460    12.000000000000
         C           -3.537831850371     2.080405821848    -1.782049064460    12.000000000000
         H           -0.284606850371     0.294041821848    -0.968168064460     1.007825032230
         H            0.368754149629    -2.034123178152    -0.569962064460     1.007825032230
         H            1.155605149629     0.993117821848     1.614225935540     1.007825032230
         H            2.059419149629    -0.793419178152    -1.870686064460     1.007825032230
         H            1.915472149629     1.631527821848    -1.271513064460     1.007825032230
         H            3.294340149629    -0.099291178152     0.829715935540     1.007825032230
         H            0.520260149629    -1.892791178152     1.713579935540     1.007825032230
         H            0.664025149629     3.104551821848     0.685253935540     1.007825032230
         H            2.972028149629    -2.552133178152     0.096723935540     1.007825032230
         H            3.719914149629     2.544426821848    -0.056799064460     1.007825032230
         H            4.638212149629    -0.428593178152    -1.095017064460     1.007825032230
         H           -3.809909850371    -1.527097178152     1.736797935540     1.007825032230
         H           -3.932060850371     1.440781821848     0.251455935540     1.007825032230
         H           -2.231276850371     1.888120821848    -0.057026064460     1.007825032230
         H           -3.802035850371     3.126122821848    -1.600601064460     1.007825032230
         H           -2.718710850371     2.048563821848    -2.502805064460     1.007825032230
         H           -4.402458850371     1.569563821848    -2.210654064460     1.007825032230

  Basis Set: AUG-CC-PVTZ
    Blend: AUG-CC-PVTZ
  Basis Set: (AUG-CC-PVTZ AUX)
    Blend: AUG-CC-PVTZ-JKFIT
	 Reference Energy          =   -1327.8461323100916616 [Eh]
	 Singles Energy            =      -0.0000000000000000 [Eh]
	 Same-Spin Energy          =      -1.0158287421749437 [Eh]
	 Opposite-Spin Energy      =      -3.0790919201385760 [Eh]
	 Correlation Energy        =      -4.0949206623135197 [Eh]
	 Total Energy              =   -1331.9410529724052594 [Eh]

	 ================> DF-SCS-MP2 Energies <==================
	-----------------------------------------------------------
	 SCS Same-Spin Scale       =       0.3333333333333333 [-]
	 SCS Opposite-Spin Scale   =       1.2000000000000000 [-]
	 SCS Same-Spin Energy      =      -0.3386095807249812 [Eh]
	 SCS Opposite-Spin Energy  =      -3.6949103041662910 [Eh]
	 SCS Correlation Energy    =      -4.0335198848912723 [Eh]
	 SCS Total Energy          =   -1331.8796521949830094 [Eh]
	-----------------------------------------------------------

  Dipole Moment: [D]
     X:    -0.8580      Y:     2.1984      Z:     0.6499     Total:     2.4477

*** Psi4 exiting successfully. Buy a developer a beer!
