                               Psi4 1.3.2 release

  ==> Input File <==

--------------------------------------------------------------------------
#psi4
#
memory 32 gb

molecule  {
0 1
  P       -2.2900960    -0.9400430     0.3446780
  O       -0.9821530    -0.2015620     0.9382890
  O        1.3422500    -1.6754830     1.2308510
  O        0.0787050     2.3596040     0.4621680
  O        3.0685150    -2.1870720    -0.8085900
  O        2.8473350     2.5031130     0.3715350
  O        4.1956880     0.4353970    -0.9728740
  O       -2.8268630     0.0333510    -0.8075310
  O       -3.2591210    -0.7232820     1.6216710
  O       -2.1189930    -2.3436440    -0.0996680
  C        0.1181620     0.0300090     0.0163190
  C        0.9478140    -1.2643604    -0.0920818
  C        0.8985890     1.2026440     0.5648510
  C        2.2596600    -1.0143070    -0.8180370
  C        2.1770750     1.3964720    -0.2280410
  C        3.0450351     0.1451384    -0.2282729
  C       -3.1242130     1.4315980    -0.4888860
  C       -3.5363170     2.0851650    -1.7841190
  H       -0.2830920     0.2988010    -0.9702380
  H        0.3702690    -2.0293640    -0.5720320
  H        1.1571200     0.9978770     1.6121560
  H        2.0609340    -0.7886600    -1.8727560
  H        1.9169870     1.6362870    -1.2735830
  H        3.2958550    -0.0945320     0.8276460
  H        0.5217750    -1.8880320     1.7115100
  H        0.6655400     3.1093110     0.6831840
  H        2.9735430    -2.5473740     0.0946540
  H        3.7214290     2.5491860    -0.0588690
  H        4.6397270    -0.4238340    -1.0970870
  H       -3.8083950    -1.5223380     1.7347280
  H       -3.9305460     1.4455410     0.2493860
  H       -2.2297620     1.8928800    -0.0590960
  H       -3.8005210     3.1308820    -1.6026710
  H       -2.7171960     2.0533230    -2.5048750
  H       -4.4009440     1.5743230    -2.2127240
units angstrom
no_reorient  #important for SAPT in psi4, default
symmetry c1  #important for SAPT in psi4, default
}

set PROPERTIES_ORIGIN ["COM"]
properties('MP2/aug-cc-pvtz', properties = ['dipole'])
--------------------------------------------------------------------------

    Molecular point group: c1
  Charge       = 0
  Multiplicity = 1
  Basis Set: AUG-CC-PVTZ
    Blend: AUG-CC-PVTZ
  Basis Set: (AUG-CC-PVTZ AUX)
    Blend: AUG-CC-PVTZ-JKFIT

    Orbital Energies [Eh]
    ---------------------

    Doubly Occupied:

       1A    -80.116790     2A    -20.614572     3A    -20.606488
       4A    -20.598720     5A    -20.581777     6A    -20.577560
       7A    -20.576357     8A    -20.573560     9A    -20.573322
      10A    -20.523570    11A    -11.320825    12A    -11.303484
      13A    -11.299179    14A    -11.298691    15A    -11.298468
      16A    -11.296314    17A    -11.292268    18A    -11.229699
      19A     -7.632241    20A     -5.530747    21A     -5.530372
      22A     -5.529177    23A     -1.459858    24A     -1.410980
      25A     -1.397184    26A     -1.391907    27A     -1.386802
      28A     -1.375133    29A     -1.362779    30A     -1.355663
      31A     -1.303941    32A     -1.115475    33A     -1.040237
      34A     -1.009302    35A     -1.003246    36A     -0.881066
      37A     -0.865048    38A     -0.858966    39A     -0.821927
      40A     -0.808556    41A     -0.750735    42A     -0.746050
      43A     -0.732904    44A     -0.728038    45A     -0.707066
      46A     -0.688467    47A     -0.677378    48A     -0.673845
      49A     -0.664189    50A     -0.660569    51A     -0.643037
      52A     -0.635896    53A     -0.627040    54A     -0.614947
      55A     -0.603390    56A     -0.598672    57A     -0.582806
      58A     -0.575300    59A     -0.570863    60A     -0.559017
      61A     -0.558313    62A     -0.548340    63A     -0.541101
      64A     -0.537314    65A     -0.529705    66A     -0.521549
      67A     -0.512879    68A     -0.504024    69A     -0.497390
      70A     -0.483184    71A     -0.479701    72A     -0.476279
      73A     -0.461817    74A     -0.451912    75A     -0.449481
      76A     -0.437303

  @DF-RHF Final Energy: -1327.86047387681560

   => Energetics <=

    Nuclear Repulsion Energy =           1771.7806477066151274
    One-Electron Energy =               -5355.7167426447895195
    Two-Electron Energy =                2256.0756210613585608
    Total Energy =                      -1327.8604738768158313
  Basis Set: (AUG-CC-PVTZ AUX)
    Blend: AUG-CC-PVTZ-RI
    Molecular point group: c1

    Geometry (in Angstrom), charge = 0, multiplicity = 1:

       Center              X                  Y                   Z               Mass
    ------------   -----------------  -----------------  -----------------  -----------------
         P           -2.290667308615    -0.939054775033     0.346107175466    30.973761998420
         O           -0.982724308615    -0.200573775033     0.939718175466    15.994914619570
         O            1.341678691385    -1.674494775033     1.232280175466    15.994914619570
         O            0.078133691385     2.360592224967     0.463597175466    15.994914619570
         O            3.067943691385    -2.186083775033    -0.807160824534    15.994914619570
         O            2.846763691385     2.504101224967     0.372964175466    15.994914619570
         O            4.195116691385     0.436385224967    -0.971444824534    15.994914619570
         O           -2.827434308615     0.034339224967    -0.806101824534    15.994914619570
         O           -3.259692308615    -0.722293775033     1.623100175466    15.994914619570
         O           -2.119564308615    -2.342655775033    -0.098238824534    15.994914619570
         C            0.117590691385     0.030997224967     0.017748175466    12.000000000000
         C            0.947242691385    -1.263372175033    -0.090652624534    12.000000000000
         C            0.898017691385     1.203632224967     0.566280175466    12.000000000000
         C            2.259088691385    -1.013318775033    -0.816607824534    12.000000000000
         C            2.176503691385     1.397460224967    -0.226611824534    12.000000000000
         C            3.044463791385     0.146126624967    -0.226843724534    12.000000000000
         C           -3.124784308615     1.432586224967    -0.487456824534    12.000000000000
         C           -3.536888308615     2.086153224967    -1.782689824534    12.000000000000
         H           -0.283663308615     0.299789224967    -0.968808824534     1.007825032230
         H            0.369697691385    -2.028375775033    -0.570602824534     1.007825032230
         H            1.156548691385     0.998865224967     1.613585175466     1.007825032230
         H            2.060362691385    -0.787671775033    -1.871326824534     1.007825032230
         H            1.916415691385     1.637275224967    -1.272153824534     1.007825032230
         H            3.295283691385    -0.093543775033     0.829075175466     1.007825032230
         H            0.521203691385    -1.887043775033     1.712939175466     1.007825032230
         H            0.664968691385     3.110299224967     0.684613175466     1.007825032230
         H            2.972971691385    -2.546385775033     0.096083175466     1.007825032230
         H            3.720857691385     2.550174224967    -0.057439824534     1.007825032230
         H            4.639155691385    -0.422845775033    -1.095657824534     1.007825032230
         H           -3.808966308615    -1.521349775033     1.736157175466     1.007825032230
         H           -3.931117308615     1.446529224967     0.250815175466     1.007825032230
         H           -2.230333308615     1.893868224967    -0.057666824534     1.007825032230
         H           -3.801092308615     3.131870224967    -1.601241824534     1.007825032230
         H           -2.717767308615     2.054311224967    -2.503445824534     1.007825032230
         H           -4.401515308615     1.575311224967    -2.211294824534     1.007825032230

  Basis Set: AUG-CC-PVTZ
    Blend: AUG-CC-PVTZ
  Basis Set: (AUG-CC-PVTZ AUX)
    Blend: AUG-CC-PVTZ-JKFIT
	 Reference Energy          =   -1327.8604738768156039 [Eh]
	 Singles Energy            =      -0.0000000000000000 [Eh]
	 Same-Spin Energy          =      -1.0143679757478272 [Eh]
	 Opposite-Spin Energy      =      -3.0757658516803161 [Eh]
	 Correlation Energy        =      -4.0901338274281436 [Eh]
	 Total Energy              =   -1331.9506077042437937 [Eh]

	 ================> DF-SCS-MP2 Energies <==================
	-----------------------------------------------------------
	 SCS Same-Spin Scale       =       0.3333333333333333 [-]
	 SCS Opposite-Spin Scale   =       1.2000000000000000 [-]
	 SCS Same-Spin Energy      =      -0.3381226585826090 [Eh]
	 SCS Opposite-Spin Energy  =      -3.6909190220163790 [Eh]
	 SCS Correlation Energy    =      -4.0290416805989882 [Eh]
	 SCS Total Energy          =   -1331.8895155574145974 [Eh]
	-----------------------------------------------------------

  Dipole Moment: [D]
     X:    -1.0429      Y:     1.8671      Z:     0.6463     Total:     2.2341

*** Psi4 exiting successfully. Buy a developer a beer!
