                               Psi4 1.3.2 release

  ==> Input File <==

--------------------------------------------------------------------------
#psi4
#
memory 32 gb

molecule  {
0 1
  P       -2.2900960    -0.9400430     0.3446780
  O       -0.9821530    -0.2015620     0.9382890
  O        1.3422500    -1.6754830     1.2308510
  O        0.0787050     2.3596040     0.4621680
  O        3.0685150    -2.1870720    -0.8085900
  O        2.8473350     2.5031130     0.3715350
  O        4.1956880     0.4353970    -0.9728740
  O       -2.8268630     0.0333510    -0.8075310
  O       -3.2591210    -0.7232820     1.6216710
  O       -2.1189930    -2.3436440    -0.0996680
  C        0.1181620     0.0300090     0.0163190
  C        0.9532920    -1.2442050    -0.0757250
  C        0.8985890     1.2026440     0.5648510
  C        2.2596600    -1.0143070    -0.8180370
  C        2.1770750     1.3964720    -0.2280410
  C        3.1899666     0.1889267    -0.3173049
  C       -3.1242130     1.4315980    -0.4888860
  C       -3.5363170     2.0851650    -1.7841190
  H       -0.2830920     0.2988010    -0.9702380
  H        0.3702690    -2.0293640    -0.5720320
  H        1.1571200     0.9978770     1.6121560
  H        2.0609340    -0.7886600    -1.8727560
  H        1.9169870     1.6362870    -1.2735830
  H        3.2958550    -0.0945320     0.8276460
  H        0.5217750    -1.8880320     1.7115100
  H        0.6655400     3.1093110     0.6831840
  H        2.9735430    -2.5473740     0.0946540
  H        3.7214290     2.5491860    -0.0588690
  H        4.6397270    -0.4238340    -1.0970870
  H       -3.8083950    -1.5223380     1.7347280
  H       -3.9305460     1.4455410     0.2493860
  H       -2.2297620     1.8928800    -0.0590960
  H       -3.8005210     3.1308820    -1.6026710
  H       -2.7171960     2.0533230    -2.5048750
  H       -4.4009440     1.5743230    -2.2127240
units angstrom
no_reorient  #important for SAPT in psi4, default
symmetry c1  #important for SAPT in psi4, default
}

set PROPERTIES_ORIGIN ["COM"]
properties('MP2/aug-cc-pvtz', properties = ['dipole'])
--------------------------------------------------------------------------

    Molecular point group: c1
  Charge       = 0
  Multiplicity = 1
  Basis Set: AUG-CC-PVTZ
    Blend: AUG-CC-PVTZ
  Basis Set: (AUG-CC-PVTZ AUX)
    Blend: AUG-CC-PVTZ-JKFIT

    Orbital Energies [Eh]
    ---------------------

    Doubly Occupied:

       1A    -80.115198     2A    -20.613218     3A    -20.604490
       4A    -20.598209     5A    -20.597423     6A    -20.578967
       7A    -20.572679     8A    -20.572349     9A    -20.569870
      10A    -20.521866    11A    -11.317637    12A    -11.302339
      13A    -11.299301    14A    -11.298140    15A    -11.297285
      16A    -11.293168    17A    -11.292668    18A    -11.228831
      19A     -7.630648    20A     -5.529155    21A     -5.528779
      22A     -5.527583    23A     -1.484510    24A     -1.458311
      25A     -1.404030    26A     -1.389696    27A     -1.385944
      28A     -1.380401    29A     -1.360619    30A     -1.357574
      31A     -1.302254    32A     -1.103776    33A     -1.039088
      34A     -0.996640    35A     -0.994036    36A     -0.882168
      37A     -0.866074    38A     -0.857803    39A     -0.822934
      40A     -0.805355    41A     -0.766788    42A     -0.748575
      43A     -0.735356    44A     -0.727015    45A     -0.708568
      46A     -0.695377    47A     -0.691982    48A     -0.674408
      49A     -0.671917    50A     -0.659830    51A     -0.648823
      52A     -0.641051    53A     -0.625836    54A     -0.614087
      55A     -0.610607    56A     -0.599029    57A     -0.585591
      58A     -0.575059    59A     -0.572069    60A     -0.561248
      61A     -0.557401    62A     -0.548696    63A     -0.540423
      64A     -0.536141    65A     -0.528366    66A     -0.522281
      67A     -0.510711    68A     -0.500606    69A     -0.494351
      70A     -0.482605    71A     -0.478097    72A     -0.474578
      73A     -0.460042    74A     -0.447427    75A     -0.421974
      76A     -0.400723

  @DF-RHF Final Energy: -1327.81600463282393

   => Energetics <=

    Nuclear Repulsion Energy =           1770.6961760014301035
    One-Electron Energy =               -5353.4270476139354287
    Two-Electron Energy =                2254.9148669796813920
    Total Energy =                      -1327.8160046328239332
  Basis Set: (AUG-CC-PVTZ AUX)
    Blend: AUG-CC-PVTZ-RI
    Molecular point group: c1

    Geometry (in Angstrom), charge = 0, multiplicity = 1:

       Center              X                  Y                   Z               Mass
    ------------   -----------------  -----------------  -----------------  -----------------
         P           -2.296933043581    -0.941718531491     0.349134667358    30.973761998420
         O           -0.988990043581    -0.203237531491     0.942745667358    15.994914619570
         O            1.335412956419    -1.677158531491     1.235307667358    15.994914619570
         O            0.071867956419     2.357928468509     0.466624667358    15.994914619570
         O            3.061677956419    -2.188747531491    -0.804133332642    15.994914619570
         O            2.840497956419     2.501437468509     0.375991667358    15.994914619570
         O            4.188850956419     0.433721468509    -0.968417332642    15.994914619570
         O           -2.833700043581     0.031675468509    -0.803074332642    15.994914619570
         O           -3.265958043581    -0.724957531491     1.626127667358    15.994914619570
         O           -2.125830043581    -2.345319531491    -0.095211332642    15.994914619570
         C            0.111324956419     0.028333468509     0.020775667358    12.000000000000
         C            0.946454956419    -1.245880531491    -0.071268332642    12.000000000000
         C            0.891751956419     1.200968468509     0.569307667358    12.000000000000
         C            2.252822956419    -1.015982531491    -0.813580332642    12.000000000000
         C            2.170237956419     1.394796468509    -0.223584332642    12.000000000000
         C            3.183129556419     0.187251168509    -0.312848232642    12.000000000000
         C           -3.131050043581     1.429922468509    -0.484429332642    12.000000000000
         C           -3.543154043581     2.083489468509    -1.779662332642    12.000000000000
         H           -0.289929043581     0.297125468509    -0.965781332642     1.007825032230
         H            0.363431956419    -2.031039531491    -0.567575332642     1.007825032230
         H            1.150282956419     0.996201468509     1.616612667358     1.007825032230
         H            2.054096956419    -0.790335531491    -1.868299332642     1.007825032230
         H            1.910149956419     1.634611468509    -1.269126332642     1.007825032230
         H            3.289017956419    -0.096207531491     0.832102667358     1.007825032230
         H            0.514937956419    -1.889707531491     1.715966667358     1.007825032230
         H            0.658702956419     3.107635468509     0.687640667358     1.007825032230
         H            2.966705956419    -2.549049531491     0.099110667358     1.007825032230
         H            3.714591956419     2.547510468509    -0.054412332642     1.007825032230
         H            4.632889956419    -0.425509531491    -1.092630332642     1.007825032230
         H           -3.815232043581    -1.524013531491     1.739184667358     1.007825032230
         H           -3.937383043581     1.443865468509     0.253842667358     1.007825032230
         H           -2.236599043581     1.891204468509    -0.054639332642     1.007825032230
         H           -3.807358043581     3.129206468509    -1.598214332642     1.007825032230
         H           -2.724033043581     2.051647468509    -2.500418332642     1.007825032230
         H           -4.407781043581     1.572647468509    -2.208267332642     1.007825032230

  Basis Set: AUG-CC-PVTZ
    Blend: AUG-CC-PVTZ
  Basis Set: (AUG-CC-PVTZ AUX)
    Blend: AUG-CC-PVTZ-JKFIT
	 Reference Energy          =   -1327.8160046328239332 [Eh]
	 Singles Energy            =      -0.0000000000000000 [Eh]
	 Same-Spin Energy          =      -1.0151429980582674 [Eh]
	 Opposite-Spin Energy      =      -3.0752257666635958 [Eh]
	 Correlation Energy        =      -4.0903687647218634 [Eh]
	 Total Energy              =   -1331.9063733975458490 [Eh]

	 ================> DF-SCS-MP2 Energies <==================
	-----------------------------------------------------------
	 SCS Same-Spin Scale       =       0.3333333333333333 [-]
	 SCS Opposite-Spin Scale   =       1.2000000000000000 [-]
	 SCS Same-Spin Energy      =      -0.3383809993527558 [Eh]
	 SCS Opposite-Spin Energy  =      -3.6902709199963146 [Eh]
	 SCS Correlation Energy    =      -4.0286519193490706 [Eh]
	 SCS Total Energy          =   -1331.8446565521730918 [Eh]
	-----------------------------------------------------------

  Dipole Moment: [D]
     X:    -0.4236      Y:     2.0007      Z:     0.2936     Total:     2.0660

*** Psi4 exiting successfully. Buy a developer a beer!
