                               Psi4 1.3.2 release

  ==> Input File <==

--------------------------------------------------------------------------
#psi4
#
memory 32 gb

molecule  {
0 1
  P       -2.2900960    -0.9400430     0.3446780
  O       -0.9821530    -0.2015620     0.9382890
  O        1.3422500    -1.6754830     1.2308510
  O        0.0787050     2.3596040     0.4621680
  O        3.0691933    -2.1836321    -0.7340849
  O        2.8473350     2.5031130     0.3715350
  O        4.1956880     0.4353970    -0.9728740
  O       -2.8268630     0.0333510    -0.8075310
  O       -3.2591210    -0.7232820     1.6216710
  O       -2.1189930    -2.3436440    -0.0996680
  C        0.1181620     0.0300090     0.0163190
  C        0.9532920    -1.2442050    -0.0757250
  C        0.8985890     1.2026440     0.5648510
  C        2.2596600    -1.0143070    -0.8180370
  C        2.1770750     1.3964720    -0.2280410
  C        3.0258420     0.1487050    -0.2103220
  C       -3.1242130     1.4315980    -0.4888860
  C       -3.5363170     2.0851650    -1.7841190
  H       -0.2830920     0.2988010    -0.9702380
  H        0.3702690    -2.0293640    -0.5720320
  H        1.1571200     0.9978770     1.6121560
  H        2.0302920    -0.7431975    -1.8556934
  H        1.9169870     1.6362870    -1.2735830
  H        3.2958550    -0.0945320     0.8276460
  H        0.5217750    -1.8880320     1.7115100
  H        0.6655400     3.1093110     0.6831840
  H        2.9735430    -2.5473740     0.0946540
  H        3.7214290     2.5491860    -0.0588690
  H        4.6397270    -0.4238340    -1.0970870
  H       -3.8083950    -1.5223380     1.7347280
  H       -3.9305460     1.4455410     0.2493860
  H       -2.2297620     1.8928800    -0.0590960
  H       -3.8005210     3.1308820    -1.6026710
  H       -2.7171960     2.0533230    -2.5048750
  H       -4.4009440     1.5743230    -2.2127240
units angstrom
no_reorient  #important for SAPT in psi4, default
symmetry c1  #important for SAPT in psi4, default
}

set PROPERTIES_ORIGIN ["COM"]
properties('MP2/aug-cc-pvtz', properties = ['dipole'])
--------------------------------------------------------------------------

    Molecular point group: c1
  Charge       = 0
  Multiplicity = 1
  Basis Set: AUG-CC-PVTZ
    Blend: AUG-CC-PVTZ
  Basis Set: (AUG-CC-PVTZ AUX)
    Blend: AUG-CC-PVTZ-JKFIT

    Orbital Energies [Eh]
    ---------------------

    Doubly Occupied:

       1A    -80.116819     2A    -20.614613     3A    -20.606758
       4A    -20.598888     5A    -20.581665     6A    -20.576622
       7A    -20.574302     8A    -20.573328     9A    -20.567479
      10A    -20.523337    11A    -11.320444    12A    -11.302942
      13A    -11.301606    14A    -11.299357    15A    -11.298395
      16A    -11.296342    17A    -11.290616    18A    -11.229892
      19A     -7.632268    20A     -5.530774    21A     -5.530401
      22A     -5.529200    23A     -1.460128    24A     -1.413808
      25A     -1.396981    26A     -1.394278    27A     -1.386885
      28A     -1.372412    29A     -1.367741    30A     -1.355743
      31A     -1.303733    32A     -1.120246    33A     -1.040476
      34A     -1.012859    35A     -1.005741    36A     -0.880318
      37A     -0.864926    38A     -0.862971    39A     -0.822819
      40A     -0.811043    41A     -0.752388    42A     -0.744643
      43A     -0.731873    44A     -0.728662    45A     -0.710096
      46A     -0.688696    47A     -0.685273    48A     -0.673644
      49A     -0.664934    50A     -0.662032    51A     -0.642885
      52A     -0.635480    53A     -0.627182    54A     -0.615386
      55A     -0.603679    56A     -0.599278    57A     -0.582182
      58A     -0.575706    59A     -0.570579    60A     -0.559443
      61A     -0.557673    62A     -0.548385    63A     -0.541272
      64A     -0.538535    65A     -0.529952    66A     -0.521538
      67A     -0.512576    68A     -0.504081    69A     -0.496682
      70A     -0.483574    71A     -0.479741    72A     -0.476348
      73A     -0.462316    74A     -0.455332    75A     -0.450063
      76A     -0.436017

  @DF-RHF Final Energy: -1327.85978883916459

   => Energetics <=

    Nuclear Repulsion Energy =           1773.5919079572418013
    One-Electron Energy =               -5359.2688354062192957
    Two-Electron Energy =                2257.8171386098129005
    Total Energy =                      -1327.8597888391645938
  Basis Set: (AUG-CC-PVTZ AUX)
    Blend: AUG-CC-PVTZ-RI
    Molecular point group: c1

    Geometry (in Angstrom), charge = 0, multiplicity = 1:

       Center              X                  Y                   Z               Mass
    ------------   -----------------  -----------------  -----------------  -----------------
         P           -2.290026424872    -0.940393044103     0.340481314551    30.973761998420
         O           -0.982083424872    -0.201912044103     0.934092314551    15.994914619570
         O            1.342319575128    -1.675833044103     1.226654314551    15.994914619570
         O            0.078774575128     2.359253955897     0.457971314551    15.994914619570
         O            3.069262875128    -2.183982144103    -0.738281585449    15.994914619570
         O            2.847404575128     2.502762955897     0.367338314551    15.994914619570
         O            4.195757575128     0.435046955897    -0.977070685449    15.994914619570
         O           -2.826793424872     0.033000955897    -0.811727685449    15.994914619570
         O           -3.259051424872    -0.723632044103     1.617474314551    15.994914619570
         O           -2.118923424872    -2.343994044103    -0.103864685449    15.994914619570
         C            0.118231575128     0.029658955897     0.012122314551    12.000000000000
         C            0.953361575128    -1.244555044103    -0.079921685449    12.000000000000
         C            0.898658575128     1.202293955897     0.560654314551    12.000000000000
         C            2.259729575128    -1.014657044103    -0.822233685449    12.000000000000
         C            2.177144575128     1.396121955897    -0.232237685449    12.000000000000
         C            3.025911575128     0.148354955897    -0.214518685449    12.000000000000
         C           -3.124143424872     1.431247955897    -0.493082685449    12.000000000000
         C           -3.536247424872     2.084814955897    -1.788315685449    12.000000000000
         H           -0.283022424872     0.298450955897    -0.974434685449     1.007825032230
         H            0.370338575128    -2.029714044103    -0.576228685449     1.007825032230
         H            1.157189575128     0.997526955897     1.607959314551     1.007825032230
         H            2.030361575128    -0.743547544103    -1.859890085449     1.007825032230
         H            1.917056575128     1.635936955897    -1.277779685449     1.007825032230
         H            3.295924575128    -0.094882044103     0.823449314551     1.007825032230
         H            0.521844575128    -1.888382044103     1.707313314551     1.007825032230
         H            0.665609575128     3.108960955897     0.678987314551     1.007825032230
         H            2.973612575128    -2.547724044103     0.090457314551     1.007825032230
         H            3.721498575128     2.548835955897    -0.063065685449     1.007825032230
         H            4.639796575128    -0.424184044103    -1.101283685449     1.007825032230
         H           -3.808325424872    -1.522688044103     1.730531314551     1.007825032230
         H           -3.930476424872     1.445190955897     0.245189314551     1.007825032230
         H           -2.229692424872     1.892529955897    -0.063292685449     1.007825032230
         H           -3.800451424872     3.130531955897    -1.606867685449     1.007825032230
         H           -2.717126424872     2.052972955897    -2.509071685449     1.007825032230
         H           -4.400874424872     1.573972955897    -2.216920685449     1.007825032230

  Basis Set: AUG-CC-PVTZ
    Blend: AUG-CC-PVTZ
  Basis Set: (AUG-CC-PVTZ AUX)
    Blend: AUG-CC-PVTZ-JKFIT
	 Reference Energy          =   -1327.8597888391645938 [Eh]
	 Singles Energy            =      -0.0000000000000000 [Eh]
	 Same-Spin Energy          =      -1.0136989360985340 [Eh]
	 Opposite-Spin Energy      =      -3.0738650939988923 [Eh]
	 Correlation Energy        =      -4.0875640300974263 [Eh]
	 Total Energy              =   -1331.9473528692619766 [Eh]

	 ================> DF-SCS-MP2 Energies <==================
	-----------------------------------------------------------
	 SCS Same-Spin Scale       =       0.3333333333333333 [-]
	 SCS Opposite-Spin Scale   =       1.2000000000000000 [-]
	 SCS Same-Spin Energy      =      -0.3378996453661780 [Eh]
	 SCS Opposite-Spin Energy  =      -3.6886381127986705 [Eh]
	 SCS Correlation Energy    =      -4.0265377581648485 [Eh]
	 SCS Total Energy          =   -1331.8863265973293437 [Eh]
	-----------------------------------------------------------

  Dipole Moment: [D]
     X:    -1.1205      Y:     1.8651      Z:     0.6146     Total:     2.2609

*** Psi4 exiting successfully. Buy a developer a beer!
