                               Psi4 1.3.2 release

  ==> Input File <==

--------------------------------------------------------------------------
#psi4
#
memory 32 gb

molecule  {
0 1
  P       -2.2900960    -0.9400430     0.3446780
  O       -0.9821530    -0.2015620     0.9382890
  O        1.3422500    -1.6754830     1.2308510
  O        0.0787050     2.3596040     0.4621680
  O        3.0685150    -2.1870720    -0.8085900
  O        2.8473350     2.5031130     0.3715350
  O        4.1956880     0.4353970    -0.9728740
  O       -2.8268630     0.0333510    -0.8075310
  O       -3.2591210    -0.7232820     1.6216710
  O       -2.1189930    -2.3436440    -0.0996680
  C        0.1181620     0.0300090     0.0163190
  C        0.9532920    -1.2442050    -0.0757250
  C        0.8985890     1.2026440     0.5648510
  C        2.2596600    -1.0143070    -0.8180370
  C        2.1831610     1.3992283    -0.1493122
  C        3.0258420     0.1487050    -0.2103220
  C       -3.1242130     1.4315980    -0.4888860
  C       -3.5363170     2.0851650    -1.7841190
  H       -0.2830920     0.2988010    -0.9702380
  H        0.3702690    -2.0293640    -0.5720320
  H        1.1571200     0.9978770     1.6121560
  H        2.0609340    -0.7886600    -1.8727560
  H        1.9169870     1.6362870    -1.2735830
  H        3.2661426    -0.0482310     0.8446285
  H        0.5217750    -1.8880320     1.7115100
  H        0.6655400     3.1093110     0.6831840
  H        2.9735430    -2.5473740     0.0946540
  H        3.7214290     2.5491860    -0.0588690
  H        4.6397270    -0.4238340    -1.0970870
  H       -3.8083950    -1.5223380     1.7347280
  H       -3.9305460     1.4455410     0.2493860
  H       -2.2297620     1.8928800    -0.0590960
  H       -3.8005210     3.1308820    -1.6026710
  H       -2.7171960     2.0533230    -2.5048750
  H       -4.4009440     1.5743230    -2.2127240
units angstrom
no_reorient  #important for SAPT in psi4, default
symmetry c1  #important for SAPT in psi4, default
}

set PROPERTIES_ORIGIN ["COM"]
properties('MP2/aug-cc-pvtz', properties = ['dipole'])
--------------------------------------------------------------------------

    Molecular point group: c1
  Charge       = 0
  Multiplicity = 1
  Basis Set: AUG-CC-PVTZ
    Blend: AUG-CC-PVTZ
  Basis Set: (AUG-CC-PVTZ AUX)
    Blend: AUG-CC-PVTZ-JKFIT

    Orbital Energies [Eh]
    ---------------------

    Doubly Occupied:

       1A    -80.117153     2A    -20.614881     3A    -20.607553
       4A    -20.598935     5A    -20.583089     6A    -20.580767
       7A    -20.575973     8A    -20.574589     9A    -20.574353
      10A    -20.523534    11A    -11.321944    12A    -11.303597
      13A    -11.300118    14A    -11.299975    15A    -11.299325
      16A    -11.297712    17A    -11.291794    18A    -11.229638
      19A     -7.632595    20A     -5.531100    21A     -5.530733
      22A     -5.529524    23A     -1.460528    24A     -1.413785
      25A     -1.401219    26A     -1.393756    27A     -1.386922
      28A     -1.373597    29A     -1.367649    30A     -1.356514
      31A     -1.303929    32A     -1.120707    33A     -1.040326
      34A     -1.012000    35A     -1.007028    36A     -0.882915
      37A     -0.865656    38A     -0.859078    39A     -0.823464
      40A     -0.807112    41A     -0.751975    42A     -0.745733
      43A     -0.731037    44A     -0.728768    45A     -0.712394
      46A     -0.686513    47A     -0.678297    48A     -0.673901
      49A     -0.668138    50A     -0.663492    51A     -0.647246
      52A     -0.635946    53A     -0.626908    54A     -0.615014
      55A     -0.605677    56A     -0.597821    57A     -0.581587
      58A     -0.575698    59A     -0.571685    60A     -0.560029
      61A     -0.557295    62A     -0.549102    63A     -0.541013
      64A     -0.536305    65A     -0.529986    66A     -0.524748
      67A     -0.512043    68A     -0.504740    69A     -0.498209
      70A     -0.486138    71A     -0.479915    72A     -0.476777
      73A     -0.462614    74A     -0.451222    75A     -0.439768
      76A     -0.436928

  @DF-RHF Final Energy: -1327.85429879988556

   => Energetics <=

    Nuclear Repulsion Energy =           1773.0805047518149422
    One-Electron Energy =               -5358.1901480071555852
    Two-Electron Energy =                2257.2553444554546331
    Total Energy =                      -1327.8542987998857825
  Basis Set: (AUG-CC-PVTZ AUX)
    Blend: AUG-CC-PVTZ-RI
    Molecular point group: c1

    Geometry (in Angstrom), charge = 0, multiplicity = 1:

       Center              X                  Y                   Z               Mass
    ------------   -----------------  -----------------  -----------------  -----------------
         P           -2.290245543459    -0.940319794881     0.341338903129    30.973761998420
         O           -0.982302543459    -0.201838794881     0.934949903129    15.994914619570
         O            1.342100456541    -1.675759794881     1.227511903129    15.994914619570
         O            0.078555456541     2.359327205119     0.458828903129    15.994914619570
         O            3.068365456541    -2.187348794881    -0.811929096871    15.994914619570
         O            2.847185456541     2.502836205119     0.368195903129    15.994914619570
         O            4.195538456541     0.435120205119    -0.976213096871    15.994914619570
         O           -2.827012543459     0.033074205119    -0.810870096871    15.994914619570
         O           -3.259270543459    -0.723558794881     1.618331903129    15.994914619570
         O           -2.119142543459    -2.343920794881    -0.103007096871    15.994914619570
         C            0.118012456541     0.029732205119     0.012979903129    12.000000000000
         C            0.953142456541    -1.244481794881    -0.079064096871    12.000000000000
         C            0.898439456541     1.202367205119     0.561511903129    12.000000000000
         C            2.259510456541    -1.014583794881    -0.821376096871    12.000000000000
         C            2.183011456541     1.398951505119    -0.152651296871    12.000000000000
         C            3.025692456541     0.148428205119    -0.213661096871    12.000000000000
         C           -3.124362543459     1.431321205119    -0.492225096871    12.000000000000
         C           -3.536466543459     2.084888205119    -1.787458096871    12.000000000000
         H           -0.283241543459     0.298524205119    -0.973577096871     1.007825032230
         H            0.370119456541    -2.029640794881    -0.575371096871     1.007825032230
         H            1.156970456541     0.997600205119     1.608816903129     1.007825032230
         H            2.060784456541    -0.788936794881    -1.876095096871     1.007825032230
         H            1.916837456541     1.636010205119    -1.276922096871     1.007825032230
         H            3.265993056541    -0.048507794881     0.841289403129     1.007825032230
         H            0.521625456541    -1.888308794881     1.708170903129     1.007825032230
         H            0.665390456541     3.109034205119     0.679844903129     1.007825032230
         H            2.973393456541    -2.547650794881     0.091314903129     1.007825032230
         H            3.721279456541     2.548909205119    -0.062208096871     1.007825032230
         H            4.639577456541    -0.424110794881    -1.100426096871     1.007825032230
         H           -3.808544543459    -1.522614794881     1.731388903129     1.007825032230
         H           -3.930695543459     1.445264205119     0.246046903129     1.007825032230
         H           -2.229911543459     1.892603205119    -0.062435096871     1.007825032230
         H           -3.800670543459     3.130605205119    -1.606010096871     1.007825032230
         H           -2.717345543459     2.053046205119    -2.508214096871     1.007825032230
         H           -4.401093543459     1.574046205119    -2.216063096871     1.007825032230

  Basis Set: AUG-CC-PVTZ
    Blend: AUG-CC-PVTZ
  Basis Set: (AUG-CC-PVTZ AUX)
    Blend: AUG-CC-PVTZ-JKFIT
	 Reference Energy          =   -1327.8542987998855551 [Eh]
	 Singles Energy            =      -0.0000000000000000 [Eh]
	 Same-Spin Energy          =      -1.0149833896631777 [Eh]
	 Opposite-Spin Energy      =      -3.0761160535247392 [Eh]
	 Correlation Energy        =      -4.0910994431879164 [Eh]
	 Total Energy              =   -1331.9453982430734413 [Eh]

	 ================> DF-SCS-MP2 Energies <==================
	-----------------------------------------------------------
	 SCS Same-Spin Scale       =       0.3333333333333333 [-]
	 SCS Opposite-Spin Scale   =       1.2000000000000000 [-]
	 SCS Same-Spin Energy      =      -0.3383277965543925 [Eh]
	 SCS Opposite-Spin Energy  =      -3.6913392642296867 [Eh]
	 SCS Correlation Energy    =      -4.0296670607840790 [Eh]
	 SCS Total Energy          =   -1331.8839658606696048 [Eh]
	-----------------------------------------------------------

  Dipole Moment: [D]
     X:    -1.0511      Y:     1.9159      Z:     0.8421     Total:     2.3419

*** Psi4 exiting successfully. Buy a developer a beer!
