                               Psi4 1.4a3.dev225

  ==> Input File <==

--------------------------------------------------------------------------
#psi4
#
memory 32 gb

molecule  {
0 1
  P       -2.3219140    -1.0563120    -0.0968450
  O       -1.0285840    -0.5623410     0.7549430
  O        1.3695440    -1.8069540     1.2202350
  O       -0.1592450     2.1412630     0.5207450
  O        3.3269040    -2.0858120    -0.6453880
  O        2.5724350     2.5270130     0.6374560
  O        4.2203020     0.6406430    -0.6358120
  O       -2.8737010     0.2643620    -0.8096810
  O       -3.3065970    -1.3497020     1.1531960
  O       -2.1044560    -2.1814480    -1.0350500
  C        0.1200290    -0.1583450    -0.0432010
  C        1.0698050    -1.3527180    -0.1046720
  C        0.7441670     1.0454510     0.6308160
  C        2.4193320    -0.9866070    -0.7068450
  C        2.0603010     1.3853380    -0.0470020
  C        3.0054103     0.2336482     0.0049737
  C       -3.2473180     1.4231610     0.0025120
  C       -3.2076300     2.6262440    -0.9075720
  H       -0.2047330     0.1313700    -1.0514980
  H        0.5965010    -2.1549610    -0.6866410
  H        0.9371260     0.8063110     1.6860210
  H        2.3054700    -0.7437210    -1.7704410
  H        1.8633300     1.6367370    -1.1028410
  H        3.2142070    -0.0417910     1.0561650
  H        0.5126160    -2.0057500     1.6426110
  H        0.3598300     2.9232990     0.7925780
  H        3.1793900    -2.4823080     0.2360710
  H        3.4672560     2.6739710     0.2770410
  H        4.7639490    -0.1654590    -0.7244900
  H       -3.7873380    -2.1826420     0.9908450
  H       -4.2474700     1.2335250     0.4005830
  H       -2.5352900     1.5309660     0.8217280
  H       -3.5402110     3.5125760    -0.3587690
  H       -2.1856630     2.7912820    -1.2511950
  H       -3.8637180     2.4807570    -1.7684970
units angstrom
no_reorient  #important for SAPT in psi4, default
symmetry c1  #important for SAPT in psi4, default
}

set PROPERTIES_ORIGIN ["COM"]
properties('MP2/aug-cc-pvtz', properties = ['dipole'])
--------------------------------------------------------------------------

    Molecular point group: c1
  Charge       = 0
  Multiplicity = 1
  Basis Set: AUG-CC-PVTZ
    Blend: AUG-CC-PVTZ
  Basis Set: (AUG-CC-PVTZ AUX)
    Blend: AUG-CC-PVTZ-JKFIT

    Orbital Energies [Eh]
    ---------------------

    Doubly Occupied:

       1A    -80.116935     2A    -20.615097     3A    -20.608255
       4A    -20.596141     5A    -20.584079     6A    -20.578790
       7A    -20.575893     8A    -20.575060     9A    -20.574164
      10A    -20.522616    11A    -11.321632    12A    -11.305096
      13A    -11.301209    14A    -11.300893    15A    -11.298207
      16A    -11.296275    17A    -11.293391    18A    -11.223019
      19A     -7.632198    20A     -5.530732    21A     -5.530230
      22A     -5.529168    23A     -1.458625    24A     -1.410878
      25A     -1.395551    26A     -1.392526    27A     -1.385227
      28A     -1.371924    29A     -1.364565    30A     -1.353472
      31A     -1.302801    32A     -1.120261    33A     -1.035664
      34A     -1.013081    35A     -1.003879    36A     -0.877411
      37A     -0.862419    38A     -0.860710    39A     -0.822779
      40A     -0.810159    41A     -0.754747    42A     -0.745958
      43A     -0.729198    44A     -0.726273    45A     -0.706008
      46A     -0.686686    47A     -0.679241    48A     -0.674408
      49A     -0.662686    50A     -0.659513    51A     -0.642374
      52A     -0.637821    53A     -0.623940    54A     -0.613327
      55A     -0.604443    56A     -0.596352    57A     -0.580763
      58A     -0.577464    59A     -0.570319    60A     -0.560006
      61A     -0.554873    62A     -0.548040    63A     -0.538910
      64A     -0.537897    65A     -0.529833    66A     -0.517622
      67A     -0.508886    68A     -0.503211    69A     -0.494951
      70A     -0.487481    71A     -0.478813    72A     -0.475592
      73A     -0.463035    74A     -0.460018    75A     -0.451243
      76A     -0.435472

  @DF-RHF Final Energy: -1327.86033612356505

   => Energetics <=

    Nuclear Repulsion Energy =           1774.8121683313820540
    One-Electron Energy =               -5361.8081880650925086
    Two-Electron Energy =                2259.1356836101454064
    Total Energy =                      -1327.8603361235650482
  Basis Set: (AUG-CC-PVTZ AUX)
    Blend: AUG-CC-PVTZ-RI
    Molecular point group: c1

    Geometry (in Angstrom), charge = 0, multiplicity = 1:

       Center              X                  Y                   Z               Mass
    ------------   -----------------  -----------------  -----------------  -----------------
         P           -2.310624408159    -1.019176604772    -0.099260429636    30.973761998420
         O           -1.017294408159    -0.525205604772     0.752527570364    15.994914619570
         O            1.380833591841    -1.769818604772     1.217819570364    15.994914619570
         O           -0.147955408159     2.178398395228     0.518329570364    15.994914619570
         O            3.338193591841    -2.048676604772    -0.647803429636    15.994914619570
         O            2.583724591841     2.564148395228     0.635040570364    15.994914619570
         O            4.231591591841     0.677778395228    -0.638227429636    15.994914619570
         O           -2.862411408159     0.301497395228    -0.812096429636    15.994914619570
         O           -3.295307408159    -1.312566604772     1.150780570364    15.994914619570
         O           -2.093166408159    -2.144312604772    -1.037465429636    15.994914619570
         C            0.131318591841    -0.121209604772    -0.045616429636    12.000000000000
         C            1.081094591841    -1.315582604772    -0.107087429636    12.000000000000
         C            0.755456591841     1.082586395228     0.628400570364    12.000000000000
         C            2.430621591841    -0.949471604772    -0.709260429636    12.000000000000
         C            2.071590591841     1.422473395228    -0.049417429636    12.000000000000
         C            3.016699891841     0.270783595228     0.002558270364    12.000000000000
         C           -3.236028408159     1.460296395228     0.000096570364    12.000000000000
         C           -3.196340408159     2.663379395228    -0.909987429636    12.000000000000
         H           -0.193443408159     0.168505395228    -1.053913429636     1.007825032230
         H            0.607790591841    -2.117825604772    -0.689056429636     1.007825032230
         H            0.948415591841     0.843446395228     1.683605570364     1.007825032230
         H            2.316759591841    -0.706585604772    -1.772856429636     1.007825032230
         H            1.874619591841     1.673872395228    -1.105256429636     1.007825032230
         H            3.225496591841    -0.004655604772     1.053749570364     1.007825032230
         H            0.523905591841    -1.968614604772     1.640195570364     1.007825032230
         H            0.371119591841     2.960434395228     0.790162570364     1.007825032230
         H            3.190679591841    -2.445172604772     0.233655570364     1.007825032230
         H            3.478545591841     2.711106395228     0.274625570364     1.007825032230
         H            4.775238591841    -0.128323604772    -0.726905429636     1.007825032230
         H           -3.776048408159    -2.145506604772     0.988429570364     1.007825032230
         H           -4.236180408159     1.270660395228     0.398167570364     1.007825032230
         H           -2.524000408159     1.568101395228     0.819312570364     1.007825032230
         H           -3.528921408159     3.549711395228    -0.361184429636     1.007825032230
         H           -2.174373408159     2.828417395228    -1.253610429636     1.007825032230
         H           -3.852428408159     2.517892395228    -1.770912429636     1.007825032230

  Basis Set: AUG-CC-PVTZ
    Blend: AUG-CC-PVTZ
  Basis Set: (AUG-CC-PVTZ AUX)
    Blend: AUG-CC-PVTZ-JKFIT
	 Reference Energy          =   -1327.8603361235650482 [Eh]
	 Singles Energy            =      -0.0000000000000000 [Eh]
	 Same-Spin Energy          =      -1.0148131058110044 [Eh]
	 Opposite-Spin Energy      =      -3.0767125283576160 [Eh]
	 Correlation Energy        =      -4.0915256341686206 [Eh]
	 Total Energy              =   -1331.9518617577336954 [Eh]

	 ================> DF-SCS-MP2 Energies <==================
	-----------------------------------------------------------
	 SCS Same-Spin Scale       =       0.3333333333333333 [-]
	 SCS Opposite-Spin Scale   =       1.2000000000000000 [-]
	 SCS Same-Spin Energy      =      -0.3382710352703348 [Eh]
	 SCS Opposite-Spin Energy  =      -3.6920550340291389 [Eh]
	 SCS Correlation Energy    =      -4.0303260692994733 [Eh]
	 SCS Total Energy          =   -1331.8906621928645109 [Eh]
	-----------------------------------------------------------

  Dipole Moment: [D]
     X:    -0.8954      Y:     1.4180      Z:     1.8827     Total:     2.5213

*** Psi4 exiting successfully. Buy a developer a beer!
