                               Psi4 1.3.2 release

  ==> Input File <==

--------------------------------------------------------------------------
#psi4
#
memory 32 gb

molecule  {
0 1
  P       -2.2900960    -0.9400430     0.3446780
  O       -0.9526820    -0.2487968     0.9294391
  O        1.3422500    -1.6754830     1.2308510
  O        0.0787050     2.3596040     0.4621680
  O        3.0685150    -2.1870720    -0.8085900
  O        2.8473350     2.5031130     0.3715350
  O        4.1956880     0.4353970    -0.9728740
  O       -2.8268630     0.0333510    -0.8075310
  O       -3.2591210    -0.7232820     1.6216710
  O       -2.0691902    -2.3409719    -0.0859194
  C        0.1181620     0.0300090     0.0163190
  C        0.9532920    -1.2442050    -0.0757250
  C        0.8985890     1.2026440     0.5648510
  C        2.2596600    -1.0143070    -0.8180370
  C        2.1770750     1.3964720    -0.2280410
  C        3.0258420     0.1487050    -0.2103220
  C       -3.1242130     1.4315980    -0.4888860
  C       -3.5363170     2.0851650    -1.7841190
  H       -0.2830920     0.2988010    -0.9702380
  H        0.3702690    -2.0293640    -0.5720320
  H        1.1571200     0.9978770     1.6121560
  H        2.0609340    -0.7886600    -1.8727560
  H        1.9169870     1.6362870    -1.2735830
  H        3.2958550    -0.0945320     0.8276460
  H        0.5217750    -1.8880320     1.7115100
  H        0.6655400     3.1093110     0.6831840
  H        2.9735430    -2.5473740     0.0946540
  H        3.7214290     2.5491860    -0.0588690
  H        4.6397270    -0.4238340    -1.0970870
  H       -3.8083950    -1.5223380     1.7347280
  H       -3.9305460     1.4455410     0.2493860
  H       -2.2297620     1.8928800    -0.0590960
  H       -3.8005210     3.1308820    -1.6026710
  H       -2.7171960     2.0533230    -2.5048750
  H       -4.4009440     1.5743230    -2.2127240
units angstrom
no_reorient  #important for SAPT in psi4, default
symmetry c1  #important for SAPT in psi4, default
}

set PROPERTIES_ORIGIN ["COM"]
properties('MP2/aug-cc-pvtz', properties = ['dipole'])
--------------------------------------------------------------------------

    Molecular point group: c1
  Charge       = 0
  Multiplicity = 1
  Basis Set: AUG-CC-PVTZ
    Blend: AUG-CC-PVTZ
  Basis Set: (AUG-CC-PVTZ AUX)
    Blend: AUG-CC-PVTZ-JKFIT

    Orbital Energies [Eh]
    ---------------------

    Doubly Occupied:

       1A    -80.118669     2A    -20.618546     3A    -20.603938
       4A    -20.602937     5A    -20.579941     6A    -20.575867
       7A    -20.573092     8A    -20.572665     9A    -20.572213
      10A    -20.521483    11A    -11.317497    12A    -11.301938
      13A    -11.299300    14A    -11.297247    15A    -11.296454
      16A    -11.295520    17A    -11.289744    18A    -11.231530
      19A     -7.634011    20A     -5.532470    21A     -5.532191
      22A     -5.530929    23A     -1.462605    24A     -1.411239
      25A     -1.395801    26A     -1.391739    27A     -1.389887
      28A     -1.372103    29A     -1.362363    30A     -1.352361
      31A     -1.302919    32A     -1.116796    33A     -1.042592
      34A     -1.010403    35A     -1.001317    36A     -0.880620
      37A     -0.866285    38A     -0.857927    39A     -0.823722
      40A     -0.808970    41A     -0.751046    42A     -0.745303
      43A     -0.731829    44A     -0.731171    45A     -0.708271
      46A     -0.687074    47A     -0.676347    48A     -0.674524
      49A     -0.662522    50A     -0.660328    51A     -0.642763
      52A     -0.635020    53A     -0.627350    54A     -0.615419
      55A     -0.604328    56A     -0.596717    57A     -0.581132
      58A     -0.577510    59A     -0.570848    60A     -0.558907
      61A     -0.554890    62A     -0.549163    63A     -0.541974
      64A     -0.535030    65A     -0.530750    66A     -0.520399
      67A     -0.513509    68A     -0.502914    69A     -0.497107
      70A     -0.483429    71A     -0.480343    72A     -0.476181
      73A     -0.459833    74A     -0.454698    75A     -0.446931
      76A     -0.433953

  @DF-RHF Final Energy: -1327.86116910325313

   => Energetics <=

    Nuclear Repulsion Energy =           1773.6561373156921491
    One-Electron Energy =               -5359.4999300932249753
    Two-Electron Energy =                2257.9826236742796937
    Total Energy =                      -1327.8611691032533599
  Basis Set: (AUG-CC-PVTZ AUX)
    Blend: AUG-CC-PVTZ-RI
    Molecular point group: c1

    Geometry (in Angstrom), charge = 0, multiplicity = 1:

       Center              X                  Y                   Z               Mass
    ------------   -----------------  -----------------  -----------------  -----------------
         P           -2.294497734772    -0.937568587894     0.344405984899    30.973761998420
         O           -0.957083734772    -0.246322387894     0.929167084899    15.994914619570
         O            1.337848265228    -1.673008587894     1.230578984899    15.994914619570
         O            0.074303265228     2.362078412106     0.461895984899    15.994914619570
         O            3.064113265228    -2.184597587894    -0.808862015101    15.994914619570
         O            2.842933265228     2.505587412106     0.371262984899    15.994914619570
         O            4.191286265228     0.437871412106    -0.973146015101    15.994914619570
         O           -2.831264734772     0.035825412106    -0.807803015101    15.994914619570
         O           -3.263522734772    -0.720807587894     1.621398984899    15.994914619570
         O           -2.073591934772    -2.338497487894    -0.086191415101    15.994914619570
         C            0.113760265228     0.032483412106     0.016046984899    12.000000000000
         C            0.948890265228    -1.241730587894    -0.075997015101    12.000000000000
         C            0.894187265228     1.205118412106     0.564578984899    12.000000000000
         C            2.255258265228    -1.011832587894    -0.818309015101    12.000000000000
         C            2.172673265228     1.398946412106    -0.228313015101    12.000000000000
         C            3.021440265228     0.151179412106    -0.210594015101    12.000000000000
         C           -3.128614734772     1.434072412106    -0.489158015101    12.000000000000
         C           -3.540718734772     2.087639412106    -1.784391015101    12.000000000000
         H           -0.287493734772     0.301275412106    -0.970510015101     1.007825032230
         H            0.365867265228    -2.026889587894    -0.572304015101     1.007825032230
         H            1.152718265228     1.000351412106     1.611883984899     1.007825032230
         H            2.056532265228    -0.786185587894    -1.873028015101     1.007825032230
         H            1.912585265228     1.638761412106    -1.273855015101     1.007825032230
         H            3.291453265228    -0.092057587894     0.827373984899     1.007825032230
         H            0.517373265228    -1.885557587894     1.711237984899     1.007825032230
         H            0.661138265228     3.111785412106     0.682911984899     1.007825032230
         H            2.969141265228    -2.544899587894     0.094381984899     1.007825032230
         H            3.717027265228     2.551660412106    -0.059141015101     1.007825032230
         H            4.635325265228    -0.421359587894    -1.097359015101     1.007825032230
         H           -3.812796734772    -1.519863587894     1.734455984899     1.007825032230
         H           -3.934947734772     1.448015412106     0.249113984899     1.007825032230
         H           -2.234163734772     1.895354412106    -0.059368015101     1.007825032230
         H           -3.804922734772     3.133356412106    -1.602943015101     1.007825032230
         H           -2.721597734772     2.055797412106    -2.505147015101     1.007825032230
         H           -4.405345734772     1.576797412106    -2.212996015101     1.007825032230

  Basis Set: AUG-CC-PVTZ
    Blend: AUG-CC-PVTZ
  Basis Set: (AUG-CC-PVTZ AUX)
    Blend: AUG-CC-PVTZ-JKFIT
	 Reference Energy          =   -1327.8611691032531326 [Eh]
	 Singles Energy            =      -0.0000000000000000 [Eh]
	 Same-Spin Energy          =      -1.0145018162754826 [Eh]
	 Opposite-Spin Energy      =      -3.0755142218368321 [Eh]
	 Correlation Energy        =      -4.0900160381123145 [Eh]
	 Total Energy              =   -1331.9511851413653858 [Eh]

	 ================> DF-SCS-MP2 Energies <==================
	-----------------------------------------------------------
	 SCS Same-Spin Scale       =       0.3333333333333333 [-]
	 SCS Opposite-Spin Scale   =       1.2000000000000000 [-]
	 SCS Same-Spin Energy      =      -0.3381672720918275 [Eh]
	 SCS Opposite-Spin Energy  =      -3.6906170662041982 [Eh]
	 SCS Correlation Energy    =      -4.0287843382960258 [Eh]
	 SCS Total Energy          =   -1331.8899534415490962 [Eh]
	-----------------------------------------------------------

  Dipole Moment: [D]
     X:    -1.4812      Y:     1.9651      Z:     0.7162     Total:     2.5629

*** Psi4 exiting successfully. Buy a developer a beer!
