                               Psi4 1.3.2 release

  ==> Input File <==

--------------------------------------------------------------------------
#psi4
#
memory 32 gb

molecule  {
0 1
  P       -2.2900960    -0.9400430     0.3446780
  O       -0.9821530    -0.2015620     0.9382890
  O        1.3422500    -1.6754830     1.2308510
  O        0.0787050     2.3596040     0.4621680
  O        3.0685150    -2.1870720    -0.8085900
  O        2.8473350     2.5031130     0.3715350
  O        4.1956880     0.4353970    -0.9728740
  O       -2.8268630     0.0333510    -0.8075310
  O       -3.2591210    -0.7232820     1.6216710
  O       -2.1189930    -2.3436440    -0.0996680
  C        0.1181620     0.0300090     0.0163190
  C        0.9532920    -1.2442050    -0.0757250
  C        0.8985890     1.2026440     0.5648510
  C        2.2596600    -1.0143070    -0.8180370
  C        2.1770750     1.3964720    -0.2280410
  C        3.0258420     0.1487050    -0.2103220
  C       -3.1039105     1.3361283    -0.5106425
  C       -3.5363170     2.0851650    -1.7841190
  H       -0.2830920     0.2988010    -0.9702380
  H        0.3702690    -2.0293640    -0.5720320
  H        1.1571200     0.9978770     1.6121560
  H        2.0609340    -0.7886600    -1.8727560
  H        1.9169870     1.6362870    -1.2735830
  H        3.2958550    -0.0945320     0.8276460
  H        0.5217750    -1.8880320     1.7115100
  H        0.6655400     3.1093110     0.6831840
  H        2.9735430    -2.5473740     0.0946540
  H        3.7214290     2.5491860    -0.0588690
  H        4.6397270    -0.4238340    -1.0970870
  H       -3.8083950    -1.5223380     1.7347280
  H       -3.9305460     1.4455410     0.2493860
  H       -2.2297620     1.8928800    -0.0590960
  H       -3.8005210     3.1308820    -1.6026710
  H       -2.7171960     2.0533230    -2.5048750
  H       -4.4009440     1.5743230    -2.2127240
units angstrom
no_reorient  #important for SAPT in psi4, default
symmetry c1  #important for SAPT in psi4, default
}

set PROPERTIES_ORIGIN ["COM"]
properties('MP2/aug-cc-pvtz', properties = ['dipole'])
--------------------------------------------------------------------------

    Molecular point group: c1
  Charge       = 0
  Multiplicity = 1
  Basis Set: AUG-CC-PVTZ
    Blend: AUG-CC-PVTZ
  Basis Set: (AUG-CC-PVTZ AUX)
    Blend: AUG-CC-PVTZ-JKFIT

    Orbital Energies [Eh]
    ---------------------

    Doubly Occupied:

       1A    -80.124156     2A    -20.618657     3A    -20.610835
       4A    -20.610473     5A    -20.584714     6A    -20.577143
       7A    -20.575639     8A    -20.574724     9A    -20.572878
      10A    -20.528766    11A    -11.322843    12A    -11.305242
      13A    -11.300488    14A    -11.299304    15A    -11.297232
      16A    -11.296897    17A    -11.292176    18A    -11.226158
      19A     -7.639611    20A     -5.538045    21A     -5.537791
      22A     -5.536538    23A     -1.474579    24A     -1.418798
      25A     -1.406906    26A     -1.396434    27A     -1.393907
      28A     -1.374592    29A     -1.364491    30A     -1.354524
      31A     -1.309904    32A     -1.120296    33A     -1.029664
      34A     -1.012932    35A     -1.004436    36A     -0.885442
      37A     -0.867184    38A     -0.860109    39A     -0.825152
      40A     -0.812116    41A     -0.753181    42A     -0.749102
      43A     -0.740201    44A     -0.733706    45A     -0.709948
      46A     -0.689301    47A     -0.680642    48A     -0.677287
      49A     -0.662920    50A     -0.661129    51A     -0.646348
      52A     -0.638665    53A     -0.635999    54A     -0.621365
      55A     -0.604191    56A     -0.599286    57A     -0.585309
      58A     -0.578603    59A     -0.571577    60A     -0.561174
      61A     -0.557784    62A     -0.549947    63A     -0.544716
      64A     -0.537575    65A     -0.531953    66A     -0.522093
      67A     -0.507454    68A     -0.500551    69A     -0.493347
      70A     -0.483625    71A     -0.481031    72A     -0.464423
      73A     -0.461685    74A     -0.456213    75A     -0.451323
      76A     -0.437446

  @DF-RHF Final Energy: -1327.85402670831809

   => Energetics <=

    Nuclear Repulsion Energy =           1774.6170545402364951
    One-Electron Energy =               -5361.0164089098943805
    Two-Electron Energy =                2258.5453276613397975
    Total Energy =                      -1327.8540267083180879
  Basis Set: (AUG-CC-PVTZ AUX)
    Blend: AUG-CC-PVTZ-RI
    Molecular point group: c1

    Geometry (in Angstrom), charge = 0, multiplicity = 1:

       Center              X                  Y                   Z               Mass
    ------------   -----------------  -----------------  -----------------  -----------------
         P           -2.290941725473    -0.936065920787     0.345584319577    30.973761998420
         O           -0.982998725473    -0.197584920787     0.939195319577    15.994914619570
         O            1.341404274527    -1.671505920787     1.231757319577    15.994914619570
         O            0.077859274527     2.363581079213     0.463074319577    15.994914619570
         O            3.067669274527    -2.183094920787    -0.807683680423    15.994914619570
         O            2.846489274527     2.507090079213     0.372441319577    15.994914619570
         O            4.194842274527     0.439374079213    -0.971967680423    15.994914619570
         O           -2.827708725473     0.037328079213    -0.806624680423    15.994914619570
         O           -3.259966725473    -0.719304920787     1.622577319577    15.994914619570
         O           -2.119838725473    -2.339666920787    -0.098761680423    15.994914619570
         C            0.117316274527     0.033986079213     0.017225319577    12.000000000000
         C            0.952446274527    -1.240227920787    -0.074818680423    12.000000000000
         C            0.897743274527     1.206621079213     0.565757319577    12.000000000000
         C            2.258814274527    -1.010329920787    -0.817130680423    12.000000000000
         C            2.176229274527     1.400449079213    -0.227134680423    12.000000000000
         C            3.024996274527     0.152682079213    -0.209415680423    12.000000000000
         C           -3.104756225473     1.340105379213    -0.509736180423    12.000000000000
         C           -3.537162725473     2.089142079213    -1.783212680423    12.000000000000
         H           -0.283937725473     0.302778079213    -0.969331680423     1.007825032230
         H            0.369423274527    -2.025386920787    -0.571125680423     1.007825032230
         H            1.156274274527     1.001854079213     1.613062319577     1.007825032230
         H            2.060088274527    -0.784682920787    -1.871849680423     1.007825032230
         H            1.916141274527     1.640264079213    -1.272676680423     1.007825032230
         H            3.295009274527    -0.090554920787     0.828552319577     1.007825032230
         H            0.520929274527    -1.884054920787     1.712416319577     1.007825032230
         H            0.664694274527     3.113288079213     0.684090319577     1.007825032230
         H            2.972697274527    -2.543396920787     0.095560319577     1.007825032230
         H            3.720583274527     2.553163079213    -0.057962680423     1.007825032230
         H            4.638881274527    -0.419856920787    -1.096180680423     1.007825032230
         H           -3.809240725473    -1.518360920787     1.735634319577     1.007825032230
         H           -3.931391725473     1.449518079213     0.250292319577     1.007825032230
         H           -2.230607725473     1.896857079213    -0.058189680423     1.007825032230
         H           -3.801366725473     3.134859079213    -1.601764680423     1.007825032230
         H           -2.718041725473     2.057300079213    -2.503968680423     1.007825032230
         H           -4.401789725473     1.578300079213    -2.211817680423     1.007825032230

  Basis Set: AUG-CC-PVTZ
    Blend: AUG-CC-PVTZ
  Basis Set: (AUG-CC-PVTZ AUX)
    Blend: AUG-CC-PVTZ-JKFIT
	 Reference Energy          =   -1327.8540267083180879 [Eh]
	 Singles Energy            =      -0.0000000000000000 [Eh]
	 Same-Spin Energy          =      -1.0147985617415909 [Eh]
	 Opposite-Spin Energy      =      -3.0756335970261874 [Eh]
	 Correlation Energy        =      -4.0904321587677783 [Eh]
	 Total Energy              =   -1331.9444588670858138 [Eh]

	 ================> DF-SCS-MP2 Energies <==================
	-----------------------------------------------------------
	 SCS Same-Spin Scale       =       0.3333333333333333 [-]
	 SCS Opposite-Spin Scale   =       1.2000000000000000 [-]
	 SCS Same-Spin Energy      =      -0.3382661872471969 [Eh]
	 SCS Opposite-Spin Energy  =      -3.6907603164314247 [Eh]
	 SCS Correlation Energy    =      -4.0290265036786215 [Eh]
	 SCS Total Energy          =   -1331.8830532119966392 [Eh]
	-----------------------------------------------------------

  Dipole Moment: [D]
     X:    -0.9147      Y:     1.4320      Z:     0.7974     Total:     1.8770

*** Psi4 exiting successfully. Buy a developer a beer!
