                               Psi4 1.3.2 release

  ==> Input File <==

--------------------------------------------------------------------------
#psi4
#
memory 32 gb

molecule  {
0 1
  P       -2.2900960    -0.9400430     0.3446780
  O       -0.9821530    -0.2015620     0.9382890
  O        1.3653022    -1.6317171     1.2374817
  O        0.0787050     2.3596040     0.4621680
  O        3.0685150    -2.1870720    -0.8085900
  O        2.8473350     2.5031130     0.3715350
  O        4.1956880     0.4353970    -0.9728740
  O       -2.8268630     0.0333510    -0.8075310
  O       -3.2591210    -0.7232820     1.6216710
  O       -2.1189930    -2.3436440    -0.0996680
  C        0.1181620     0.0300090     0.0163190
  C        0.9532920    -1.2442050    -0.0757250
  C        0.8985890     1.2026440     0.5648510
  C        2.2596600    -1.0143070    -0.8180370
  C        2.1770750     1.3964720    -0.2280410
  C        3.0258420     0.1487050    -0.2103220
  C       -3.1242130     1.4315980    -0.4888860
  C       -3.5363170     2.0851650    -1.7841190
  H       -0.2830920     0.2988010    -0.9702380
  H        0.3669540    -2.0066198    -0.6026430
  H        1.1571200     0.9978770     1.6121560
  H        2.0609340    -0.7886600    -1.8727560
  H        1.9169870     1.6362870    -1.2735830
  H        3.2958550    -0.0945320     0.8276460
  H        0.5217750    -1.8880320     1.7115100
  H        0.6655400     3.1093110     0.6831840
  H        2.9735430    -2.5473740     0.0946540
  H        3.7214290     2.5491860    -0.0588690
  H        4.6397270    -0.4238340    -1.0970870
  H       -3.8083950    -1.5223380     1.7347280
  H       -3.9305460     1.4455410     0.2493860
  H       -2.2297620     1.8928800    -0.0590960
  H       -3.8005210     3.1308820    -1.6026710
  H       -2.7171960     2.0533230    -2.5048750
  H       -4.4009440     1.5743230    -2.2127240
units angstrom
no_reorient  #important for SAPT in psi4, default
symmetry c1  #important for SAPT in psi4, default
}

set PROPERTIES_ORIGIN ["COM"]
properties('MP2/aug-cc-pvtz', properties = ['dipole'])
--------------------------------------------------------------------------

    Molecular point group: c1
  Charge       = 0
  Multiplicity = 1
  Basis Set: AUG-CC-PVTZ
    Blend: AUG-CC-PVTZ
  Basis Set: (AUG-CC-PVTZ AUX)
    Blend: AUG-CC-PVTZ-JKFIT

    Orbital Energies [Eh]
    ---------------------

    Doubly Occupied:

       1A    -80.117047     2A    -20.614830     3A    -20.606871
       4A    -20.598925     5A    -20.587774     6A    -20.576172
       7A    -20.574570     8A    -20.573405     9A    -20.572725
      10A    -20.523787    11A    -11.319711    12A    -11.303695
      13A    -11.299294    14A    -11.298451    15A    -11.297592
      16A    -11.295930    17A    -11.290503    18A    -11.229783
      19A     -7.632499    20A     -5.531005    21A     -5.530631
      22A     -5.529434    23A     -1.460251    24A     -1.410217
      25A     -1.394163    26A     -1.392225    27A     -1.386849
      28A     -1.371632    29A     -1.362859    30A     -1.353102
      31A     -1.304156    32A     -1.117782    33A     -1.040381
      34A     -1.011529    35A     -1.002680    36A     -0.879672
      37A     -0.864612    38A     -0.858559    39A     -0.822121
      40A     -0.808377    41A     -0.750206    42A     -0.745225
      43A     -0.731538    44A     -0.728135    45A     -0.707309
      46A     -0.686542    47A     -0.677544    48A     -0.673460
      49A     -0.661631    50A     -0.660628    51A     -0.642114
      52A     -0.634445    53A     -0.626905    54A     -0.613142
      55A     -0.603126    56A     -0.598827    57A     -0.581330
      58A     -0.575456    59A     -0.570782    60A     -0.559425
      61A     -0.557163    62A     -0.549172    63A     -0.541382
      64A     -0.535603    65A     -0.529551    66A     -0.521395
      67A     -0.512634    68A     -0.504195    69A     -0.497512
      70A     -0.484168    71A     -0.479950    72A     -0.476765
      73A     -0.461935    74A     -0.455174    75A     -0.449371
      76A     -0.436210

  @DF-RHF Final Energy: -1327.85773936478631

   => Energetics <=

    Nuclear Repulsion Energy =           1772.9171181514427644
    One-Electron Energy =               -5358.0182174937826858
    Two-Electron Energy =                2257.2433599775536095
    Total Energy =                      -1327.8577393647860845
  Basis Set: (AUG-CC-PVTZ AUX)
    Blend: AUG-CC-PVTZ-RI
    Molecular point group: c1

    Geometry (in Angstrom), charge = 0, multiplicity = 1:

       Center              X                  Y                   Z               Mass
    ------------   -----------------  -----------------  -----------------  -----------------
         P           -2.291364368673    -0.942552707557     0.344416910848    30.973761998420
         O           -0.983421368673    -0.204071707557     0.938027910848    15.994914619570
         O            1.364033831327    -1.634226807557     1.237220610848    15.994914619570
         O            0.077436631327     2.357094292443     0.461906910848    15.994914619570
         O            3.067246631327    -2.189581707557    -0.808851089152    15.994914619570
         O            2.846066631327     2.500603292443     0.371273910848    15.994914619570
         O            4.194419631327     0.432887292443    -0.973135089152    15.994914619570
         O           -2.828131368673     0.030841292443    -0.807792089152    15.994914619570
         O           -3.260389368673    -0.725791707557     1.621409910848    15.994914619570
         O           -2.120261368673    -2.346153707557    -0.099929089152    15.994914619570
         C            0.116893631327     0.027499292443     0.016057910848    12.000000000000
         C            0.952023631327    -1.246714707557    -0.075986089152    12.000000000000
         C            0.897320631327     1.200134292443     0.564589910848    12.000000000000
         C            2.258391631327    -1.016816707557    -0.818298089152    12.000000000000
         C            2.175806631327     1.393962292443    -0.228302089152    12.000000000000
         C            3.024573631327     0.146195292443    -0.210583089152    12.000000000000
         C           -3.125481368673     1.429088292443    -0.489147089152    12.000000000000
         C           -3.537585368673     2.082655292443    -1.784380089152    12.000000000000
         H           -0.284360368673     0.296291292443    -0.970499089152     1.007825032230
         H            0.365685631327    -2.009129507557    -0.602904089152     1.007825032230
         H            1.155851631327     0.995367292443     1.611894910848     1.007825032230
         H            2.059665631327    -0.791169707557    -1.873017089152     1.007825032230
         H            1.915718631327     1.633777292443    -1.273844089152     1.007825032230
         H            3.294586631327    -0.097041707557     0.827384910848     1.007825032230
         H            0.520506631327    -1.890541707557     1.711248910848     1.007825032230
         H            0.664271631327     3.106801292443     0.682922910848     1.007825032230
         H            2.972274631327    -2.549883707557     0.094392910848     1.007825032230
         H            3.720160631327     2.546676292443    -0.059130089152     1.007825032230
         H            4.638458631327    -0.426343707557    -1.097348089152     1.007825032230
         H           -3.809663368673    -1.524847707557     1.734466910848     1.007825032230
         H           -3.931814368673     1.443031292443     0.249124910848     1.007825032230
         H           -2.231030368673     1.890370292443    -0.059357089152     1.007825032230
         H           -3.801789368673     3.128372292443    -1.602932089152     1.007825032230
         H           -2.718464368673     2.050813292443    -2.505136089152     1.007825032230
         H           -4.402212368673     1.571813292443    -2.212985089152     1.007825032230

  Basis Set: AUG-CC-PVTZ
    Blend: AUG-CC-PVTZ
  Basis Set: (AUG-CC-PVTZ AUX)
    Blend: AUG-CC-PVTZ-JKFIT
	 Reference Energy          =   -1327.8577393647863119 [Eh]
	 Singles Energy            =      -0.0000000000000000 [Eh]
	 Same-Spin Energy          =      -1.0152235351280166 [Eh]
	 Opposite-Spin Energy      =      -3.0774256539079929 [Eh]
	 Correlation Energy        =      -4.0926491890360097 [Eh]
	 Total Energy              =   -1331.9503885538222221 [Eh]

	 ================> DF-SCS-MP2 Energies <==================
	-----------------------------------------------------------
	 SCS Same-Spin Scale       =       0.3333333333333333 [-]
	 SCS Opposite-Spin Scale   =       1.2000000000000000 [-]
	 SCS Same-Spin Energy      =      -0.3384078450426722 [Eh]
	 SCS Opposite-Spin Energy  =      -3.6929107846895914 [Eh]
	 SCS Correlation Energy    =      -4.0313186297322634 [Eh]
	 SCS Total Energy          =   -1331.8890579945186801 [Eh]
	-----------------------------------------------------------

  Dipole Moment: [D]
     X:    -1.1467      Y:     1.7549      Z:     0.7339     Total:     2.2211

*** Psi4 exiting successfully. Buy a developer a beer!
