                               Psi4 1.3.2 release

  ==> Input File <==

--------------------------------------------------------------------------
#psi4
#
memory 32 gb

molecule  {
0 1
  P       -2.2513176    -0.9435511     0.2696214
  O       -0.9821530    -0.2015620     0.9382890
  O        1.3422500    -1.6754830     1.2308510
  O        0.0787050     2.3596040     0.4621680
  O        3.0685150    -2.1870720    -0.8085900
  O        2.8473350     2.5031130     0.3715350
  O        4.1956880     0.4353970    -0.9728740
  O       -2.8268630     0.0333510    -0.8075310
  O       -3.2591210    -0.7232820     1.6216710
  O       -2.1189930    -2.3436440    -0.0996680
  C        0.0767687    -0.0031791    -0.0382743
  C        0.9532920    -1.2442050    -0.0757250
  C        0.8985890     1.2026440     0.5648510
  C        2.2596600    -1.0143070    -0.8180370
  C        2.1770750     1.3964720    -0.2280410
  C        3.0258420     0.1487050    -0.2103220
  C       -3.1242130     1.4315980    -0.4888860
  C       -3.5363170     2.0851650    -1.7841190
  H       -0.2830920     0.2988010    -0.9702380
  H        0.3702690    -2.0293640    -0.5720320
  H        1.1571200     0.9978770     1.6121560
  H        2.0609340    -0.7886600    -1.8727560
  H        1.9169870     1.6362870    -1.2735830
  H        3.2958550    -0.0945320     0.8276460
  H        0.5217750    -1.8880320     1.7115100
  H        0.6655400     3.1093110     0.6831840
  H        2.9735430    -2.5473740     0.0946540
  H        3.7214290     2.5491860    -0.0588690
  H        4.6397270    -0.4238340    -1.0970870
  H       -3.8083950    -1.5223380     1.7347280
  H       -3.9305460     1.4455410     0.2493860
  H       -2.2297620     1.8928800    -0.0590960
  H       -3.8005210     3.1308820    -1.6026710
  H       -2.7171960     2.0533230    -2.5048750
  H       -4.4009440     1.5743230    -2.2127240
units angstrom
no_reorient  #important for SAPT in psi4, default
symmetry c1  #important for SAPT in psi4, default
}

set PROPERTIES_ORIGIN ["COM"]
properties('MP2/aug-cc-pvtz', properties = ['dipole'])
--------------------------------------------------------------------------

    Molecular point group: c1
  Charge       = 0
  Multiplicity = 1
  Basis Set: AUG-CC-PVTZ
    Blend: AUG-CC-PVTZ
  Basis Set: (AUG-CC-PVTZ AUX)
    Blend: AUG-CC-PVTZ-JKFIT

    Orbital Energies [Eh]
    ---------------------

    Doubly Occupied:

       1A    -80.114844     2A    -20.613338     3A    -20.607765
       4A    -20.590078     5A    -20.586426     6A    -20.576993
       7A    -20.576005     8A    -20.574889     9A    -20.573859
      10A    -20.529704    11A    -11.321304    12A    -11.305803
      13A    -11.305295    14A    -11.302015    15A    -11.301443
      16A    -11.296372    17A    -11.292277    18A    -11.233600
      19A     -7.631391    20A     -5.529697    21A     -5.529377
      22A     -5.528468    23A     -1.462588    24A     -1.412973
      25A     -1.398753    26A     -1.394055    27A     -1.376951
      28A     -1.364792    29A     -1.360453    30A     -1.354074
      31A     -1.318985    32A     -1.116527    33A     -1.047772
      34A     -1.014254    35A     -0.999980    36A     -0.880835
      37A     -0.870743    38A     -0.858993    39A     -0.818860
      40A     -0.813006    41A     -0.752392    42A     -0.746745
      43A     -0.733572    44A     -0.727553    45A     -0.700207
      46A     -0.688952    47A     -0.679692    48A     -0.674416
      49A     -0.662266    50A     -0.654346    51A     -0.639655
      52A     -0.635550    53A     -0.626998    54A     -0.620140
      55A     -0.604783    56A     -0.598360    57A     -0.581448
      58A     -0.575714    59A     -0.568040    60A     -0.562042
      61A     -0.557665    62A     -0.553275    63A     -0.542802
      64A     -0.536960    65A     -0.528033    66A     -0.522512
      67A     -0.515593    68A     -0.507672    69A     -0.499240
      70A     -0.491577    71A     -0.487161    72A     -0.483385
      73A     -0.462219    74A     -0.456536    75A     -0.449897
      76A     -0.436066

  @DF-RHF Final Energy: -1327.84669380464948

   => Energetics <=

    Nuclear Repulsion Energy =           1773.4050316722543812
    One-Electron Energy =               -5358.8054557561890761
    Two-Electron Energy =                2257.5537302792854462
    Total Energy =                      -1327.8466938046494761
  Basis Set: (AUG-CC-PVTZ AUX)
    Blend: AUG-CC-PVTZ-RI
    Molecular point group: c1

    Geometry (in Angstrom), charge = 0, multiplicity = 1:

       Center              X                  Y                   Z               Mass
    ------------   -----------------  -----------------  -----------------  -----------------
         P           -2.253762859259    -0.941791329285     0.279966090910    30.973761998420
         O           -0.984598259259    -0.199802229285     0.948633690910    15.994914619570
         O            1.339804740741    -1.673723229285     1.241195690910    15.994914619570
         O            0.076259740741     2.361363770715     0.472512690910    15.994914619570
         O            3.066069740741    -2.185312229285    -0.798245309090    15.994914619570
         O            2.844889740741     2.504872770715     0.381879690910    15.994914619570
         O            4.193242740741     0.437156770715    -0.962529309090    15.994914619570
         O           -2.829308259259     0.035110770715    -0.797186309090    15.994914619570
         O           -3.261566259259    -0.721522229285     1.632015690910    15.994914619570
         O           -2.121438259259    -2.341884229285    -0.089323309090    15.994914619570
         C            0.074323440741    -0.001419329285    -0.027929609090    12.000000000000
         C            0.950846740741    -1.242445229285    -0.065380309090    12.000000000000
         C            0.896143740741     1.204403770715     0.575195690910    12.000000000000
         C            2.257214740741    -1.012547229285    -0.807692309090    12.000000000000
         C            2.174629740741     1.398231770715    -0.217696309090    12.000000000000
         C            3.023396740741     0.150464770715    -0.199977309090    12.000000000000
         C           -3.126658259259     1.433357770715    -0.478541309090    12.000000000000
         C           -3.538762259259     2.086924770715    -1.773774309090    12.000000000000
         H           -0.285537259259     0.300560770715    -0.959893309090     1.007825032230
         H            0.367823740741    -2.027604229285    -0.561687309090     1.007825032230
         H            1.154674740741     0.999636770715     1.622500690910     1.007825032230
         H            2.058488740741    -0.786900229285    -1.862411309090     1.007825032230
         H            1.914541740741     1.638046770715    -1.263238309090     1.007825032230
         H            3.293409740741    -0.092772229285     0.837990690910     1.007825032230
         H            0.519329740741    -1.886272229285     1.721854690910     1.007825032230
         H            0.663094740741     3.111070770715     0.693528690910     1.007825032230
         H            2.971097740741    -2.545614229285     0.104998690910     1.007825032230
         H            3.718983740741     2.550945770715    -0.048524309090     1.007825032230
         H            4.637281740741    -0.422074229285    -1.086742309090     1.007825032230
         H           -3.810840259259    -1.520578229285     1.745072690910     1.007825032230
         H           -3.932991259259     1.447300770715     0.259730690910     1.007825032230
         H           -2.232207259259     1.894639770715    -0.048751309090     1.007825032230
         H           -3.802966259259     3.132641770715    -1.592326309090     1.007825032230
         H           -2.719641259259     2.055082770715    -2.494530309090     1.007825032230
         H           -4.403389259259     1.576082770715    -2.202379309090     1.007825032230

  Basis Set: AUG-CC-PVTZ
    Blend: AUG-CC-PVTZ
  Basis Set: (AUG-CC-PVTZ AUX)
    Blend: AUG-CC-PVTZ-JKFIT
	 Reference Energy          =   -1327.8466938046494761 [Eh]
	 Singles Energy            =      -0.0000000000000000 [Eh]
	 Same-Spin Energy          =      -1.0146971969903094 [Eh]
	 Opposite-Spin Energy      =      -3.0771500650054620 [Eh]
	 Correlation Energy        =      -4.0918472619957713 [Eh]
	 Total Energy              =   -1331.9385410666452572 [Eh]

	 ================> DF-SCS-MP2 Energies <==================
	-----------------------------------------------------------
	 SCS Same-Spin Scale       =       0.3333333333333333 [-]
	 SCS Opposite-Spin Scale   =       1.2000000000000000 [-]
	 SCS Same-Spin Energy      =      -0.3382323989967698 [Eh]
	 SCS Opposite-Spin Energy  =      -3.6925800780065541 [Eh]
	 SCS Correlation Energy    =      -4.0308124770033240 [Eh]
	 SCS Total Energy          =   -1331.8775062816528134 [Eh]
	-----------------------------------------------------------

  Dipole Moment: [D]
     X:    -0.7808      Y:     1.9483      Z:    -0.0208     Total:     2.0990

*** Psi4 exiting successfully. Buy a developer a beer!
