                               Psi4 1.3.2 release

  ==> Input File <==

--------------------------------------------------------------------------
#psi4
#
memory 32 gb

molecule  {
0 1
  P       -2.2900960    -0.9400430     0.3446780
  O       -0.9821530    -0.2015620     0.9382890
  O        1.3422500    -1.6754830     1.2308510
  O        0.0787050     2.3596040     0.4621680
  O        3.0685150    -2.1870720    -0.8085900
  O        2.8473350     2.5031130     0.3715350
  O        4.1956880     0.4353970    -0.9728740
  O       -2.8268630     0.0333510    -0.8075310
  O       -3.2591210    -0.7232820     1.6216710
  O       -2.1189930    -2.3436440    -0.0996680
  C        0.1562872     0.0558191    -0.0104855
  C        0.9532920    -1.2442050    -0.0757250
  C        0.8985890     1.2026440     0.5648510
  C        2.2459278    -0.9634762    -0.8245651
  C        2.1770750     1.3964720    -0.2280410
  C        3.0258420     0.1487050    -0.2103220
  C       -3.1242130     1.4315980    -0.4888860
  C       -3.5363170     2.0851650    -1.7841190
  H       -0.2830920     0.2988010    -0.9702380
  H        0.3702690    -2.0293640    -0.5720320
  H        1.1571200     0.9978770     1.6121560
  H        2.0609340    -0.7886600    -1.8727560
  H        1.9169870     1.6362870    -1.2735830
  H        3.2958550    -0.0945320     0.8276460
  H        0.5217750    -1.8880320     1.7115100
  H        0.6655400     3.1093110     0.6831840
  H        2.9735430    -2.5473740     0.0946540
  H        3.7214290     2.5491860    -0.0588690
  H        4.6397270    -0.4238340    -1.0970870
  H       -3.8083950    -1.5223380     1.7347280
  H       -3.9305460     1.4455410     0.2493860
  H       -2.2297620     1.8928800    -0.0590960
  H       -3.8005210     3.1308820    -1.6026710
  H       -2.7171960     2.0533230    -2.5048750
  H       -4.4009440     1.5743230    -2.2127240
units angstrom
no_reorient  #important for SAPT in psi4, default
symmetry c1  #important for SAPT in psi4, default
}

set PROPERTIES_ORIGIN ["COM"]
properties('MP2/aug-cc-pvtz', properties = ['dipole'])
--------------------------------------------------------------------------

    Molecular point group: c1
  Charge       = 0
  Multiplicity = 1
  Basis Set: AUG-CC-PVTZ
    Blend: AUG-CC-PVTZ
  Basis Set: (AUG-CC-PVTZ AUX)
    Blend: AUG-CC-PVTZ-JKFIT

    Orbital Energies [Eh]
    ---------------------

    Doubly Occupied:

       1A    -80.113520     2A    -20.612314     3A    -20.600075
       4A    -20.597180     5A    -20.585151     6A    -20.578708
       7A    -20.576417     8A    -20.575900     9A    -20.569211
      10A    -20.521117    11A    -11.322891    12A    -11.307991
      13A    -11.300808    14A    -11.300245    15A    -11.299384
      16A    -11.298512    17A    -11.294173    18A    -11.229488
      19A     -7.628930    20A     -5.527435    21A     -5.527067
      22A     -5.525894    23A     -1.453545    24A     -1.408711
      25A     -1.394532    26A     -1.387625    27A     -1.384787
      28A     -1.369018    29A     -1.361562    30A     -1.345529
      31A     -1.301225    32A     -1.129950    33A     -1.039770
      34A     -1.018969    35A     -1.008340    36A     -0.878901
      37A     -0.864766    38A     -0.860202    39A     -0.820539
      40A     -0.814459    41A     -0.751661    42A     -0.744901
      43A     -0.732049    44A     -0.723688    45A     -0.708146
      46A     -0.688204    47A     -0.674674    48A     -0.673242
      49A     -0.663229    50A     -0.657689    51A     -0.642366
      52A     -0.635348    53A     -0.623429    54A     -0.615764
      55A     -0.600802    56A     -0.596095    57A     -0.583759
      58A     -0.572984    59A     -0.568854    60A     -0.560858
      61A     -0.557125    62A     -0.548812    63A     -0.540621
      64A     -0.534736    65A     -0.530913    66A     -0.522584
      67A     -0.512319    68A     -0.505889    69A     -0.497985
      70A     -0.485448    71A     -0.478588    72A     -0.475140
      73A     -0.463376    74A     -0.457805    75A     -0.452705
      76A     -0.445665

  @DF-RHF Final Energy: -1327.85382332592030

   => Energetics <=

    Nuclear Repulsion Energy =           1772.4361760405122368
    One-Electron Energy =               -5357.0554126686565724
    Two-Electron Energy =                2256.7654133022242604
    Total Energy =                      -1327.8538233259200751
  Basis Set: (AUG-CC-PVTZ AUX)
    Blend: AUG-CC-PVTZ-RI
    Molecular point group: c1

    Geometry (in Angstrom), charge = 0, multiplicity = 1:

       Center              X                  Y                   Z               Mass
    ------------   -----------------  -----------------  -----------------  -----------------
         P           -2.291112126870    -0.943235676717     0.346066554905    30.973761998420
         O           -0.983169126870    -0.204754676717     0.939677554905    15.994914619570
         O            1.341233873130    -1.678675676717     1.232239554905    15.994914619570
         O            0.077688873130     2.356411323283     0.463556554905    15.994914619570
         O            3.067498873130    -2.190264676717    -0.807201445095    15.994914619570
         O            2.846318873130     2.499920323283     0.372923554905    15.994914619570
         O            4.194671873130     0.432204323283    -0.971485445095    15.994914619570
         O           -2.827879126870     0.030158323283    -0.806142445095    15.994914619570
         O           -3.260137126870    -0.726474676717     1.623059554905    15.994914619570
         O           -2.120009126870    -2.346836676717    -0.098279445095    15.994914619570
         C            0.155271073130     0.052626423283    -0.009096945095    12.000000000000
         C            0.952275873130    -1.247397676717    -0.074336445095    12.000000000000
         C            0.897572873130     1.199451323283     0.566239554905    12.000000000000
         C            2.244911673130    -0.966668876717    -0.823176545095    12.000000000000
         C            2.176058873130     1.393279323283    -0.226652445095    12.000000000000
         C            3.024825873130     0.145512323283    -0.208933445095    12.000000000000
         C           -3.125229126870     1.428405323283    -0.487497445095    12.000000000000
         C           -3.537333126870     2.081972323283    -1.782730445095    12.000000000000
         H           -0.284108126870     0.295608323283    -0.968849445095     1.007825032230
         H            0.369252873130    -2.032556676717    -0.570643445095     1.007825032230
         H            1.156103873130     0.994684323283     1.613544554905     1.007825032230
         H            2.059917873130    -0.791852676717    -1.871367445095     1.007825032230
         H            1.915970873130     1.633094323283    -1.272194445095     1.007825032230
         H            3.294838873130    -0.097724676717     0.829034554905     1.007825032230
         H            0.520758873130    -1.891224676717     1.712898554905     1.007825032230
         H            0.664523873130     3.106118323283     0.684572554905     1.007825032230
         H            2.972526873130    -2.550566676717     0.096042554905     1.007825032230
         H            3.720412873130     2.545993323283    -0.057480445095     1.007825032230
         H            4.638710873130    -0.427026676717    -1.095698445095     1.007825032230
         H           -3.809411126870    -1.525530676717     1.736116554905     1.007825032230
         H           -3.931562126870     1.442348323283     0.250774554905     1.007825032230
         H           -2.230778126870     1.889687323283    -0.057707445095     1.007825032230
         H           -3.801537126870     3.127689323283    -1.601282445095     1.007825032230
         H           -2.718212126870     2.050130323283    -2.503486445095     1.007825032230
         H           -4.401960126870     1.571130323283    -2.211335445095     1.007825032230

  Basis Set: AUG-CC-PVTZ
    Blend: AUG-CC-PVTZ
  Basis Set: (AUG-CC-PVTZ AUX)
    Blend: AUG-CC-PVTZ-JKFIT
	 Reference Energy          =   -1327.8538233259203025 [Eh]
	 Singles Energy            =      -0.0000000000000000 [Eh]
	 Same-Spin Energy          =      -1.0152863724072947 [Eh]
	 Opposite-Spin Energy      =      -3.0778845092842970 [Eh]
	 Correlation Energy        =      -4.0931708816915915 [Eh]
	 Total Energy              =   -1331.9469942076118514 [Eh]

	 ================> DF-SCS-MP2 Energies <==================
	-----------------------------------------------------------
	 SCS Same-Spin Scale       =       0.3333333333333333 [-]
	 SCS Opposite-Spin Scale   =       1.2000000000000000 [-]
	 SCS Same-Spin Energy      =      -0.3384287908024315 [Eh]
	 SCS Opposite-Spin Energy  =      -3.6934614111411563 [Eh]
	 SCS Correlation Energy    =      -4.0318902019435878 [Eh]
	 SCS Total Energy          =   -1331.8857135278637998 [Eh]
	-----------------------------------------------------------

  Dipole Moment: [D]
     X:    -0.9463      Y:     2.0880      Z:     0.6726     Total:     2.3891

*** Psi4 exiting successfully. Buy a developer a beer!
