                               Psi4 1.3.2 release

  ==> Input File <==

--------------------------------------------------------------------------
#psi4
#
memory 32 gb

molecule  {
0 1
  P       -2.2900960    -0.9400430     0.3446780
  O       -0.9821530    -0.2015620     0.9382890
  O        1.3766418    -1.6096538     1.2401975
  O        0.0787050     2.3596040     0.4621680
  O        3.0685150    -2.1870720    -0.8085900
  O        2.8473350     2.5031130     0.3715350
  O        4.1956880     0.4353970    -0.9728740
  O       -2.8268630     0.0333510    -0.8075310
  O       -3.2591210    -0.7232820     1.6216710
  O       -2.1189930    -2.3436440    -0.0996680
  C        0.1181620     0.0300090     0.0163190
  C        0.9532920    -1.2442050    -0.0757250
  C        0.8985890     1.2026440     0.5648510
  C        2.2596600    -1.0143070    -0.8180370
  C        2.1770750     1.3964720    -0.2280410
  C        3.0258420     0.1487050    -0.2103220
  C       -3.1242130     1.4315980    -0.4888860
  C       -3.5363170     2.0851650    -1.7841190
  H       -0.2830920     0.2988010    -0.9702380
  H        0.3655642    -1.9948976    -0.6177100
  H        1.1571200     0.9978770     1.6121560
  H        2.0609340    -0.7886600    -1.8727560
  H        1.9169870     1.6362870    -1.2735830
  H        3.2958550    -0.0945320     0.8276460
  H        0.5217750    -1.8880320     1.7115100
  H        0.6655400     3.1093110     0.6831840
  H        2.9735430    -2.5473740     0.0946540
  H        3.7214290     2.5491860    -0.0588690
  H        4.6397270    -0.4238340    -1.0970870
  H       -3.8083950    -1.5223380     1.7347280
  H       -3.9305460     1.4455410     0.2493860
  H       -2.2297620     1.8928800    -0.0590960
  H       -3.8005210     3.1308820    -1.6026710
  H       -2.7171960     2.0533230    -2.5048750
  H       -4.4009440     1.5743230    -2.2127240
units angstrom
no_reorient  #important for SAPT in psi4, default
symmetry c1  #important for SAPT in psi4, default
}

set PROPERTIES_ORIGIN ["COM"]
properties('MP2/aug-cc-pvtz', properties = ['dipole'])
--------------------------------------------------------------------------

    Molecular point group: c1
  Charge       = 0
  Multiplicity = 1
  Basis Set: AUG-CC-PVTZ
    Blend: AUG-CC-PVTZ
  Basis Set: (AUG-CC-PVTZ AUX)
    Blend: AUG-CC-PVTZ-JKFIT

    Orbital Energies [Eh]
    ---------------------

    Doubly Occupied:

       1A    -80.117086     2A    -20.614869     3A    -20.606785
       4A    -20.598909     5A    -20.590084     6A    -20.575849
       7A    -20.574556     8A    -20.573047     9A    -20.572337
      10A    -20.523944    11A    -11.319176    12A    -11.303763
      13A    -11.299241    14A    -11.297987    15A    -11.297058
      16A    -11.295535    17A    -11.290019    18A    -11.229736
      19A     -7.632540    20A     -5.531046    21A     -5.530670
      22A     -5.529476    23A     -1.460226    24A     -1.409939
      25A     -1.393948    26A     -1.391799    27A     -1.386835
      28A     -1.371099    29A     -1.362278    30A     -1.352716
      31A     -1.304300    32A     -1.117105    33A     -1.040334
      34A     -1.011282    35A     -1.002298    36A     -0.879398
      37A     -0.864459    38A     -0.858317    39A     -0.822013
      40A     -0.807214    41A     -0.749460    42A     -0.745174
      43A     -0.731518    44A     -0.727867    45A     -0.707039
      46A     -0.686248    47A     -0.677141    48A     -0.673328
      49A     -0.661280    50A     -0.660459    51A     -0.641604
      52A     -0.634158    53A     -0.626743    54A     -0.611955
      55A     -0.602883    56A     -0.599018    57A     -0.581133
      58A     -0.575405    59A     -0.570596    60A     -0.559532
      61A     -0.557402    62A     -0.549377    63A     -0.541440
      64A     -0.535141    65A     -0.529347    66A     -0.521209
      67A     -0.512367    68A     -0.504026    69A     -0.497627
      70A     -0.483837    71A     -0.479993    72A     -0.476804
      73A     -0.461700    74A     -0.454803    75A     -0.448957
      76A     -0.436050

  @DF-RHF Final Energy: -1327.85478942081477

   => Energetics <=

    Nuclear Repulsion Energy =           1773.1660987506033962
    One-Electron Energy =               -5358.5379891406055322
    Two-Electron Energy =                2257.5171009691875952
    Total Energy =                      -1327.8547894208145408
  Basis Set: (AUG-CC-PVTZ AUX)
    Blend: AUG-CC-PVTZ-RI
    Molecular point group: c1

    Geometry (in Angstrom), charge = 0, multiplicity = 1:

       Center              X                  Y                   Z               Mass
    ------------   -----------------  -----------------  -----------------  -----------------
         P           -2.291989150392    -0.943818809189     0.344318827152    30.973761998420
         O           -0.984046150392    -0.205337809189     0.937929827152    15.994914619570
         O            1.374748649608    -1.613429609189     1.239838327152    15.994914619570
         O            0.076811849608     2.355828190811     0.461808827152    15.994914619570
         O            3.066621849608    -2.190847809189    -0.808949172848    15.994914619570
         O            2.845441849608     2.499337190811     0.371175827152    15.994914619570
         O            4.193794849608     0.431621190811    -0.973233172848    15.994914619570
         O           -2.828756150392     0.029575190811    -0.807890172848    15.994914619570
         O           -3.261014150392    -0.727057809189     1.621311827152    15.994914619570
         O           -2.120886150392    -2.347419809189    -0.100027172848    15.994914619570
         C            0.116268849608     0.026233190811     0.015959827152    12.000000000000
         C            0.951398849608    -1.247980809189    -0.076084172848    12.000000000000
         C            0.896695849608     1.198868190811     0.564491827152    12.000000000000
         C            2.257766849608    -1.018082809189    -0.818396172848    12.000000000000
         C            2.175181849608     1.392696190811    -0.228400172848    12.000000000000
         C            3.023948849608     0.144929190811    -0.210681172848    12.000000000000
         C           -3.126106150392     1.427822190811    -0.489245172848    12.000000000000
         C           -3.538210150392     2.081389190811    -1.784478172848    12.000000000000
         H           -0.284985150392     0.295025190811    -0.970597172848     1.007825032230
         H            0.363671049608    -1.998673409189    -0.618069172848     1.007825032230
         H            1.155226849608     0.994101190811     1.611796827152     1.007825032230
         H            2.059040849608    -0.792435809189    -1.873115172848     1.007825032230
         H            1.915093849608     1.632511190811    -1.273942172848     1.007825032230
         H            3.293961849608    -0.098307809189     0.827286827152     1.007825032230
         H            0.519881849608    -1.891807809189     1.711150827152     1.007825032230
         H            0.663646849608     3.105535190811     0.682824827152     1.007825032230
         H            2.971649849608    -2.551149809189     0.094294827152     1.007825032230
         H            3.719535849608     2.545410190811    -0.059228172848     1.007825032230
         H            4.637833849608    -0.427609809189    -1.097446172848     1.007825032230
         H           -3.810288150392    -1.526113809189     1.734368827152     1.007825032230
         H           -3.932439150392     1.441765190811     0.249026827152     1.007825032230
         H           -2.231655150392     1.889104190811    -0.059455172848     1.007825032230
         H           -3.802414150392     3.127106190811    -1.603030172848     1.007825032230
         H           -2.719089150392     2.049547190811    -2.505234172848     1.007825032230
         H           -4.402837150392     1.570547190811    -2.213083172848     1.007825032230

  Basis Set: AUG-CC-PVTZ
    Blend: AUG-CC-PVTZ
  Basis Set: (AUG-CC-PVTZ AUX)
    Blend: AUG-CC-PVTZ-JKFIT
	 Reference Energy          =   -1327.8547894208147682 [Eh]
	 Singles Energy            =      -0.0000000000000000 [Eh]
	 Same-Spin Energy          =      -1.0155734916763968 [Eh]
	 Opposite-Spin Energy      =      -3.0781810747566247 [Eh]
	 Correlation Energy        =      -4.0937545664330219 [Eh]
	 Total Energy              =   -1331.9485439872478310 [Eh]

	 ================> DF-SCS-MP2 Energies <==================
	-----------------------------------------------------------
	 SCS Same-Spin Scale       =       0.3333333333333333 [-]
	 SCS Opposite-Spin Scale   =       1.2000000000000000 [-]
	 SCS Same-Spin Energy      =      -0.3385244972254656 [Eh]
	 SCS Opposite-Spin Energy  =      -3.6938172897079493 [Eh]
	 SCS Correlation Energy    =      -4.0323417869334151 [Eh]
	 SCS Total Energy          =   -1331.8871312077480979 [Eh]
	-----------------------------------------------------------

  Dipole Moment: [D]
     X:    -1.1618      Y:     1.7019      Z:     0.7414     Total:     2.1900

*** Psi4 exiting successfully. Buy a developer a beer!
