                               Psi4 1.3.2 release

  ==> Input File <==

--------------------------------------------------------------------------
#psi4
#
memory 32 gb

molecule  {
0 1
  P       -2.2900960    -0.9400430     0.3446780
  O       -0.9821530    -0.2015620     0.9382890
  O        1.3422500    -1.6754830     1.2308510
  O        0.0787050     2.3596040     0.4621680
  O        3.0685150    -2.1870720    -0.8085900
  O        2.8473350     2.5031130     0.3715350
  O        4.1956880     0.4353970    -0.9728740
  O       -2.8268630     0.0333510    -0.8075310
  O       -3.2591210    -0.7232820     1.6216710
  O       -2.1189930    -2.3436440    -0.0996680
  C        0.1938329     0.0459346    -0.0470868
  C        0.9532920    -1.2442050    -0.0757250
  C        0.8985890     1.2026440     0.5648510
  C        2.2596600    -1.0143070    -0.8180370
  C        2.1770750     1.3964720    -0.2280410
  C        3.0258420     0.1487050    -0.2103220
  C       -3.1242130     1.4315980    -0.4888860
  C       -3.5363170     2.0851650    -1.7841190
  H       -0.2830920     0.2988010    -0.9702380
  H        0.3702690    -2.0293640    -0.5720320
  H        1.1571200     0.9978770     1.6121560
  H        2.0609340    -0.7886600    -1.8727560
  H        1.9169870     1.6362870    -1.2735830
  H        3.2958550    -0.0945320     0.8276460
  H        0.5217750    -1.8880320     1.7115100
  H        0.6655400     3.1093110     0.6831840
  H        2.9735430    -2.5473740     0.0946540
  H        3.7214290     2.5491860    -0.0588690
  H        4.6397270    -0.4238340    -1.0970870
  H       -3.8083950    -1.5223380     1.7347280
  H       -3.9305460     1.4455410     0.2493860
  H       -2.2297620     1.8928800    -0.0590960
  H       -3.8005210     3.1308820    -1.6026710
  H       -2.7171960     2.0533230    -2.5048750
  H       -4.4009440     1.5743230    -2.2127240
units angstrom
no_reorient  #important for SAPT in psi4, default
symmetry c1  #important for SAPT in psi4, default
}

set PROPERTIES_ORIGIN ["COM"]
properties('MP2/aug-cc-pvtz', properties = ['dipole'])
--------------------------------------------------------------------------

    Molecular point group: c1
  Charge       = 0
  Multiplicity = 1
  Basis Set: AUG-CC-PVTZ
    Blend: AUG-CC-PVTZ
  Basis Set: (AUG-CC-PVTZ AUX)
    Blend: AUG-CC-PVTZ-JKFIT

    Orbital Energies [Eh]
    ---------------------

    Doubly Occupied:

       1A    -80.109533     2A    -20.609466     3A    -20.594956
       4A    -20.593648     5A    -20.586482     6A    -20.578753
       7A    -20.576630     8A    -20.576627     9A    -20.576111
      10A    -20.518418    11A    -11.325849    12A    -11.307663
      13A    -11.302375    14A    -11.301656    15A    -11.299275
      16A    -11.297054    17A    -11.294416    18A    -11.228568
      19A     -7.624982    20A     -5.523502    21A     -5.523084
      22A     -5.521971    23A     -1.448142    24A     -1.411076
      25A     -1.396185    26A     -1.387031    27A     -1.382797
      28A     -1.366223    29A     -1.362882    30A     -1.353453
      31A     -1.298166    32A     -1.131569    33A     -1.038367
      34A     -1.016456    35A     -1.010673    36A     -0.875152
      37A     -0.863493    38A     -0.861885    39A     -0.817825
      40A     -0.815915    41A     -0.753448    42A     -0.745371
      43A     -0.731811    44A     -0.719980    45A     -0.706121
      46A     -0.687924    47A     -0.678759    48A     -0.672074
      49A     -0.664057    50A     -0.658985    51A     -0.642390
      52A     -0.633800    53A     -0.623456    54A     -0.616275
      55A     -0.602775    56A     -0.595865    57A     -0.583814
      58A     -0.569660    59A     -0.567643    60A     -0.560851
      61A     -0.555277    62A     -0.549583    63A     -0.540996
      64A     -0.538107    65A     -0.529545    66A     -0.519903
      67A     -0.513453    68A     -0.505591    69A     -0.496414
      70A     -0.487705    71A     -0.477987    72A     -0.473089
      73A     -0.462672    74A     -0.458628    75A     -0.455634
      76A     -0.439274

  @DF-RHF Final Energy: -1327.85138765834381

   => Energetics <=

    Nuclear Repulsion Energy =           1771.7803307764470446
    One-Electron Energy =               -5355.8089861537664547
    Two-Electron Energy =                2256.1772677189755996
    Total Energy =                      -1327.8513876583438105
  Basis Set: (AUG-CC-PVTZ AUX)
    Blend: AUG-CC-PVTZ-RI
    Molecular point group: c1

    Geometry (in Angstrom), charge = 0, multiplicity = 1:

       Center              X                  Y                   Z               Mass
    ------------   -----------------  -----------------  -----------------  -----------------
         P           -2.293248253451    -0.940706408431     0.347319339475    30.973761998420
         O           -0.985305253451    -0.202225408431     0.940930339475    15.994914619570
         O            1.339097746549    -1.676146408431     1.233492339475    15.994914619570
         O            0.075552746549     2.358940591569     0.464809339475    15.994914619570
         O            3.065362746549    -2.187735408431    -0.805948660525    15.994914619570
         O            2.844182746549     2.502449591569     0.374176339475    15.994914619570
         O            4.192535746549     0.434733591569    -0.970232660525    15.994914619570
         O           -2.830015253451     0.032687591569    -0.804889660525    15.994914619570
         O           -3.262273253451    -0.723945408431     1.624312339475    15.994914619570
         O           -2.122145253451    -2.344307408431    -0.097026660525    15.994914619570
         C            0.190680646549     0.045271191569    -0.044445460525    12.000000000000
         C            0.950139746549    -1.244868408431    -0.073083660525    12.000000000000
         C            0.895436746549     1.201980591569     0.567492339475    12.000000000000
         C            2.256507746549    -1.014970408431    -0.815395660525    12.000000000000
         C            2.173922746549     1.395808591569    -0.225399660525    12.000000000000
         C            3.022689746549     0.148041591569    -0.207680660525    12.000000000000
         C           -3.127365253451     1.430934591569    -0.486244660525    12.000000000000
         C           -3.539469253451     2.084501591569    -1.781477660525    12.000000000000
         H           -0.286244253451     0.298137591569    -0.967596660525     1.007825032230
         H            0.367116746549    -2.030027408431    -0.569390660525     1.007825032230
         H            1.153967746549     0.997213591569     1.614797339475     1.007825032230
         H            2.057781746549    -0.789323408431    -1.870114660525     1.007825032230
         H            1.913834746549     1.635623591569    -1.270941660525     1.007825032230
         H            3.292702746549    -0.095195408431     0.830287339475     1.007825032230
         H            0.518622746549    -1.888695408431     1.714151339475     1.007825032230
         H            0.662387746549     3.108647591569     0.685825339475     1.007825032230
         H            2.970390746549    -2.548037408431     0.097295339475     1.007825032230
         H            3.718276746549     2.548522591569    -0.056227660525     1.007825032230
         H            4.636574746549    -0.424497408431    -1.094445660525     1.007825032230
         H           -3.811547253451    -1.523001408431     1.737369339475     1.007825032230
         H           -3.933698253451     1.444877591569     0.252027339475     1.007825032230
         H           -2.232914253451     1.892216591569    -0.056454660525     1.007825032230
         H           -3.803673253451     3.130218591569    -1.600029660525     1.007825032230
         H           -2.720348253451     2.052659591569    -2.502233660525     1.007825032230
         H           -4.404096253451     1.573659591569    -2.210082660525     1.007825032230

  Basis Set: AUG-CC-PVTZ
    Blend: AUG-CC-PVTZ
  Basis Set: (AUG-CC-PVTZ AUX)
    Blend: AUG-CC-PVTZ-JKFIT
	 Reference Energy          =   -1327.8513876583438105 [Eh]
	 Singles Energy            =      -0.0000000000000000 [Eh]
	 Same-Spin Energy          =      -1.0154221487859152 [Eh]
	 Opposite-Spin Energy      =      -3.0778262784725259 [Eh]
	 Correlation Energy        =      -4.0932484272584411 [Eh]
	 Total Energy              =   -1331.9446360856022693 [Eh]

	 ================> DF-SCS-MP2 Energies <==================
	-----------------------------------------------------------
	 SCS Same-Spin Scale       =       0.3333333333333333 [-]
	 SCS Opposite-Spin Scale   =       1.2000000000000000 [-]
	 SCS Same-Spin Energy      =      -0.3384740495953050 [Eh]
	 SCS Opposite-Spin Energy  =      -3.6933915341670307 [Eh]
	 SCS Correlation Energy    =      -4.0318655837623361 [Eh]
	 SCS Total Energy          =   -1331.8832532421060932 [Eh]
	-----------------------------------------------------------

  Dipole Moment: [D]
     X:    -0.6520      Y:     1.9613      Z:     0.6114     Total:     2.1553

*** Psi4 exiting successfully. Buy a developer a beer!
