                               Psi4 1.3.2 release

  ==> Input File <==

--------------------------------------------------------------------------
#psi4
#
memory 32 gb

molecule  {
0 1
  P       -2.2900960    -0.9400430     0.3446780
  O       -0.9683939    -0.2072246     0.9143479
  O        1.3422500    -1.6754830     1.2308510
  O        0.0787050     2.3596040     0.4621680
  O        3.0685150    -2.1870720    -0.8085900
  O        2.8473350     2.5031130     0.3715350
  O        4.1956880     0.4353970    -0.9728740
  O       -2.8268630     0.0333510    -0.8075310
  O       -3.2797617    -0.7368510     1.6079993
  O       -2.1189930    -2.3436440    -0.0996680
  C        0.1181620     0.0300090     0.0163190
  C        0.9532920    -1.2442050    -0.0757250
  C        0.8985890     1.2026440     0.5648510
  C        2.2596600    -1.0143070    -0.8180370
  C        2.1770750     1.3964720    -0.2280410
  C        3.0258420     0.1487050    -0.2103220
  C       -3.1242130     1.4315980    -0.4888860
  C       -3.5363170     2.0851650    -1.7841190
  H       -0.2830920     0.2988010    -0.9702380
  H        0.3702690    -2.0293640    -0.5720320
  H        1.1571200     0.9978770     1.6121560
  H        2.0609340    -0.7886600    -1.8727560
  H        1.9169870     1.6362870    -1.2735830
  H        3.2958550    -0.0945320     0.8276460
  H        0.5217750    -1.8880320     1.7115100
  H        0.6655400     3.1093110     0.6831840
  H        2.9735430    -2.5473740     0.0946540
  H        3.7214290     2.5491860    -0.0588690
  H        4.6397270    -0.4238340    -1.0970870
  H       -3.8083950    -1.5223380     1.7347280
  H       -3.9305460     1.4455410     0.2493860
  H       -2.2297620     1.8928800    -0.0590960
  H       -3.8005210     3.1308820    -1.6026710
  H       -2.7171960     2.0533230    -2.5048750
  H       -4.4009440     1.5743230    -2.2127240
units angstrom
no_reorient  #important for SAPT in psi4, default
symmetry c1  #important for SAPT in psi4, default
}

set PROPERTIES_ORIGIN ["COM"]
properties('MP2/aug-cc-pvtz', properties = ['dipole'])
--------------------------------------------------------------------------

    Molecular point group: c1
  Charge       = 0
  Multiplicity = 1
  Basis Set: AUG-CC-PVTZ
    Blend: AUG-CC-PVTZ
  Basis Set: (AUG-CC-PVTZ AUX)
    Blend: AUG-CC-PVTZ-JKFIT

    Orbital Energies [Eh]
    ---------------------

    Doubly Occupied:

       1A    -80.118983     2A    -20.614837     3A    -20.607949
       4A    -20.598934     5A    -20.582949     6A    -20.576493
       7A    -20.573993     8A    -20.573726     9A    -20.573448
      10A    -20.522549    11A    -11.318974    12A    -11.302313
      13A    -11.299723    14A    -11.298539    15A    -11.298058
      16A    -11.296257    17A    -11.291002    18A    -11.230005
      19A     -7.634236    20A     -5.532671    21A     -5.532445
      22A     -5.531192    23A     -1.464220    24A     -1.413425
      25A     -1.398279    26A     -1.393250    27A     -1.388660
      28A     -1.373759    29A     -1.363670    30A     -1.353613
      31A     -1.303674    32A     -1.118366    33A     -1.040790
      34A     -1.012104    35A     -1.003009    36A     -0.883132
      37A     -0.865227    38A     -0.859328    39A     -0.825688
      40A     -0.810543    41A     -0.753156    42A     -0.747431
      43A     -0.734348    44A     -0.730296    45A     -0.710364
      46A     -0.687384    47A     -0.677835    48A     -0.673876
      49A     -0.662922    50A     -0.661189    51A     -0.644531
      52A     -0.636179    53A     -0.628143    54A     -0.615331
      55A     -0.605061    56A     -0.598059    57A     -0.581438
      58A     -0.577594    59A     -0.571844    60A     -0.559216
      61A     -0.556016    62A     -0.548649    63A     -0.541563
      64A     -0.536087    65A     -0.530311    66A     -0.521499
      67A     -0.513168    68A     -0.503893    69A     -0.497115
      70A     -0.483522    71A     -0.479754    72A     -0.476243
      73A     -0.461530    74A     -0.455546    75A     -0.449073
      76A     -0.435772

  @DF-RHF Final Energy: -1327.86334027572002

   => Energetics <=

    Nuclear Repulsion Energy =           1773.0178494087745094
    One-Electron Energy =               -5358.1104724691040246
    Two-Electron Energy =                2257.2292827846094951
    Total Energy =                      -1327.8633402757200201
  Basis Set: (AUG-CC-PVTZ AUX)
    Blend: AUG-CC-PVTZ-RI
    Molecular point group: c1

    Geometry (in Angstrom), charge = 0, multiplicity = 1:

       Center              X                  Y                   Z               Mass
    ------------   -----------------  -----------------  -----------------  -----------------
         P           -2.289713858525    -0.938975125936     0.346766484126    30.973761998420
         O           -0.968011758525    -0.206156725936     0.916436384126    15.994914619570
         O            1.342632141475    -1.674415125936     1.232939484126    15.994914619570
         O            0.079087141475     2.360671874064     0.464256484126    15.994914619570
         O            3.068897141475    -2.186004125936    -0.806501515874    15.994914619570
         O            2.847717141475     2.504180874064     0.373623484126    15.994914619570
         O            4.196070141475     0.436464874064    -0.970785515874    15.994914619570
         O           -2.826480858525     0.034418874064    -0.805442515874    15.994914619570
         O           -3.279379558525    -0.735783125936     1.610087784126    15.994914619570
         O           -2.118610858525    -2.342576125936    -0.097579515874    15.994914619570
         C            0.118544141475     0.031076874064     0.018407484126    12.000000000000
         C            0.953674141475    -1.243137125936    -0.073636515874    12.000000000000
         C            0.898971141475     1.203711874064     0.566939484126    12.000000000000
         C            2.260042141475    -1.013239125936    -0.815948515874    12.000000000000
         C            2.177457141475     1.397539874064    -0.225952515874    12.000000000000
         C            3.026224141475     0.149772874064    -0.208233515874    12.000000000000
         C           -3.123830858525     1.432665874064    -0.486797515874    12.000000000000
         C           -3.535934858525     2.086232874064    -1.782030515874    12.000000000000
         H           -0.282709858525     0.299868874064    -0.968149515874     1.007825032230
         H            0.370651141475    -2.028296125936    -0.569943515874     1.007825032230
         H            1.157502141475     0.998944874064     1.614244484126     1.007825032230
         H            2.061316141475    -0.787592125936    -1.870667515874     1.007825032230
         H            1.917369141475     1.637354874064    -1.271494515874     1.007825032230
         H            3.296237141475    -0.093464125936     0.829734484126     1.007825032230
         H            0.522157141475    -1.886964125936     1.713598484126     1.007825032230
         H            0.665922141475     3.110378874064     0.685272484126     1.007825032230
         H            2.973925141475    -2.546306125936     0.096742484126     1.007825032230
         H            3.721811141475     2.550253874064    -0.056780515874     1.007825032230
         H            4.640109141475    -0.422766125936    -1.094998515874     1.007825032230
         H           -3.808012858525    -1.521270125936     1.736816484126     1.007825032230
         H           -3.930163858525     1.446608874064     0.251474484126     1.007825032230
         H           -2.229379858525     1.893947874064    -0.057007515874     1.007825032230
         H           -3.800138858525     3.131949874064    -1.600582515874     1.007825032230
         H           -2.716813858525     2.054390874064    -2.502786515874     1.007825032230
         H           -4.400561858525     1.575390874064    -2.210635515874     1.007825032230

  Basis Set: AUG-CC-PVTZ
    Blend: AUG-CC-PVTZ
  Basis Set: (AUG-CC-PVTZ AUX)
    Blend: AUG-CC-PVTZ-JKFIT
	 Reference Energy          =   -1327.8633402757200201 [Eh]
	 Singles Energy            =      -0.0000000000000000 [Eh]
	 Same-Spin Energy          =      -1.0140901216953577 [Eh]
	 Opposite-Spin Energy      =      -3.0746093947092272 [Eh]
	 Correlation Energy        =      -4.0886995164045850 [Eh]
	 Total Energy              =   -1331.9520397921246513 [Eh]

	 ================> DF-SCS-MP2 Energies <==================
	-----------------------------------------------------------
	 SCS Same-Spin Scale       =       0.3333333333333333 [-]
	 SCS Opposite-Spin Scale   =       1.2000000000000000 [-]
	 SCS Same-Spin Energy      =      -0.3380300405651192 [Eh]
	 SCS Opposite-Spin Energy  =      -3.6895312736510726 [Eh]
	 SCS Correlation Energy    =      -4.0275613142161921 [Eh]
	 SCS Total Energy          =   -1331.8909015899362203 [Eh]
	-----------------------------------------------------------

  Dipole Moment: [D]
     X:    -1.1618      Y:     1.8903      Z:     0.8035     Total:     2.3597

*** Psi4 exiting successfully. Buy a developer a beer!
