                               Psi4 1.3.2 release

  ==> Input File <==

--------------------------------------------------------------------------
#psi4
#
memory 32 gb

molecule  {
0 1
  P       -2.2900960    -0.9400430     0.3446780
  O       -0.9821530    -0.2015620     0.9382890
  O        1.3422500    -1.6754830     1.2308510
  O        0.0787050     2.3596040     0.4621680
  O        3.0685150    -2.1870720    -0.8085900
  O        2.8473350     2.5031130     0.3715350
  O        4.1956880     0.4353970    -0.9728740
  O       -2.8268630     0.0333510    -0.8075310
  O       -3.2591210    -0.7232820     1.6216710
  O       -2.1189930    -2.3436440    -0.0996680
  C        0.1181620     0.0300090     0.0163190
  C        0.9532920    -1.2442050    -0.0757250
  C        0.8985890     1.2026440     0.5648510
  C        2.2659971    -1.0103910    -0.8417599
  C        2.1770750     1.3964720    -0.2280410
  C        3.0258420     0.1487050    -0.2103220
  C       -3.1242130     1.4315980    -0.4888860
  C       -3.5363170     2.0851650    -1.7841190
  H       -0.2830920     0.2988010    -0.9702380
  H        0.3702690    -2.0293640    -0.5720320
  H        1.1571200     0.9978770     1.6121560
  H        2.0609340    -0.7886600    -1.8727560
  H        1.9169870     1.6362870    -1.2735830
  H        3.2958550    -0.0945320     0.8276460
  H        0.5217750    -1.8880320     1.7115100
  H        0.6655400     3.1093110     0.6831840
  H        2.9840047    -2.5601794     0.0904850
  H        3.7214290     2.5491860    -0.0588690
  H        4.6397270    -0.4238340    -1.0970870
  H       -3.8083950    -1.5223380     1.7347280
  H       -3.9305460     1.4455410     0.2493860
  H       -2.2297620     1.8928800    -0.0590960
  H       -3.8005210     3.1308820    -1.6026710
  H       -2.7171960     2.0533230    -2.5048750
  H       -4.4009440     1.5743230    -2.2127240
units angstrom
no_reorient  #important for SAPT in psi4, default
symmetry c1  #important for SAPT in psi4, default
}

set PROPERTIES_ORIGIN ["COM"]
properties('MP2/aug-cc-pvtz', properties = ['dipole'])
--------------------------------------------------------------------------

    Molecular point group: c1
  Charge       = 0
  Multiplicity = 1
  Basis Set: AUG-CC-PVTZ
    Blend: AUG-CC-PVTZ
  Basis Set: (AUG-CC-PVTZ AUX)
    Blend: AUG-CC-PVTZ-JKFIT

    Orbital Energies [Eh]
    ---------------------

    Doubly Occupied:

       1A    -80.116634     2A    -20.614486     3A    -20.606508
       4A    -20.598721     5A    -20.582682     6A    -20.576837
       7A    -20.573641     8A    -20.573490     9A    -20.573286
      10A    -20.523116    11A    -11.320132    12A    -11.303510
      13A    -11.299228    14A    -11.299172    15A    -11.298374
      16A    -11.296618    17A    -11.291441    18A    -11.229768
      19A     -7.632083    20A     -5.530589    21A     -5.530216
      22A     -5.529014    23A     -1.459932    24A     -1.409936
      25A     -1.394465    26A     -1.392134    27A     -1.386620
      28A     -1.372315    29A     -1.363428    30A     -1.353374
      31A     -1.303517    32A     -1.117710    33A     -1.040319
      34A     -1.011602    35A     -1.001880    36A     -0.879305
      37A     -0.864461    38A     -0.860606    39A     -0.822566
      40A     -0.811037    41A     -0.750528    42A     -0.744608
      43A     -0.730832    44A     -0.728238    45A     -0.707668
      46A     -0.686917    47A     -0.678412    48A     -0.673225
      49A     -0.662733    50A     -0.661386    51A     -0.642615
      52A     -0.635032    53A     -0.626765    54A     -0.615124
      55A     -0.603886    56A     -0.599201    57A     -0.581821
      58A     -0.575588    59A     -0.570401    60A     -0.559407
      61A     -0.557157    62A     -0.548329    63A     -0.541086
      64A     -0.536973    65A     -0.529955    66A     -0.521549
      67A     -0.512791    68A     -0.503483    69A     -0.496655
      70A     -0.483733    71A     -0.479522    72A     -0.476279
      73A     -0.461762    74A     -0.455697    75A     -0.449449
      76A     -0.435033

  @DF-RHF Final Energy: -1327.86137191817897

   => Energetics <=

    Nuclear Repulsion Energy =           1771.9867519785614149
    One-Electron Energy =               -5356.1590639570695203
    Two-Electron Energy =                2256.3109400603293579
    Total Energy =                      -1327.8613719181789747
  Basis Set: (AUG-CC-PVTZ AUX)
    Blend: AUG-CC-PVTZ-RI
    Molecular point group: c1

    Geometry (in Angstrom), charge = 0, multiplicity = 1:

       Center              X                  Y                   Z               Mass
    ------------   -----------------  -----------------  -----------------  -----------------
         P           -2.290396558906    -0.940161312801     0.345680821432    30.973761998420
         O           -0.982453558906    -0.201680312801     0.939291821432    15.994914619570
         O            1.341949441094    -1.675601312801     1.231853821432    15.994914619570
         O            0.078404441094     2.359485687199     0.463170821432    15.994914619570
         O            3.068214441094    -2.187190312801    -0.807587178568    15.994914619570
         O            2.847034441094     2.502994687199     0.372537821432    15.994914619570
         O            4.195387441094     0.435278687199    -0.971871178568    15.994914619570
         O           -2.827163558906     0.033232687199    -0.806528178568    15.994914619570
         O           -3.259421558906    -0.723400312801     1.622673821432    15.994914619570
         O           -2.119293558906    -2.343762312801    -0.098665178568    15.994914619570
         C            0.117861441094     0.029890687199     0.017321821432    12.000000000000
         C            0.952991441094    -1.244323312801    -0.074722178568    12.000000000000
         C            0.898288441094     1.202525687199     0.565853821432    12.000000000000
         C            2.265696541094    -1.010509312801    -0.840757078568    12.000000000000
         C            2.176774441094     1.396353687199    -0.227038178568    12.000000000000
         C            3.025541441094     0.148586687199    -0.209319178568    12.000000000000
         C           -3.124513558906     1.431479687199    -0.487883178568    12.000000000000
         C           -3.536617558906     2.085046687199    -1.783116178568    12.000000000000
         H           -0.283392558906     0.298682687199    -0.969235178568     1.007825032230
         H            0.369968441094    -2.029482312801    -0.571029178568     1.007825032230
         H            1.156819441094     0.997758687199     1.613158821432     1.007825032230
         H            2.060633441094    -0.788778312801    -1.871753178568     1.007825032230
         H            1.916686441094     1.636168687199    -1.272580178568     1.007825032230
         H            3.295554441094    -0.094650312801     0.828648821432     1.007825032230
         H            0.521474441094    -1.888150312801     1.712512821432     1.007825032230
         H            0.665239441094     3.109192687199     0.684186821432     1.007825032230
         H            2.983704141094    -2.560297712801     0.091487821432     1.007825032230
         H            3.721128441094     2.549067687199    -0.057866178568     1.007825032230
         H            4.639426441094    -0.423952312801    -1.096084178568     1.007825032230
         H           -3.808695558906    -1.522456312801     1.735730821432     1.007825032230
         H           -3.930846558906     1.445422687199     0.250388821432     1.007825032230
         H           -2.230062558906     1.892761687199    -0.058093178568     1.007825032230
         H           -3.800821558906     3.130763687199    -1.601668178568     1.007825032230
         H           -2.717496558906     2.053204687199    -2.503872178568     1.007825032230
         H           -4.401244558906     1.574204687199    -2.211721178568     1.007825032230

  Basis Set: AUG-CC-PVTZ
    Blend: AUG-CC-PVTZ
  Basis Set: (AUG-CC-PVTZ AUX)
    Blend: AUG-CC-PVTZ-JKFIT
	 Reference Energy          =   -1327.8613719181789747 [Eh]
	 Singles Energy            =      -0.0000000000000000 [Eh]
	 Same-Spin Energy          =      -1.0143331440083885 [Eh]
	 Opposite-Spin Energy      =      -3.0757150208020816 [Eh]
	 Correlation Energy        =      -4.0900481648104705 [Eh]
	 Total Energy              =   -1331.9514200829894435 [Eh]

	 ================> DF-SCS-MP2 Energies <==================
	-----------------------------------------------------------
	 SCS Same-Spin Scale       =       0.3333333333333333 [-]
	 SCS Opposite-Spin Scale   =       1.2000000000000000 [-]
	 SCS Same-Spin Energy      =      -0.3381110480027961 [Eh]
	 SCS Opposite-Spin Energy  =      -3.6908580249624978 [Eh]
	 SCS Correlation Energy    =      -4.0289690729652943 [Eh]
	 SCS Total Energy          =   -1331.8903409911442850 [Eh]
	-----------------------------------------------------------

  Dipole Moment: [D]
     X:    -1.0781      Y:     1.8472      Z:     0.6960     Total:     2.2491

*** Psi4 exiting successfully. Buy a developer a beer!
