                               Psi4 1.3.2 release

  ==> Input File <==

--------------------------------------------------------------------------
#psi4
#
memory 32 gb

molecule  {
0 1
  P       -2.2900960    -0.9400430     0.3446780
  O       -0.9821530    -0.2015620     0.9382890
  O        1.3422500    -1.6754830     1.2308510
  O        0.0787050     2.3596040     0.4621680
  O        3.0868516    -2.1740760    -0.7979530
  O        2.8473350     2.5031130     0.3715350
  O        4.1956880     0.4353970    -0.9728740
  O       -2.8268630     0.0333510    -0.8075310
  O       -3.2591210    -0.7232820     1.6216710
  O       -2.1189930    -2.3436440    -0.0996680
  C        0.1181620     0.0300090     0.0163190
  C        0.9532920    -1.2442050    -0.0757250
  C        0.8985890     1.2026440     0.5648510
  C        2.2596600    -1.0143070    -0.8180370
  C        2.1770750     1.3964720    -0.2280410
  C        3.0465946     0.1326705    -0.2063787
  C       -3.1242130     1.4315980    -0.4888860
  C       -3.5363170     2.0851650    -1.7841190
  H       -0.2830920     0.2988010    -0.9702380
  H        0.3702690    -2.0293640    -0.5720320
  H        1.1571200     0.9978770     1.6121560
  H        2.0609340    -0.7886600    -1.8727560
  H        1.9169870     1.6362870    -1.2735830
  H        3.2958550    -0.0945320     0.8276460
  H        0.5217750    -1.8880320     1.7115100
  H        0.6655400     3.1093110     0.6831840
  H        2.9735430    -2.5473740     0.0946540
  H        3.7214290     2.5491860    -0.0588690
  H        4.6397270    -0.4238340    -1.0970870
  H       -3.8083950    -1.5223380     1.7347280
  H       -3.9305460     1.4455410     0.2493860
  H       -2.2297620     1.8928800    -0.0590960
  H       -3.8005210     3.1308820    -1.6026710
  H       -2.7171960     2.0533230    -2.5048750
  H       -4.4009440     1.5743230    -2.2127240
units angstrom
no_reorient  #important for SAPT in psi4, default
symmetry c1  #important for SAPT in psi4, default
}

set PROPERTIES_ORIGIN ["COM"]
properties('MP2/aug-cc-pvtz', properties = ['dipole'])
--------------------------------------------------------------------------

    Molecular point group: c1
  Charge       = 0
  Multiplicity = 1
  Basis Set: AUG-CC-PVTZ
    Blend: AUG-CC-PVTZ
  Basis Set: (AUG-CC-PVTZ AUX)
    Blend: AUG-CC-PVTZ-JKFIT

    Orbital Energies [Eh]
    ---------------------

    Doubly Occupied:

       1A    -80.116952     2A    -20.614734     3A    -20.607007
       4A    -20.598914     5A    -20.583325     6A    -20.575778
       7A    -20.575357     8A    -20.573319     9A    -20.572960
      10A    -20.523505    11A    -11.320723    12A    -11.304118
      13A    -11.299317    14A    -11.298852    15A    -11.297859
      16A    -11.296177    17A    -11.290245    18A    -11.229808
      19A     -7.632403    20A     -5.530910    21A     -5.530536
      22A     -5.529336    23A     -1.460270    24A     -1.411245
      25A     -1.395705    26A     -1.392727    27A     -1.386917
      28A     -1.374151    29A     -1.363724    30A     -1.354774
      31A     -1.303899    32A     -1.116730    33A     -1.040368
      34A     -1.009790    35A     -1.002315    36A     -0.880710
      37A     -0.865028    38A     -0.857566    39A     -0.822517
      40A     -0.810636    41A     -0.751692    42A     -0.745265
      43A     -0.731378    44A     -0.728549    45A     -0.707480
      46A     -0.687756    47A     -0.678657    48A     -0.673895
      49A     -0.662207    50A     -0.660559    51A     -0.642839
      52A     -0.634770    53A     -0.627232    54A     -0.615087
      55A     -0.603244    56A     -0.599545    57A     -0.582472
      58A     -0.575610    59A     -0.571501    60A     -0.558973
      61A     -0.557741    62A     -0.548757    63A     -0.541295
      64A     -0.535891    65A     -0.530257    66A     -0.521381
      67A     -0.512584    68A     -0.505564    69A     -0.496770
      70A     -0.485036    71A     -0.479838    72A     -0.476681
      73A     -0.462199    74A     -0.452181    75A     -0.449724
      76A     -0.435106

  @DF-RHF Final Energy: -1327.86106090174985

   => Energetics <=

    Nuclear Repulsion Energy =           1772.1783569117847037
    One-Electron Energy =               -5356.5169994664456681
    Two-Electron Energy =                2256.4775816529113399
    Total Energy =                      -1327.8610609017496245
  Basis Set: (AUG-CC-PVTZ AUX)
    Blend: AUG-CC-PVTZ-RI
    Molecular point group: c1

    Geometry (in Angstrom), charge = 0, multiplicity = 1:

       Center              X                  Y                   Z               Mass
    ------------   -----------------  -----------------  -----------------  -----------------
         P           -2.291978636168    -0.940096637313     0.343923089925    30.973761998420
         O           -0.984035636168    -0.201615637313     0.937534089925    15.994914619570
         O            1.340367363832    -1.675536637313     1.230096089925    15.994914619570
         O            0.076822363832     2.359550362687     0.461413089925    15.994914619570
         O            3.084968963832    -2.174129637313    -0.798707910075    15.994914619570
         O            2.845452363832     2.503059362687     0.370780089925    15.994914619570
         O            4.193805363832     0.435343362687    -0.973628910075    15.994914619570
         O           -2.828745636168     0.033297362687    -0.808285910075    15.994914619570
         O           -3.261003636168    -0.723335637313     1.620916089925    15.994914619570
         O           -2.120875636168    -2.343697637313    -0.100422910075    15.994914619570
         C            0.116279363832     0.029955362687     0.015564089925    12.000000000000
         C            0.951409363832    -1.244258637313    -0.076479910075    12.000000000000
         C            0.896706363832     1.202590362687     0.564096089925    12.000000000000
         C            2.257777363832    -1.014360637313    -0.818791910075    12.000000000000
         C            2.175192363832     1.396418362687    -0.228795910075    12.000000000000
         C            3.044711963832     0.132616862687    -0.207133610075    12.000000000000
         C           -3.126095636168     1.431544362687    -0.489640910075    12.000000000000
         C           -3.538199636168     2.085111362687    -1.784873910075    12.000000000000
         H           -0.284974636168     0.298747362687    -0.970992910075     1.007825032230
         H            0.368386363832    -2.029417637313    -0.572786910075     1.007825032230
         H            1.155237363832     0.997823362687     1.611401089925     1.007825032230
         H            2.059051363832    -0.788713637313    -1.873510910075     1.007825032230
         H            1.915104363832     1.636233362687    -1.274337910075     1.007825032230
         H            3.293972363832    -0.094585637313     0.826891089925     1.007825032230
         H            0.519892363832    -1.888085637313     1.710755089925     1.007825032230
         H            0.663657363832     3.109257362687     0.682429089925     1.007825032230
         H            2.971660363832    -2.547427637313     0.093899089925     1.007825032230
         H            3.719546363832     2.549132362687    -0.059623910075     1.007825032230
         H            4.637844363832    -0.423887637313    -1.097841910075     1.007825032230
         H           -3.810277636168    -1.522391637313     1.733973089925     1.007825032230
         H           -3.932428636168     1.445487362687     0.248631089925     1.007825032230
         H           -2.231644636168     1.892826362687    -0.059850910075     1.007825032230
         H           -3.802403636168     3.130828362687    -1.603425910075     1.007825032230
         H           -2.719078636168     2.053269362687    -2.505629910075     1.007825032230
         H           -4.402826636168     1.574269362687    -2.213478910075     1.007825032230

  Basis Set: AUG-CC-PVTZ
    Blend: AUG-CC-PVTZ
  Basis Set: (AUG-CC-PVTZ AUX)
    Blend: AUG-CC-PVTZ-JKFIT
	 Reference Energy          =   -1327.8610609017498518 [Eh]
	 Singles Energy            =      -0.0000000000000000 [Eh]
	 Same-Spin Energy          =      -1.0144505543554811 [Eh]
	 Opposite-Spin Energy      =      -3.0758206186098738 [Eh]
	 Correlation Energy        =      -4.0902711729653554 [Eh]
	 Total Energy              =   -1331.9513320747153102 [Eh]

	 ================> DF-SCS-MP2 Energies <==================
	-----------------------------------------------------------
	 SCS Same-Spin Scale       =       0.3333333333333333 [-]
	 SCS Opposite-Spin Scale   =       1.2000000000000000 [-]
	 SCS Same-Spin Energy      =      -0.3381501847851603 [Eh]
	 SCS Opposite-Spin Energy  =      -3.6909847423318483 [Eh]
	 SCS Correlation Energy    =      -4.0291349271170089 [Eh]
	 SCS Total Energy          =   -1331.8901958288668084 [Eh]
	-----------------------------------------------------------

  Dipole Moment: [D]
     X:    -1.1078      Y:     1.8246      Z:     0.6927     Total:     2.2442

*** Psi4 exiting successfully. Buy a developer a beer!
