                               Psi4 1.3.2 release

  ==> Input File <==

--------------------------------------------------------------------------
#psi4
#
memory 32 gb

molecule  {
0 1
  P       -2.2900960    -0.9400430     0.3446780
  O       -0.9821530    -0.2015620     0.9382890
  O        1.3422500    -1.6754830     1.2308510
  O        0.0787050     2.3596040     0.4621680
  O        3.0685150    -2.1870720    -0.8085900
  O        2.8473350     2.5031130     0.3715350
  O        4.1956880     0.4353970    -0.9728740
  O       -2.8268630     0.0333510    -0.8075310
  O       -3.2591210    -0.7232820     1.6216710
  O       -2.1189930    -2.3436440    -0.0996680
  C        0.1181620     0.0300090     0.0163190
  C        0.9532920    -1.2442050    -0.0757250
  C        0.8985890     1.2026440     0.5648510
  C        2.2185439    -0.9817903    -0.8261137
  C        2.1384315     1.3687519    -0.2506956
  C        3.0258420     0.1487050    -0.2103220
  C       -3.1242130     1.4315980    -0.4888860
  C       -3.5363170     2.0851650    -1.7841190
  H       -0.2830920     0.2988010    -0.9702380
  H        0.3702690    -2.0293640    -0.5720320
  H        1.1571200     0.9978770     1.6121560
  H        2.0609340    -0.7886600    -1.8727560
  H        1.9169870     1.6362870    -1.2735830
  H        3.2958550    -0.0945320     0.8276460
  H        0.5217750    -1.8880320     1.7115100
  H        0.6655400     3.1093110     0.6831840
  H        2.9735430    -2.5473740     0.0946540
  H        3.7214290     2.5491860    -0.0588690
  H        4.6397270    -0.4238340    -1.0970870
  H       -3.8083950    -1.5223380     1.7347280
  H       -3.9305460     1.4455410     0.2493860
  H       -2.2297620     1.8928800    -0.0590960
  H       -3.8005210     3.1308820    -1.6026710
  H       -2.7171960     2.0533230    -2.5048750
  H       -4.4009440     1.5743230    -2.2127240
units angstrom
no_reorient  #important for SAPT in psi4, default
symmetry c1  #important for SAPT in psi4, default
}

set PROPERTIES_ORIGIN ["COM"]
properties('MP2/aug-cc-pvtz', properties = ['dipole'])
--------------------------------------------------------------------------

    Molecular point group: c1
  Charge       = 0
  Multiplicity = 1
  Basis Set: AUG-CC-PVTZ
    Blend: AUG-CC-PVTZ
  Basis Set: (AUG-CC-PVTZ AUX)
    Blend: AUG-CC-PVTZ-JKFIT

    Orbital Energies [Eh]
    ---------------------

    Doubly Occupied:

       1A    -80.117740     2A    -20.615404     3A    -20.607829
       4A    -20.599789     5A    -20.585054     6A    -20.576108
       7A    -20.574921     8A    -20.570729     9A    -20.568911
      10A    -20.524299    11A    -11.322151    12A    -11.305534
      13A    -11.300338    14A    -11.300155    15A    -11.299681
      16A    -11.296955    17A    -11.294968    18A    -11.230554
      19A     -7.633194    20A     -5.531700    21A     -5.531326
      22A     -5.530126    23A     -1.461170    24A     -1.409338
      25A     -1.391010    26A     -1.388982    27A     -1.387270
      28A     -1.373838    29A     -1.350724    30A     -1.342878
      31A     -1.304689    32A     -1.128308    33A     -1.041249
      34A     -1.014931    35A     -1.011459    36A     -0.882405
      37A     -0.865970    38A     -0.858641    39A     -0.822723
      40A     -0.814482    41A     -0.751503    42A     -0.744302
      43A     -0.733385    44A     -0.729195    45A     -0.705078
      46A     -0.688306    47A     -0.676257    48A     -0.674382
      49A     -0.661758    50A     -0.654730    51A     -0.640767
      52A     -0.636142    53A     -0.626109    54A     -0.615160
      55A     -0.603115    56A     -0.594791    57A     -0.582591
      58A     -0.576463    59A     -0.571060    60A     -0.558903
      61A     -0.553665    62A     -0.549224    63A     -0.542433
      64A     -0.534967    65A     -0.530037    66A     -0.522007
      67A     -0.512888    68A     -0.505918    69A     -0.497942
      70A     -0.486378    71A     -0.480741    72A     -0.477473
      73A     -0.468163    74A     -0.459897    75A     -0.453222
      76A     -0.437486

  @DF-RHF Final Energy: -1327.85362176656372

   => Energetics <=

    Nuclear Repulsion Energy =           1773.2217567863192471
    One-Electron Energy =               -5358.5428204285444735
    Two-Electron Energy =                2257.4674418756617342
    Total Energy =                      -1327.8536217665637196
  Basis Set: (AUG-CC-PVTZ AUX)
    Blend: AUG-CC-PVTZ-RI
    Molecular point group: c1

    Geometry (in Angstrom), charge = 0, multiplicity = 1:

       Center              X                  Y                   Z               Mass
    ------------   -----------------  -----------------  -----------------  -----------------
         P           -2.286773354468    -0.940242798324     0.345958190365    30.973761998420
         O           -0.978830354468    -0.201761798324     0.939569190365    15.994914619570
         O            1.345572645532    -1.675682798324     1.232131190365    15.994914619570
         O            0.082027645532     2.359404201676     0.463448190365    15.994914619570
         O            3.071837645532    -2.187271798324    -0.807309809635    15.994914619570
         O            2.850657645532     2.502913201676     0.372815190365    15.994914619570
         O            4.199010645532     0.435197201676    -0.971593809635    15.994914619570
         O           -2.823540354468     0.033151201676    -0.806250809635    15.994914619570
         O           -3.255798354468    -0.723481798324     1.622951190365    15.994914619570
         O           -2.115670354468    -2.343843798324    -0.098387809635    15.994914619570
         C            0.121484645532     0.029809201676     0.017599190365    12.000000000000
         C            0.956614645532    -1.244404798324    -0.074444809635    12.000000000000
         C            0.901911645532     1.202444201676     0.566131190365    12.000000000000
         C            2.221866545532    -0.981990098324    -0.824833509635    12.000000000000
         C            2.141754145532     1.368552101676    -0.249415409635    12.000000000000
         C            3.029164645532     0.148505201676    -0.209041809635    12.000000000000
         C           -3.120890354468     1.431398201676    -0.487605809635    12.000000000000
         C           -3.532994354468     2.084965201676    -1.782838809635    12.000000000000
         H           -0.279769354468     0.298601201676    -0.968957809635     1.007825032230
         H            0.373591645532    -2.029563798324    -0.570751809635     1.007825032230
         H            1.160442645532     0.997677201676     1.613436190365     1.007825032230
         H            2.064256645532    -0.788859798324    -1.871475809635     1.007825032230
         H            1.920309645532     1.636087201676    -1.272302809635     1.007825032230
         H            3.299177645532    -0.094731798324     0.828926190365     1.007825032230
         H            0.525097645532    -1.888231798324     1.712790190365     1.007825032230
         H            0.668862645532     3.109111201676     0.684464190365     1.007825032230
         H            2.976865645532    -2.547573798324     0.095934190365     1.007825032230
         H            3.724751645532     2.548986201676    -0.057588809635     1.007825032230
         H            4.643049645532    -0.424033798324    -1.095806809635     1.007825032230
         H           -3.805072354468    -1.522537798324     1.736008190365     1.007825032230
         H           -3.927223354468     1.445341201676     0.250666190365     1.007825032230
         H           -2.226439354468     1.892680201676    -0.057815809635     1.007825032230
         H           -3.797198354468     3.130682201676    -1.601390809635     1.007825032230
         H           -2.713873354468     2.053123201676    -2.503594809635     1.007825032230
         H           -4.397621354468     1.574123201676    -2.211443809635     1.007825032230

  Basis Set: AUG-CC-PVTZ
    Blend: AUG-CC-PVTZ
  Basis Set: (AUG-CC-PVTZ AUX)
    Blend: AUG-CC-PVTZ-JKFIT
	 Reference Energy          =   -1327.8536217665637196 [Eh]
	 Singles Energy            =      -0.0000000000000000 [Eh]
	 Same-Spin Energy          =      -1.0152854821938562 [Eh]
	 Opposite-Spin Energy      =      -3.0781714560266269 [Eh]
	 Correlation Energy        =      -4.0934569382204833 [Eh]
	 Total Energy              =   -1331.9470787047841895 [Eh]

	 ================> DF-SCS-MP2 Energies <==================
	-----------------------------------------------------------
	 SCS Same-Spin Scale       =       0.3333333333333333 [-]
	 SCS Opposite-Spin Scale   =       1.2000000000000000 [-]
	 SCS Same-Spin Energy      =      -0.3384284940646187 [Eh]
	 SCS Opposite-Spin Energy  =      -3.6938057472319521 [Eh]
	 SCS Correlation Energy    =      -4.0322342412965710 [Eh]
	 SCS Total Energy          =   -1331.8858560078601840 [Eh]
	-----------------------------------------------------------

  Dipole Moment: [D]
     X:    -1.3162      Y:     1.8677      Z:     0.6576     Total:     2.3777

*** Psi4 exiting successfully. Buy a developer a beer!
