                               Psi4 1.3.2 release

  ==> Input File <==

--------------------------------------------------------------------------
#psi4
#
memory 32 gb

molecule  {
0 1
  P       -2.2900960    -0.9400430     0.3446780
  O       -0.9821530    -0.2015620     0.9382890
  O        1.3422500    -1.6754830     1.2308510
  O        0.0787050     2.3596040     0.4621680
  O        3.0685150    -2.1870720    -0.8085900
  O        2.8473350     2.5031130     0.3715350
  O        4.1956880     0.4353970    -0.9728740
  O       -2.8268630     0.0333510    -0.8075310
  O       -3.2591210    -0.7232820     1.6216710
  O       -2.1189930    -2.3436440    -0.0996680
  C        0.1181620     0.0300090     0.0163190
  C        0.9532920    -1.2442050    -0.0757250
  C        0.8985890     1.2026440     0.5648510
  C        2.2596600    -1.0143070    -0.8180370
  C        2.1770750     1.3964720    -0.2280410
  C        3.0388442     0.1006757    -0.2100558
  C       -3.1242130     1.4315980    -0.4888860
  C       -3.5363170     2.0851650    -1.7841190
  H       -0.2830920     0.2988010    -0.9702380
  H        0.3702690    -2.0293640    -0.5720320
  H        1.1571200     0.9978770     1.6121560
  H        2.0609340    -0.7886600    -1.8727560
  H        1.9169870     1.6362870    -1.2735830
  H        3.2958550    -0.0945320     0.8276460
  H        0.5217750    -1.8880320     1.7115100
  H        0.6655400     3.1093110     0.6831840
  H        2.9735430    -2.5473740     0.0946540
  H        3.7214290     2.5491860    -0.0588690
  H        4.6147494    -0.4386358    -1.0793240
  H       -3.8083950    -1.5223380     1.7347280
  H       -3.9305460     1.4455410     0.2493860
  H       -2.2297620     1.8928800    -0.0590960
  H       -3.8005210     3.1308820    -1.6026710
  H       -2.7171960     2.0533230    -2.5048750
  H       -4.4009440     1.5743230    -2.2127240
units angstrom
no_reorient  #important for SAPT in psi4, default
symmetry c1  #important for SAPT in psi4, default
}

set PROPERTIES_ORIGIN ["COM"]
properties('MP2/aug-cc-pvtz', properties = ['dipole'])
--------------------------------------------------------------------------

    Molecular point group: c1
  Charge       = 0
  Multiplicity = 1
  Basis Set: AUG-CC-PVTZ
    Blend: AUG-CC-PVTZ
  Basis Set: (AUG-CC-PVTZ AUX)
    Blend: AUG-CC-PVTZ-JKFIT

    Orbital Energies [Eh]
    ---------------------

    Doubly Occupied:

       1A    -80.117018     2A    -20.614792     3A    -20.607065
       4A    -20.598951     5A    -20.583815     6A    -20.576905
       7A    -20.576046     8A    -20.574179     9A    -20.572547
      10A    -20.523603    11A    -11.320739    12A    -11.304653
      13A    -11.299318    14A    -11.298812    15A    -11.297694
      16A    -11.297009    17A    -11.291086    18A    -11.229812
      19A     -7.632470    20A     -5.530976    21A     -5.530602
      22A     -5.529402    23A     -1.460336    24A     -1.411542
      25A     -1.395239    26A     -1.392943    27A     -1.386949
      28A     -1.373769    29A     -1.363903    30A     -1.354615
      31A     -1.303993    32A     -1.117797    33A     -1.040400
      34A     -1.012005    35A     -1.001703    36A     -0.881683
      37A     -0.865310    38A     -0.856537    39A     -0.822611
      40A     -0.811322    41A     -0.751593    42A     -0.745037
      43A     -0.731132    44A     -0.728590    45A     -0.707767
      46A     -0.688584    47A     -0.678395    48A     -0.673544
      49A     -0.661485    50A     -0.660154    51A     -0.642991
      52A     -0.632798    53A     -0.627560    54A     -0.615457
      55A     -0.603629    56A     -0.600195    57A     -0.582996
      58A     -0.575587    59A     -0.572087    60A     -0.559204
      61A     -0.558314    62A     -0.548840    63A     -0.541279
      64A     -0.536851    65A     -0.530186    66A     -0.521772
      67A     -0.512981    68A     -0.505225    69A     -0.496868
      70A     -0.484865    71A     -0.479899    72A     -0.476865
      73A     -0.462331    74A     -0.450646    75A     -0.448880
      76A     -0.440709

  @DF-RHF Final Energy: -1327.85784111032081

   => Energetics <=

    Nuclear Repulsion Energy =           1772.3379764145065565
    One-Electron Energy =               -5356.8007400654396406
    Two-Electron Energy =                2256.6049225406122787
    Total Energy =                      -1327.8578411103208055
  Basis Set: (AUG-CC-PVTZ AUX)
    Blend: AUG-CC-PVTZ-RI
    Molecular point group: c1

    Geometry (in Angstrom), charge = 0, multiplicity = 1:

       Center              X                  Y                   Z               Mass
    ------------   -----------------  -----------------  -----------------  -----------------
         P           -2.290550222830    -0.937990399070     0.344604754911    30.973761998420
         O           -0.982607222830    -0.199509399070     0.938215754911    15.994914619570
         O            1.341795777170    -1.673430399070     1.230777754911    15.994914619570
         O            0.078250777170     2.361656600930     0.462094754911    15.994914619570
         O            3.068060777170    -2.185019399070    -0.808663245089    15.994914619570
         O            2.846880777170     2.505165600930     0.371461754911    15.994914619570
         O            4.195233777170     0.437449600930    -0.972947245089    15.994914619570
         O           -2.827317222830     0.035403600930    -0.807604245089    15.994914619570
         O           -3.259575222830    -0.721229399070     1.621597754911    15.994914619570
         O           -2.119447222830    -2.341591399070    -0.099741245089    15.994914619570
         C            0.117707777170     0.032061600930     0.016245754911    12.000000000000
         C            0.952837777170    -1.242152399070    -0.075798245089    12.000000000000
         C            0.898134777170     1.204696600930     0.564777754911    12.000000000000
         C            2.259205777170    -1.012254399070    -0.818110245089    12.000000000000
         C            2.176620777170     1.398524600930    -0.228114245089    12.000000000000
         C            3.038389977170     0.102728300930    -0.210129045089    12.000000000000
         C           -3.124667222830     1.433650600930    -0.488959245089    12.000000000000
         C           -3.536771222830     2.087217600930    -1.784192245089    12.000000000000
         H           -0.283546222830     0.300853600930    -0.970311245089     1.007825032230
         H            0.369814777170    -2.027311399070    -0.572105245089     1.007825032230
         H            1.156665777170     0.999929600930     1.612082754911     1.007825032230
         H            2.060479777170    -0.786607399070    -1.872829245089     1.007825032230
         H            1.916532777170     1.638339600930    -1.273656245089     1.007825032230
         H            3.295400777170    -0.092479399070     0.827572754911     1.007825032230
         H            0.521320777170    -1.885979399070     1.711436754911     1.007825032230
         H            0.665085777170     3.111363600930     0.683110754911     1.007825032230
         H            2.973088777170    -2.545321399070     0.094580754911     1.007825032230
         H            3.720974777170     2.551238600930    -0.058942245089     1.007825032230
         H            4.614295177170    -0.436583199070    -1.079397245089     1.007825032230
         H           -3.808849222830    -1.520285399070     1.734654754911     1.007825032230
         H           -3.931000222830     1.447593600930     0.249312754911     1.007825032230
         H           -2.230216222830     1.894932600930    -0.059169245089     1.007825032230
         H           -3.800975222830     3.132934600930    -1.602744245089     1.007825032230
         H           -2.717650222830     2.055375600930    -2.504948245089     1.007825032230
         H           -4.401398222830     1.576375600930    -2.212797245089     1.007825032230

  Basis Set: AUG-CC-PVTZ
    Blend: AUG-CC-PVTZ
  Basis Set: (AUG-CC-PVTZ AUX)
    Blend: AUG-CC-PVTZ-JKFIT
	 Reference Energy          =   -1327.8578411103208055 [Eh]
	 Singles Energy            =      -0.0000000000000000 [Eh]
	 Same-Spin Energy          =      -1.0148247828218113 [Eh]
	 Opposite-Spin Energy      =      -3.0766765983104962 [Eh]
	 Correlation Energy        =      -4.0915013811323071 [Eh]
	 Total Energy              =   -1331.9493424914530806 [Eh]

	 ================> DF-SCS-MP2 Energies <==================
	-----------------------------------------------------------
	 SCS Same-Spin Scale       =       0.3333333333333333 [-]
	 SCS Opposite-Spin Scale   =       1.2000000000000000 [-]
	 SCS Same-Spin Energy      =      -0.3382749276072704 [Eh]
	 SCS Opposite-Spin Energy  =      -3.6920119179725952 [Eh]
	 SCS Correlation Energy    =      -4.0302868455798659 [Eh]
	 SCS Total Energy          =   -1331.8881279559006998 [Eh]
	-----------------------------------------------------------

  Dipole Moment: [D]
     X:    -1.1299      Y:     1.8359      Z:     0.7424     Total:     2.2800

*** Psi4 exiting successfully. Buy a developer a beer!
