                               Psi4 1.4a3.dev225

  ==> Input File <==

--------------------------------------------------------------------------
#psi4
#
memory 32 gb

molecule  {
0 1
  P       -2.3219140    -1.0563120    -0.0968450
  O       -1.0285840    -0.5623410     0.7549430
  O        1.3695440    -1.8069540     1.2202350
  O       -0.1592450     2.1412630     0.5207450
  O        3.3269040    -2.0858120    -0.6453880
  O        2.5724350     2.5270130     0.6374560
  O        4.2203020     0.6406430    -0.6358120
  O       -2.8737010     0.2643620    -0.8096810
  O       -3.3065970    -1.3497020     1.1531960
  O       -2.1044560    -2.1814480    -1.0350500
  C        0.1200290    -0.1583450    -0.0432010
  C        1.0698050    -1.3527180    -0.1046720
  C        0.7441670     1.0454510     0.6308160
  C        2.4193320    -0.9866070    -0.7068450
  C        2.0603010     1.3853380    -0.0470020
  C        3.0180900     0.2181970     0.0056710
  C       -3.2473180     1.4231610     0.0025120
  C       -3.2076300     2.6262440    -0.9075720
  H       -0.2047330     0.1313700    -1.0514980
  H        0.6051197    -2.1403524    -0.6760435
  H        0.9371260     0.8063110     1.6860210
  H        2.3054700    -0.7437210    -1.7704410
  H        1.8633300     1.6367370    -1.1028410
  H        3.2142070    -0.0417910     1.0561650
  H        0.5126160    -2.0057500     1.6426110
  H        0.3598300     2.9232990     0.7925780
  H        3.1793900    -2.4823080     0.2360710
  H        3.4672560     2.6739710     0.2770410
  H        4.7639490    -0.1654590    -0.7244900
  H       -3.7873380    -2.1826420     0.9908450
  H       -4.2474700     1.2335250     0.4005830
  H       -2.5352900     1.5309660     0.8217280
  H       -3.5402110     3.5125760    -0.3587690
  H       -2.1856630     2.7912820    -1.2511950
  H       -3.8637180     2.4807570    -1.7684970
units angstrom
no_reorient  #important for SAPT in psi4, default
symmetry c1  #important for SAPT in psi4, default
}

set PROPERTIES_ORIGIN ["COM"]
properties('MP2/aug-cc-pvtz', properties = ['dipole'])
--------------------------------------------------------------------------

    Molecular point group: c1
  Charge       = 0
  Multiplicity = 1
  Basis Set: AUG-CC-PVTZ
    Blend: AUG-CC-PVTZ
  Basis Set: (AUG-CC-PVTZ AUX)
    Blend: AUG-CC-PVTZ-JKFIT

    Orbital Energies [Eh]
    ---------------------

    Doubly Occupied:

       1A    -80.116881     2A    -20.615046     3A    -20.608139
       4A    -20.596063     5A    -20.583881     6A    -20.578495
       7A    -20.575305     8A    -20.575236     9A    -20.574611
      10A    -20.522635    11A    -11.321318    12A    -11.303150
      13A    -11.300557    14A    -11.300241    15A    -11.298364
      16A    -11.296176    17A    -11.292968    18A    -11.222918
      19A     -7.632145    20A     -5.530679    21A     -5.530177
      22A     -5.529116    23A     -1.458549    24A     -1.410946
      25A     -1.395451    26A     -1.392723    27A     -1.385223
      28A     -1.372722    29A     -1.364226    30A     -1.354272
      31A     -1.302797    32A     -1.118908    33A     -1.035539
      34A     -1.011609    35A     -1.004213    36A     -0.878301
      37A     -0.862550    38A     -0.860086    39A     -0.822876
      40A     -0.810159    41A     -0.754517    42A     -0.746257
      43A     -0.730095    44A     -0.726283    45A     -0.705795
      46A     -0.687131    47A     -0.679659    48A     -0.674431
      49A     -0.662372    50A     -0.659445    51A     -0.642634
      52A     -0.637815    53A     -0.623823    54A     -0.613261
      55A     -0.604317    56A     -0.596988    57A     -0.580896
      58A     -0.577763    59A     -0.570345    60A     -0.560000
      61A     -0.555489    62A     -0.548328    63A     -0.538921
      64A     -0.537817    65A     -0.530202    66A     -0.517817
      67A     -0.508621    68A     -0.503609    69A     -0.494808
      70A     -0.487483    71A     -0.478751    72A     -0.475537
      73A     -0.462754    74A     -0.457267    75A     -0.451266
      76A     -0.437246

  @DF-RHF Final Energy: -1327.86114033447711

   => Energetics <=

    Nuclear Repulsion Energy =           1774.7410660667078446
    One-Electron Energy =               -5361.6744227143262833
    Two-Electron Energy =                2259.0722163131413254
    Total Energy =                      -1327.8611403344771134
  Basis Set: (AUG-CC-PVTZ AUX)
    Blend: AUG-CC-PVTZ-RI
    Molecular point group: c1

    Geometry (in Angstrom), charge = 0, multiplicity = 1:

       Center              X                  Y                   Z               Mass
    ------------   -----------------  -----------------  -----------------  -----------------
         P           -2.311182770904    -1.018584051542    -0.099326554604    30.973761998420
         O           -1.017852770904    -0.524613051542     0.752461445396    15.994914619570
         O            1.380275229096    -1.769226051542     1.217753445396    15.994914619570
         O           -0.148513770904     2.178990948458     0.518263445396    15.994914619570
         O            3.337635229096    -2.048084051542    -0.647869554604    15.994914619570
         O            2.583166229096     2.564740948458     0.634974445396    15.994914619570
         O            4.231033229096     0.678370948458    -0.638293554604    15.994914619570
         O           -2.862969770904     0.302089948458    -0.812162554604    15.994914619570
         O           -3.295865770904    -1.311974051542     1.150714445396    15.994914619570
         O           -2.093724770904    -2.143720051542    -1.037531554604    15.994914619570
         C            0.130760229096    -0.120617051542    -0.045682554604    12.000000000000
         C            1.080536229096    -1.314990051542    -0.107153554604    12.000000000000
         C            0.754898229096     1.083178948458     0.628334445396    12.000000000000
         C            2.430063229096    -0.948879051542    -0.709326554604    12.000000000000
         C            2.071032229096     1.423065948458    -0.049483554604    12.000000000000
         C            3.028821229096     0.255924948458     0.003189445396    12.000000000000
         C           -3.236586770904     1.460888948458     0.000030445396    12.000000000000
         C           -3.196898770904     2.663971948458    -0.910053554604    12.000000000000
         H           -0.194001770904     0.169097948458    -1.053979554604     1.007825032230
         H            0.615850929096    -2.102624451542    -0.678525054604     1.007825032230
         H            0.947857229096     0.844038948458     1.683539445396     1.007825032230
         H            2.316201229096    -0.705993051542    -1.772922554604     1.007825032230
         H            1.874061229096     1.674464948458    -1.105322554604     1.007825032230
         H            3.224938229096    -0.004063051542     1.053683445396     1.007825032230
         H            0.523347229096    -1.968022051542     1.640129445396     1.007825032230
         H            0.370561229096     2.961026948458     0.790096445396     1.007825032230
         H            3.190121229096    -2.444580051542     0.233589445396     1.007825032230
         H            3.477987229096     2.711698948458     0.274559445396     1.007825032230
         H            4.774680229096    -0.127731051542    -0.726971554604     1.007825032230
         H           -3.776606770904    -2.144914051542     0.988363445396     1.007825032230
         H           -4.236738770904     1.271252948458     0.398101445396     1.007825032230
         H           -2.524558770904     1.568693948458     0.819246445396     1.007825032230
         H           -3.529479770904     3.550303948458    -0.361250554604     1.007825032230
         H           -2.174931770904     2.829009948458    -1.253676554604     1.007825032230
         H           -3.852986770904     2.518484948458    -1.770978554604     1.007825032230

  Basis Set: AUG-CC-PVTZ
    Blend: AUG-CC-PVTZ
  Basis Set: (AUG-CC-PVTZ AUX)
    Blend: AUG-CC-PVTZ-JKFIT
	 Reference Energy          =   -1327.8611403344771134 [Eh]
	 Singles Energy            =      -0.0000000000000000 [Eh]
	 Same-Spin Energy          =      -1.0146467435087279 [Eh]
	 Opposite-Spin Energy      =      -3.0763862207845603 [Eh]
	 Correlation Energy        =      -4.0910329642932881 [Eh]
	 Total Energy              =   -1331.9521732987705036 [Eh]

	 ================> DF-SCS-MP2 Energies <==================
	-----------------------------------------------------------
	 SCS Same-Spin Scale       =       0.3333333333333333 [-]
	 SCS Opposite-Spin Scale   =       1.2000000000000000 [-]
	 SCS Same-Spin Energy      =      -0.3382155811695760 [Eh]
	 SCS Opposite-Spin Energy  =      -3.6916634649414721 [Eh]
	 SCS Correlation Energy    =      -4.0298790461110476 [Eh]
	 SCS Total Energy          =   -1331.8910193805882045 [Eh]
	-----------------------------------------------------------

  Dipole Moment: [D]
     X:    -0.8645      Y:     1.4172      Z:     1.8727     Total:     2.5026

*** Psi4 exiting successfully. Buy a developer a beer!
