                               Psi4 1.3.2 release

  ==> Input File <==

--------------------------------------------------------------------------
#psi4
#
memory 32 gb

molecule  {
0 1
  P       -2.2900960    -0.9400430     0.3446780
  O       -0.9821530    -0.2015620     0.9382890
  O        1.3422500    -1.6754830     1.2308510
  O        0.0787050     2.3596040     0.4621680
  O        3.0685150    -2.1870720    -0.8085900
  O        2.8473350     2.5031130     0.3715350
  O        4.1956880     0.4353970    -0.9728740
  O       -2.8268630     0.0333510    -0.8075310
  O       -3.2591210    -0.7232820     1.6216710
  O       -2.1189930    -2.3436440    -0.0996680
  C        0.1181620     0.0300090     0.0163190
  C        0.9532920    -1.2442050    -0.0757250
  C        0.8985890     1.2026440     0.5648510
  C        2.2629420    -1.0049366    -0.8092406
  C        2.1770750     1.3964720    -0.2280410
  C        3.0258420     0.1487050    -0.2103220
  C       -3.1242130     1.4315980    -0.4888860
  C       -3.5363170     2.0851650    -1.7841190
  H       -0.2830920     0.2988010    -0.9702380
  H        0.3633960    -2.0283641    -0.5654477
  H        1.1571200     0.9978770     1.6121560
  H        2.0609340    -0.7886600    -1.8727560
  H        1.9169870     1.6362870    -1.2735830
  H        3.2958550    -0.0945320     0.8276460
  H        0.5217750    -1.8880320     1.7115100
  H        0.6655400     3.1093110     0.6831840
  H        2.9735430    -2.5473740     0.0946540
  H        3.7214290     2.5491860    -0.0588690
  H        4.6397270    -0.4238340    -1.0970870
  H       -3.8083950    -1.5223380     1.7347280
  H       -3.9305460     1.4455410     0.2493860
  H       -2.2297620     1.8928800    -0.0590960
  H       -3.8005210     3.1308820    -1.6026710
  H       -2.7171960     2.0533230    -2.5048750
  H       -4.4009440     1.5743230    -2.2127240
units angstrom
no_reorient  #important for SAPT in psi4, default
symmetry c1  #important for SAPT in psi4, default
}

set PROPERTIES_ORIGIN ["COM"]
properties('MP2/aug-cc-pvtz', properties = ['dipole'])
--------------------------------------------------------------------------

    Molecular point group: c1
  Charge       = 0
  Multiplicity = 1
  Basis Set: AUG-CC-PVTZ
    Blend: AUG-CC-PVTZ
  Basis Set: (AUG-CC-PVTZ AUX)
    Blend: AUG-CC-PVTZ-JKFIT

    Orbital Energies [Eh]
    ---------------------

    Doubly Occupied:

       1A    -80.117060     2A    -20.614819     3A    -20.607102
       4A    -20.599018     5A    -20.582938     6A    -20.577069
       7A    -20.574532     8A    -20.574152     9A    -20.573636
      10A    -20.523607    11A    -11.320670    12A    -11.303803
      13A    -11.299650    14A    -11.299451    15A    -11.298812
      16A    -11.297083    17A    -11.291596    18A    -11.229912
      19A     -7.632511    20A     -5.531017    21A     -5.530643
      22A     -5.529443    23A     -1.460379    24A     -1.410758
      25A     -1.394956    26A     -1.392636    27A     -1.386922
      28A     -1.372974    29A     -1.363387    30A     -1.353476
      31A     -1.304010    32A     -1.120128    33A     -1.040542
      34A     -1.013454    35A     -1.003431    36A     -0.880873
      37A     -0.865123    38A     -0.858939    39A     -0.822249
      40A     -0.810396    41A     -0.751867    42A     -0.745632
      43A     -0.731709    44A     -0.728705    45A     -0.708147
      46A     -0.687702    47A     -0.677250    48A     -0.673872
      49A     -0.662693    50A     -0.660750    51A     -0.643353
      52A     -0.635145    53A     -0.627213    54A     -0.615425
      55A     -0.603725    56A     -0.597539    57A     -0.581675
      58A     -0.575538    59A     -0.571311    60A     -0.559442
      61A     -0.556621    62A     -0.548521    63A     -0.541139
      64A     -0.535905    65A     -0.529633    66A     -0.521669
      67A     -0.513121    68A     -0.504300    69A     -0.497223
      70A     -0.484631    71A     -0.479919    72A     -0.476763
      73A     -0.462485    74A     -0.456222    75A     -0.450093
      76A     -0.439013

  @DF-RHF Final Energy: -1327.86089822118220

   => Energetics <=

    Nuclear Repulsion Energy =           1772.6409170590688973
    One-Electron Energy =               -5357.4054227586639172
    Two-Electron Energy =                2256.9036074784130506
    Total Energy =                      -1327.8608982211821967
  Basis Set: (AUG-CC-PVTZ AUX)
    Blend: AUG-CC-PVTZ-RI
    Molecular point group: c1

    Geometry (in Angstrom), charge = 0, multiplicity = 1:

       Center              X                  Y                   Z               Mass
    ------------   -----------------  -----------------  -----------------  -----------------
         P           -2.290208641969    -0.940436831256     0.344288515572    30.973761998420
         O           -0.982265641969    -0.201955831256     0.937899515572    15.994914619570
         O            1.342137358031    -1.675876831256     1.230461515572    15.994914619570
         O            0.078592358031     2.359210168744     0.461778515572    15.994914619570
         O            3.068402358031    -2.187465831256    -0.808979484428    15.994914619570
         O            2.847222358031     2.502719168744     0.371145515572    15.994914619570
         O            4.195575358031     0.435003168744    -0.973263484428    15.994914619570
         O           -2.826975641969     0.032957168744    -0.807920484428    15.994914619570
         O           -3.259233641969    -0.723675831256     1.621281515572    15.994914619570
         O           -2.119105641969    -2.344037831256    -0.100057484428    15.994914619570
         C            0.118049358031     0.029615168744     0.015929515572    12.000000000000
         C            0.953179358031    -1.244598831256    -0.076114484428    12.000000000000
         C            0.898476358031     1.202250168744     0.564461515572    12.000000000000
         C            2.262829358031    -1.005330431256    -0.809630084428    12.000000000000
         C            2.176962358031     1.396078168744    -0.228430484428    12.000000000000
         C            3.025729358031     0.148311168744    -0.210711484428    12.000000000000
         C           -3.124325641969     1.431204168744    -0.489275484428    12.000000000000
         C           -3.536429641969     2.084771168744    -1.784508484428    12.000000000000
         H           -0.283204641969     0.298407168744    -0.970627484428     1.007825032230
         H            0.363283358031    -2.028757931256    -0.565837184428     1.007825032230
         H            1.157007358031     0.997483168744     1.611766515572     1.007825032230
         H            2.060821358031    -0.789053831256    -1.873145484428     1.007825032230
         H            1.916874358031     1.635893168744    -1.273972484428     1.007825032230
         H            3.295742358031    -0.094925831256     0.827256515572     1.007825032230
         H            0.521662358031    -1.888425831256     1.711120515572     1.007825032230
         H            0.665427358031     3.108917168744     0.682794515572     1.007825032230
         H            2.973430358031    -2.547767831256     0.094264515572     1.007825032230
         H            3.721316358031     2.548792168744    -0.059258484428     1.007825032230
         H            4.639614358031    -0.424227831256    -1.097476484428     1.007825032230
         H           -3.808507641969    -1.522731831256     1.734338515572     1.007825032230
         H           -3.930658641969     1.445147168744     0.248996515572     1.007825032230
         H           -2.229874641969     1.892486168744    -0.059485484428     1.007825032230
         H           -3.800633641969     3.130488168744    -1.603060484428     1.007825032230
         H           -2.717308641969     2.052929168744    -2.505264484428     1.007825032230
         H           -4.401056641969     1.573929168744    -2.213113484428     1.007825032230

  Basis Set: AUG-CC-PVTZ
    Blend: AUG-CC-PVTZ
  Basis Set: (AUG-CC-PVTZ AUX)
    Blend: AUG-CC-PVTZ-JKFIT
	 Reference Energy          =   -1327.8608982211821967 [Eh]
	 Singles Energy            =      -0.0000000000000000 [Eh]
	 Same-Spin Energy          =      -1.0147277397998491 [Eh]
	 Opposite-Spin Energy      =      -3.0763154525574450 [Eh]
	 Correlation Energy        =      -4.0910431923572936 [Eh]
	 Total Energy              =   -1331.9519414135395436 [Eh]

	 ================> DF-SCS-MP2 Energies <==================
	-----------------------------------------------------------
	 SCS Same-Spin Scale       =       0.3333333333333333 [-]
	 SCS Opposite-Spin Scale   =       1.2000000000000000 [-]
	 SCS Same-Spin Energy      =      -0.3382425799332830 [Eh]
	 SCS Opposite-Spin Energy  =      -3.6915785430689336 [Eh]
	 SCS Correlation Energy    =      -4.0298211230022165 [Eh]
	 SCS Total Energy          =   -1331.8907193441843901 [Eh]
	-----------------------------------------------------------

  Dipole Moment: [D]
     X:    -1.1234      Y:     1.8890      Z:     0.7336     Total:     2.3170

*** Psi4 exiting successfully. Buy a developer a beer!
