                               Psi4 1.3.2 release

  ==> Input File <==

--------------------------------------------------------------------------
#psi4
#
memory 32 gb

molecule  {
0 1
  P       -2.2900960    -0.9400430     0.3446780
  O       -0.9821530    -0.2015620     0.9382890
  O        1.3422500    -1.6754830     1.2308510
  O        0.0787050     2.3596040     0.4621680
  O        3.0685150    -2.1870720    -0.8085900
  O        2.8473350     2.5031130     0.3715350
  O        4.1956880     0.4353970    -0.9728740
  O       -2.8244614     0.0963919    -0.7523437
  O       -3.2591210    -0.7232820     1.6216710
  O       -2.0947621    -2.3612100    -0.0280746
  C        0.1181620     0.0300090     0.0163190
  C        0.9532920    -1.2442050    -0.0757250
  C        0.8985890     1.2026440     0.5648510
  C        2.2596600    -1.0143070    -0.8180370
  C        2.1770750     1.3964720    -0.2280410
  C        3.0258420     0.1487050    -0.2103220
  C       -3.1242130     1.4315980    -0.4888860
  C       -3.5363170     2.0851650    -1.7841190
  H       -0.2830920     0.2988010    -0.9702380
  H        0.3702690    -2.0293640    -0.5720320
  H        1.1571200     0.9978770     1.6121560
  H        2.0609340    -0.7886600    -1.8727560
  H        1.9169870     1.6362870    -1.2735830
  H        3.2958550    -0.0945320     0.8276460
  H        0.5217750    -1.8880320     1.7115100
  H        0.6655400     3.1093110     0.6831840
  H        2.9735430    -2.5473740     0.0946540
  H        3.7214290     2.5491860    -0.0588690
  H        4.6397270    -0.4238340    -1.0970870
  H       -3.8083950    -1.5223380     1.7347280
  H       -3.9305460     1.4455410     0.2493860
  H       -2.2297620     1.8928800    -0.0590960
  H       -3.8005210     3.1308820    -1.6026710
  H       -2.7171960     2.0533230    -2.5048750
  H       -4.4009440     1.5743230    -2.2127240
units angstrom
no_reorient  #important for SAPT in psi4, default
symmetry c1  #important for SAPT in psi4, default
}

set PROPERTIES_ORIGIN ["COM"]
properties('MP2/aug-cc-pvtz', properties = ['dipole'])
--------------------------------------------------------------------------

    Molecular point group: c1
  Charge       = 0
  Multiplicity = 1
  Basis Set: AUG-CC-PVTZ
    Blend: AUG-CC-PVTZ
  Basis Set: (AUG-CC-PVTZ AUX)
    Blend: AUG-CC-PVTZ-JKFIT

    Orbital Energies [Eh]
    ---------------------

    Doubly Occupied:

       1A    -80.122160     2A    -20.611988     3A    -20.604317
       4A    -20.600193     5A    -20.582805     6A    -20.576430
       7A    -20.574700     8A    -20.574012     9A    -20.572388
      10A    -20.531702    11A    -11.320535    12A    -11.303689
      13A    -11.299432    14A    -11.298012    15A    -11.296305
      16A    -11.292480    17A    -11.291302    18A    -11.227516
      19A     -7.637221    20A     -5.535796    21A     -5.535565
      22A     -5.534014    23A     -1.466199    24A     -1.412391
      25A     -1.399295    26A     -1.393500    27A     -1.392220
      28A     -1.372620    29A     -1.363548    30A     -1.353616
      31A     -1.310897    32A     -1.118810    33A     -1.040464
      34A     -1.011486    35A     -1.003242    36A     -0.885735
      37A     -0.868614    38A     -0.858823    39A     -0.821321
      40A     -0.810479    41A     -0.751572    42A     -0.746173
      43A     -0.734821    44A     -0.731586    45A     -0.707696
      46A     -0.689005    47A     -0.679818    48A     -0.677085
      49A     -0.663022    50A     -0.661772    51A     -0.642811
      52A     -0.634761    53A     -0.631850    54A     -0.618554
      55A     -0.602957    56A     -0.598428    57A     -0.584376
      58A     -0.576693    59A     -0.571195    60A     -0.560070
      61A     -0.556961    62A     -0.548848    63A     -0.542969
      64A     -0.536695    65A     -0.529595    66A     -0.521412
      67A     -0.508761    68A     -0.502605    69A     -0.495225
      70A     -0.486584    71A     -0.482455    72A     -0.472919
      73A     -0.462673    74A     -0.455530    75A     -0.449902
      76A     -0.436487

  @DF-RHF Final Energy: -1327.85837816655066

   => Energetics <=

    Nuclear Repulsion Energy =           1774.2015234455848258
    One-Electron Energy =               -5360.4004216548282784
    Two-Electron Energy =                2258.3405200426927877
    Total Energy =                      -1327.8583781665506649
  Basis Set: (AUG-CC-PVTZ AUX)
    Blend: AUG-CC-PVTZ-RI
    Molecular point group: c1

    Geometry (in Angstrom), charge = 0, multiplicity = 1:

       Center              X                  Y                   Z               Mass
    ------------   -----------------  -----------------  -----------------  -----------------
         P           -2.291574766918    -0.942568027697     0.337638348689    30.973761998420
         O           -0.983631766918    -0.204087027697     0.931249348689    15.994914619570
         O            1.340771233082    -1.678008027697     1.223811348689    15.994914619570
         O            0.077226233082     2.357078972303     0.455128348689    15.994914619570
         O            3.067036233082    -2.189597027697    -0.815629651311    15.994914619570
         O            2.845856233082     2.500587972303     0.364495348689    15.994914619570
         O            4.194209233082     0.432871972303    -0.979913651311    15.994914619570
         O           -2.825940166918     0.093866872303    -0.759383351311    15.994914619570
         O           -3.260599766918    -0.725807027697     1.614631348689    15.994914619570
         O           -2.096240866918    -2.363735027697    -0.035114251311    15.994914619570
         C            0.116683233082     0.027483972303     0.009279348689    12.000000000000
         C            0.951813233082    -1.246730027697    -0.082764651311    12.000000000000
         C            0.897110233082     1.200118972303     0.557811348689    12.000000000000
         C            2.258181233082    -1.016832027697    -0.825076651311    12.000000000000
         C            2.175596233082     1.393946972303    -0.235080651311    12.000000000000
         C            3.024363233082     0.146179972303    -0.217361651311    12.000000000000
         C           -3.125691766918     1.429072972303    -0.495925651311    12.000000000000
         C           -3.537795766918     2.082639972303    -1.791158651311    12.000000000000
         H           -0.284570766918     0.296275972303    -0.977277651311     1.007825032230
         H            0.368790233082    -2.031889027697    -0.579071651311     1.007825032230
         H            1.155641233082     0.995351972303     1.605116348689     1.007825032230
         H            2.059455233082    -0.791185027697    -1.879795651311     1.007825032230
         H            1.915508233082     1.633761972303    -1.280622651311     1.007825032230
         H            3.294376233082    -0.097057027697     0.820606348689     1.007825032230
         H            0.520296233082    -1.890557027697     1.704470348689     1.007825032230
         H            0.664061233082     3.106785972303     0.676144348689     1.007825032230
         H            2.972064233082    -2.549899027697     0.087614348689     1.007825032230
         H            3.719950233082     2.546660972303    -0.065908651311     1.007825032230
         H            4.638248233082    -0.426359027697    -1.104126651311     1.007825032230
         H           -3.809873766918    -1.524863027697     1.727688348689     1.007825032230
         H           -3.932024766918     1.443015972303     0.242346348689     1.007825032230
         H           -2.231240766918     1.890354972303    -0.066135651311     1.007825032230
         H           -3.801999766918     3.128356972303    -1.609710651311     1.007825032230
         H           -2.718674766918     2.050797972303    -2.511914651311     1.007825032230
         H           -4.402422766918     1.571797972303    -2.219763651311     1.007825032230

  Basis Set: AUG-CC-PVTZ
    Blend: AUG-CC-PVTZ
  Basis Set: (AUG-CC-PVTZ AUX)
    Blend: AUG-CC-PVTZ-JKFIT
	 Reference Energy          =   -1327.8583781665506649 [Eh]
	 Singles Energy            =      -0.0000000000000000 [Eh]
	 Same-Spin Energy          =      -1.0145576952492283 [Eh]
	 Opposite-Spin Energy      =      -3.0749759736192068 [Eh]
	 Correlation Energy        =      -4.0895336688684356 [Eh]
	 Total Energy              =   -1331.9479118354190632 [Eh]

	 ================> DF-SCS-MP2 Energies <==================
	-----------------------------------------------------------
	 SCS Same-Spin Scale       =       0.3333333333333333 [-]
	 SCS Opposite-Spin Scale   =       1.2000000000000000 [-]
	 SCS Same-Spin Energy      =      -0.3381858984164094 [Eh]
	 SCS Opposite-Spin Energy  =      -3.6899711683430478 [Eh]
	 SCS Correlation Energy    =      -4.0281570667594568 [Eh]
	 SCS Total Energy          =   -1331.8865352333100418 [Eh]
	-----------------------------------------------------------

  Dipole Moment: [D]
     X:    -1.1376      Y:     1.5599      Z:     0.4739     Total:     1.9879

*** Psi4 exiting successfully. Buy a developer a beer!
