                               Psi4 1.3.2 release

  ==> Input File <==

--------------------------------------------------------------------------
#psi4
#
memory 32 gb

molecule  {
0 1
  P       -2.2900960    -0.9400430     0.3446780
  O       -0.9821530    -0.2015620     0.9382890
  O        1.3422500    -1.6754830     1.2308510
  O        0.0787050     2.3596040     0.4621680
  O        3.0685150    -2.1870720    -0.8085900
  O        2.8473350     2.5031130     0.3715350
  O        4.1956880     0.4353970    -0.9728740
  O       -2.8268630     0.0333510    -0.8075310
  O       -3.2591210    -0.7232820     1.6216710
  O       -2.1189930    -2.3436440    -0.0996680
  C        0.1181620     0.0300090     0.0163190
  C        0.9532920    -1.2442050    -0.0757250
  C        0.8985890     1.2026440     0.5648510
  C        2.2535692    -1.0185803    -0.7943112
  C        2.1770750     1.3964720    -0.2280410
  C        3.0258420     0.1487050    -0.2103220
  C       -3.1242130     1.4315980    -0.4888860
  C       -3.5363170     2.0851650    -1.7841190
  H       -0.2830920     0.2988010    -0.9702380
  H        0.3702690    -2.0293640    -0.5720320
  H        1.1571200     0.9978770     1.6121560
  H        2.0609340    -0.7886600    -1.8727560
  H        1.9169870     1.6362870    -1.2735830
  H        3.2958550    -0.0945320     0.8276460
  H        0.5217750    -1.8880320     1.7115100
  H        0.6655400     3.1093110     0.6831840
  H        2.9631102    -2.5344588     0.0985479
  H        3.7214290     2.5491860    -0.0588690
  H        4.6397270    -0.4238340    -1.0970870
  H       -3.8083950    -1.5223380     1.7347280
  H       -3.9305460     1.4455410     0.2493860
  H       -2.2297620     1.8928800    -0.0590960
  H       -3.8005210     3.1308820    -1.6026710
  H       -2.7171960     2.0533230    -2.5048750
  H       -4.4009440     1.5743230    -2.2127240
units angstrom
no_reorient  #important for SAPT in psi4, default
symmetry c1  #important for SAPT in psi4, default
}

set PROPERTIES_ORIGIN ["COM"]
properties('MP2/aug-cc-pvtz', properties = ['dipole'])
--------------------------------------------------------------------------

    Molecular point group: c1
  Charge       = 0
  Multiplicity = 1
  Basis Set: AUG-CC-PVTZ
    Blend: AUG-CC-PVTZ
  Basis Set: (AUG-CC-PVTZ AUX)
    Blend: AUG-CC-PVTZ-JKFIT

    Orbital Energies [Eh]
    ---------------------

    Doubly Occupied:

       1A    -80.117276     2A    -20.614999     3A    -20.607590
       4A    -20.599173     5A    -20.583630     6A    -20.576806
       7A    -20.575652     8A    -20.574765     9A    -20.573699
      10A    -20.523776    11A    -11.321440    12A    -11.303604
      13A    -11.299782    14A    -11.299558    15A    -11.298928
      16A    -11.296817    17A    -11.291604    18A    -11.229972
      19A     -7.632728    20A     -5.531234    21A     -5.530861
      22A     -5.529659    23A     -1.460671    24A     -1.411869
      25A     -1.394984    26A     -1.393938    27A     -1.387115
      28A     -1.373212    29A     -1.364594    30A     -1.354352
      31A     -1.304167    32A     -1.120492    33A     -1.040616
      34A     -1.012513    35A     -1.005184    36A     -0.881349
      37A     -0.865383    38A     -0.857870    39A     -0.822241
      40A     -0.810041    41A     -0.753072    42A     -0.745958
      43A     -0.732167    44A     -0.728968    45A     -0.708269
      46A     -0.687464    47A     -0.678039    48A     -0.674208
      49A     -0.662401    50A     -0.660085    51A     -0.643771
      52A     -0.635004    53A     -0.627834    54A     -0.615674
      55A     -0.603624    56A     -0.598260    57A     -0.581715
      58A     -0.575535    59A     -0.571939    60A     -0.559474
      61A     -0.556086    62A     -0.548721    63A     -0.541389
      64A     -0.536156    65A     -0.529500    66A     -0.521516
      67A     -0.513310    68A     -0.505121    69A     -0.497474
      70A     -0.485941    71A     -0.480166    72A     -0.476965
      73A     -0.463041    74A     -0.456104    75A     -0.450715
      76A     -0.437111

  @DF-RHF Final Energy: -1327.85977497481986

   => Energetics <=

    Nuclear Repulsion Energy =           1772.8975780100852262
    One-Electron Energy =               -5357.8808655897955759
    Two-Electron Energy =                2257.1235126048904931
    Total Energy =                      -1327.8597749748196293
  Basis Set: (AUG-CC-PVTZ AUX)
    Blend: AUG-CC-PVTZ-RI
    Molecular point group: c1

    Geometry (in Angstrom), charge = 0, multiplicity = 1:

       Center              X                  Y                   Z               Mass
    ------------   -----------------  -----------------  -----------------  -----------------
         P           -2.289805736862    -0.939910151656     0.343676001779    30.973761998420
         O           -0.981862736862    -0.201429151656     0.937287001779    15.994914619570
         O            1.342540263138    -1.675350151656     1.229849001779    15.994914619570
         O            0.078995263138     2.359736848344     0.461166001779    15.994914619570
         O            3.068805263138    -2.186939151656    -0.809591998221    15.994914619570
         O            2.847625263138     2.503245848344     0.370533001779    15.994914619570
         O            4.195978263138     0.435529848344    -0.973875998221    15.994914619570
         O           -2.826572736862     0.033483848344    -0.808532998221    15.994914619570
         O           -3.258830736862    -0.723149151656     1.620669001779    15.994914619570
         O           -2.118702736862    -2.343511151656    -0.100669998221    15.994914619570
         C            0.118452263138     0.030141848344     0.015317001779    12.000000000000
         C            0.953582263138    -1.244072151656    -0.076726998221    12.000000000000
         C            0.898879263138     1.202776848344     0.563849001779    12.000000000000
         C            2.253859463138    -1.018447451656    -0.795313198221    12.000000000000
         C            2.177365263138     1.396604848344    -0.229042998221    12.000000000000
         C            3.026132263138     0.148837848344    -0.211323998221    12.000000000000
         C           -3.123922736862     1.431730848344    -0.489887998221    12.000000000000
         C           -3.536026736862     2.085297848344    -1.785120998221    12.000000000000
         H           -0.282801736862     0.298933848344    -0.971239998221     1.007825032230
         H            0.370559263138    -2.029231151656    -0.573033998221     1.007825032230
         H            1.157410263138     0.998009848344     1.611154001779     1.007825032230
         H            2.061224263138    -0.788527151656    -1.873757998221     1.007825032230
         H            1.917277263138     1.636419848344    -1.274584998221     1.007825032230
         H            3.296145263138    -0.094399151656     0.826644001779     1.007825032230
         H            0.522065263138    -1.887899151656     1.710508001779     1.007825032230
         H            0.665830263138     3.109443848344     0.682182001779     1.007825032230
         H            2.963400463138    -2.534325951656     0.097545901779     1.007825032230
         H            3.721719263138     2.549318848344    -0.059870998221     1.007825032230
         H            4.640017263138    -0.423701151656    -1.098088998221     1.007825032230
         H           -3.808104736862    -1.522205151656     1.733726001779     1.007825032230
         H           -3.930255736862     1.445673848344     0.248384001779     1.007825032230
         H           -2.229471736862     1.893012848344    -0.060097998221     1.007825032230
         H           -3.800230736862     3.131014848344    -1.603672998221     1.007825032230
         H           -2.716905736862     2.053455848344    -2.505876998221     1.007825032230
         H           -4.400653736862     1.574455848344    -2.213725998221     1.007825032230

  Basis Set: AUG-CC-PVTZ
    Blend: AUG-CC-PVTZ
  Basis Set: (AUG-CC-PVTZ AUX)
    Blend: AUG-CC-PVTZ-JKFIT
	 Reference Energy          =   -1327.8597749748198567 [Eh]
	 Singles Energy            =      -0.0000000000000000 [Eh]
	 Same-Spin Energy          =      -1.0149302233800273 [Eh]
	 Opposite-Spin Energy      =      -3.0765829939608804 [Eh]
	 Correlation Energy        =      -4.0915132173409079 [Eh]
	 Total Energy              =   -1331.9512881921607459 [Eh]

	 ================> DF-SCS-MP2 Energies <==================
	-----------------------------------------------------------
	 SCS Same-Spin Scale       =       0.3333333333333333 [-]
	 SCS Opposite-Spin Scale   =       1.2000000000000000 [-]
	 SCS Same-Spin Energy      =      -0.3383100744600090 [Eh]
	 SCS Opposite-Spin Energy  =      -3.6918995927530562 [Eh]
	 SCS Correlation Energy    =      -4.0302096672130654 [Eh]
	 SCS Total Energy          =   -1331.8899846420329141 [Eh]
	-----------------------------------------------------------

  Dipole Moment: [D]
     X:    -1.1474      Y:     1.8772      Z:     0.7477     Total:     2.3237

*** Psi4 exiting successfully. Buy a developer a beer!
