                               Psi4 1.3.2 release

  ==> Input File <==

--------------------------------------------------------------------------
#psi4
#
memory 32 gb

molecule  {
0 1
  P       -2.2900960    -0.9400430     0.3446780
  O       -0.9821530    -0.2015620     0.9382890
  O        1.3422500    -1.6754830     1.2308510
  O        0.0787050     2.3596040     0.4621680
  O        3.0685150    -2.1870720    -0.8085900
  O        2.8287652     2.5051726     0.3879762
  O        4.1956880     0.4353970    -0.9728740
  O       -2.8268630     0.0333510    -0.8075310
  O       -3.2591210    -0.7232820     1.6216710
  O       -2.1189930    -2.3436440    -0.0996680
  C        0.1181620     0.0300090     0.0163190
  C        0.9532920    -1.2442050    -0.0757250
  C        0.9053318     1.2230754     0.5802760
  C        2.2596600    -1.0143070    -0.8180370
  C        2.1770750     1.3964720    -0.2280410
  C        3.0258420     0.1487050    -0.2103220
  C       -3.1242130     1.4315980    -0.4888860
  C       -3.5363170     2.0851650    -1.7841190
  H       -0.2830920     0.2988010    -0.9702380
  H        0.3702690    -2.0293640    -0.5720320
  H        1.1571200     0.9978770     1.6121560
  H        2.0609340    -0.7886600    -1.8727560
  H        1.9169870     1.6362870    -1.2735830
  H        3.2958550    -0.0945320     0.8276460
  H        0.5217750    -1.8880320     1.7115100
  H        0.6655400     3.1093110     0.6831840
  H        2.9735430    -2.5473740     0.0946540
  H        3.7214290     2.5491860    -0.0588690
  H        4.6397270    -0.4238340    -1.0970870
  H       -3.8083950    -1.5223380     1.7347280
  H       -3.9305460     1.4455410     0.2493860
  H       -2.2297620     1.8928800    -0.0590960
  H       -3.8005210     3.1308820    -1.6026710
  H       -2.7171960     2.0533230    -2.5048750
  H       -4.4009440     1.5743230    -2.2127240
units angstrom
no_reorient  #important for SAPT in psi4, default
symmetry c1  #important for SAPT in psi4, default
}

set PROPERTIES_ORIGIN ["COM"]
properties('MP2/aug-cc-pvtz', properties = ['dipole'])
--------------------------------------------------------------------------

    Molecular point group: c1
  Charge       = 0
  Multiplicity = 1
  Basis Set: AUG-CC-PVTZ
    Blend: AUG-CC-PVTZ
  Basis Set: (AUG-CC-PVTZ AUX)
    Blend: AUG-CC-PVTZ-JKFIT

    Orbital Energies [Eh]
    ---------------------

    Doubly Occupied:

       1A    -80.116368     2A    -20.614326     3A    -20.606053
       4A    -20.598601     5A    -20.582624     6A    -20.579188
       7A    -20.574810     8A    -20.574547     9A    -20.574483
      10A    -20.522966    11A    -11.319976    12A    -11.302729
      13A    -11.299290    14A    -11.299191    15A    -11.297597
      16A    -11.295817    17A    -11.291730    18A    -11.229793
      19A     -7.631826    20A     -5.530332    21A     -5.529954
      22A     -5.528758    23A     -1.459596    24A     -1.410604
      25A     -1.394240    26A     -1.393561    27A     -1.386562
      28A     -1.373692    29A     -1.363737    30A     -1.353267
      31A     -1.303359    32A     -1.115754    33A     -1.040309
      34A     -1.009465    35A     -1.001813    36A     -0.879494
      37A     -0.864541    38A     -0.858786    39A     -0.820987
      40A     -0.810650    41A     -0.751748    42A     -0.744892
      43A     -0.731469    44A     -0.727574    45A     -0.705110
      46A     -0.688216    47A     -0.677692    48A     -0.673415
      49A     -0.663118    50A     -0.659827    51A     -0.641227
      52A     -0.634644    53A     -0.626973    54A     -0.615243
      55A     -0.604077    56A     -0.598711    57A     -0.581330
      58A     -0.575340    59A     -0.570950    60A     -0.559973
      61A     -0.556868    62A     -0.548156    63A     -0.541065
      64A     -0.537162    65A     -0.529663    66A     -0.519394
      67A     -0.513214    68A     -0.504201    69A     -0.495806
      70A     -0.484105    71A     -0.479294    72A     -0.476200
      73A     -0.461967    74A     -0.456231    75A     -0.449690
      76A     -0.435758

  @DF-RHF Final Energy: -1327.85841851609507

   => Energetics <=

    Nuclear Repulsion Energy =           1772.1335315661665391
    One-Electron Energy =               -5356.4605301274650628
    Two-Electron Energy =                2256.4685800452039075
    Total Energy =                      -1327.8584185160948437
  Basis Set: (AUG-CC-PVTZ AUX)
    Blend: AUG-CC-PVTZ-RI
    Molecular point group: c1

    Geometry (in Angstrom), charge = 0, multiplicity = 1:

       Center              X                  Y                   Z               Mass
    ------------   -----------------  -----------------  -----------------  -----------------
         P           -2.289345748458    -0.941008471954     0.343122502312    30.973761998420
         O           -0.981402748458    -0.202527471954     0.936733502312    15.994914619570
         O            1.343000251542    -1.676448471954     1.229295502312    15.994914619570
         O            0.079455251542     2.358638528046     0.460612502312    15.994914619570
         O            3.069265251542    -2.188037471954    -0.810145497688    15.994914619570
         O            2.829515451542     2.504207128046     0.386420702312    15.994914619570
         O            4.196438251542     0.434431528046    -0.974429497688    15.994914619570
         O           -2.826112748458     0.032385528046    -0.809086497688    15.994914619570
         O           -3.258370748458    -0.724247471954     1.620115502312    15.994914619570
         O           -2.118242748458    -2.344609471954    -0.101223497688    15.994914619570
         C            0.118912251542     0.029043528046     0.014763502312    12.000000000000
         C            0.954042251542    -1.245170471954    -0.077280497688    12.000000000000
         C            0.906082051542     1.222109928046     0.578720502312    12.000000000000
         C            2.260410251542    -1.015272471954    -0.819592497688    12.000000000000
         C            2.177825251542     1.395506528046    -0.229596497688    12.000000000000
         C            3.026592251542     0.147739528046    -0.211877497688    12.000000000000
         C           -3.123462748458     1.430632528046    -0.490441497688    12.000000000000
         C           -3.535566748458     2.084199528046    -1.785674497688    12.000000000000
         H           -0.282341748458     0.297835528046    -0.971793497688     1.007825032230
         H            0.371019251542    -2.030329471954    -0.573587497688     1.007825032230
         H            1.157870251542     0.996911528046     1.610600502312     1.007825032230
         H            2.061684251542    -0.789625471954    -1.874311497688     1.007825032230
         H            1.917737251542     1.635321528046    -1.275138497688     1.007825032230
         H            3.296605251542    -0.095497471954     0.826090502312     1.007825032230
         H            0.522525251542    -1.888997471954     1.709954502312     1.007825032230
         H            0.666290251542     3.108345528046     0.681628502312     1.007825032230
         H            2.974293251542    -2.548339471954     0.093098502312     1.007825032230
         H            3.722179251542     2.548220528046    -0.060424497688     1.007825032230
         H            4.640477251542    -0.424799471954    -1.098642497688     1.007825032230
         H           -3.807644748458    -1.523303471954     1.733172502312     1.007825032230
         H           -3.929795748458     1.444575528046     0.247830502312     1.007825032230
         H           -2.229011748458     1.891914528046    -0.060651497688     1.007825032230
         H           -3.799770748458     3.129916528046    -1.604226497688     1.007825032230
         H           -2.716445748458     2.052357528046    -2.506430497688     1.007825032230
         H           -4.400193748458     1.573357528046    -2.214279497688     1.007825032230

  Basis Set: AUG-CC-PVTZ
    Blend: AUG-CC-PVTZ
  Basis Set: (AUG-CC-PVTZ AUX)
    Blend: AUG-CC-PVTZ-JKFIT
	 Reference Energy          =   -1327.8584185160950710 [Eh]
	 Singles Energy            =      -0.0000000000000000 [Eh]
	 Same-Spin Energy          =      -1.0149178554094427 [Eh]
	 Opposite-Spin Energy      =      -3.0769039248030454 [Eh]
	 Correlation Energy        =      -4.0918217802124879 [Eh]
	 Total Energy              =   -1331.9502402963075838 [Eh]

	 ================> DF-SCS-MP2 Energies <==================
	-----------------------------------------------------------
	 SCS Same-Spin Scale       =       0.3333333333333333 [-]
	 SCS Opposite-Spin Scale   =       1.2000000000000000 [-]
	 SCS Same-Spin Energy      =      -0.3383059518031475 [Eh]
	 SCS Opposite-Spin Energy  =      -3.6922847097636544 [Eh]
	 SCS Correlation Energy    =      -4.0305906615668023 [Eh]
	 SCS Total Energy          =   -1331.8890091776618192 [Eh]
	-----------------------------------------------------------

  Dipole Moment: [D]
     X:    -1.0766      Y:     1.9202      Z:     0.7131     Total:     2.3140

*** Psi4 exiting successfully. Buy a developer a beer!
