                               Psi4 1.3.2 release

  ==> Input File <==

--------------------------------------------------------------------------
#psi4
#
memory 32 gb

molecule  {
0 1
  P       -2.2900960    -0.9400430     0.3446780
  O       -0.9821530    -0.2015620     0.9382890
  O        1.3422500    -1.6754830     1.2308510
  O        0.0787050     2.3596040     0.4621680
  O        3.0685150    -2.1870720    -0.8085900
  O        2.8473350     2.5031130     0.3715350
  O        4.1956880     0.4353970    -0.9728740
  O       -2.8268630     0.0333510    -0.8075310
  O       -3.2591210    -0.7232820     1.6216710
  O       -2.1189930    -2.3436440    -0.0996680
  C        0.1181620     0.0300090     0.0163190
  C        0.9532920    -1.2442050    -0.0757250
  C        0.8985890     1.2026440     0.5648510
  C        2.2596600    -1.0143070    -0.8180370
  C        2.1770750     1.3964720    -0.2280410
  C        3.0820821     0.0660268    -0.2091479
  C       -3.1242130     1.4315980    -0.4888860
  C       -3.5363170     2.0851650    -1.7841190
  H       -0.2830920     0.2988010    -0.9702380
  H        0.3702690    -2.0293640    -0.5720320
  H        1.1571200     0.9978770     1.6121560
  H        2.0609340    -0.7886600    -1.8727560
  H        1.9169870     1.6362870    -1.2735830
  H        3.2958550    -0.0945320     0.8276460
  H        0.5217750    -1.8880320     1.7115100
  H        0.6655400     3.1093110     0.6831840
  H        2.9735430    -2.5473740     0.0946540
  H        3.7214290     2.5491860    -0.0588690
  H        4.6397270    -0.4238340    -1.0970870
  H       -3.8083950    -1.5223380     1.7347280
  H       -3.9305460     1.4455410     0.2493860
  H       -2.2297620     1.8928800    -0.0590960
  H       -3.8005210     3.1308820    -1.6026710
  H       -2.7171960     2.0533230    -2.5048750
  H       -4.4009440     1.5743230    -2.2127240
units angstrom
no_reorient  #important for SAPT in psi4, default
symmetry c1  #important for SAPT in psi4, default
}

set PROPERTIES_ORIGIN ["COM"]
properties('MP2/aug-cc-pvtz', properties = ['dipole'])
--------------------------------------------------------------------------

    Molecular point group: c1
  Charge       = 0
  Multiplicity = 1
  Basis Set: AUG-CC-PVTZ
    Blend: AUG-CC-PVTZ
  Basis Set: (AUG-CC-PVTZ AUX)
    Blend: AUG-CC-PVTZ-JKFIT

    Orbital Energies [Eh]
    ---------------------

    Doubly Occupied:

       1A    -80.116583     2A    -20.614420     3A    -20.606394
       4A    -20.598540     5A    -20.583382     6A    -20.579978
       7A    -20.575494     8A    -20.571504     9A    -20.571373
      10A    -20.523259    11A    -11.319845    12A    -11.304550
      13A    -11.298921    14A    -11.297444    15A    -11.296738
      16A    -11.295665    17A    -11.291043    18A    -11.229487
      19A     -7.632036    20A     -5.530542    21A     -5.530167
      22A     -5.528970    23A     -1.459835    24A     -1.412438
      25A     -1.398233    26A     -1.391759    27A     -1.386668
      28A     -1.376313    29A     -1.362923    30A     -1.355754
      31A     -1.303645    32A     -1.113378    33A     -1.039988
      34A     -1.010225    35A     -0.997020    36A     -0.882522
      37A     -0.865204    38A     -0.853537    39A     -0.822790
      40A     -0.810606    41A     -0.750726    42A     -0.745621
      43A     -0.731303    44A     -0.728032    45A     -0.706732
      46A     -0.688925    47A     -0.677840    48A     -0.673377
      49A     -0.662988    50A     -0.660816    51A     -0.642152
      52A     -0.633544    53A     -0.626554    54A     -0.614308
      55A     -0.603029    56A     -0.601203    57A     -0.584127
      58A     -0.575306    59A     -0.572402    60A     -0.560006
      61A     -0.558289    62A     -0.548866    63A     -0.540941
      64A     -0.535556    65A     -0.529802    66A     -0.521762
      67A     -0.512127    68A     -0.506351    69A     -0.496005
      70A     -0.484596    71A     -0.479446    72A     -0.476552
      73A     -0.461386    74A     -0.449888    75A     -0.445989
      76A     -0.430957

  @DF-RHF Final Energy: -1327.85179126776438

   => Energetics <=

    Nuclear Repulsion Energy =           1771.5188238397711302
    One-Electron Energy =               -5355.2278686010231468
    Two-Electron Energy =                2255.8572534934874056
    Total Energy =                      -1327.8517912677643835
  Basis Set: (AUG-CC-PVTZ AUX)
    Blend: AUG-CC-PVTZ-RI
    Molecular point group: c1

    Geometry (in Angstrom), charge = 0, multiplicity = 1:

       Center              X                  Y                   Z               Mass
    ------------   -----------------  -----------------  -----------------  -----------------
         P           -2.292438808284    -0.936598787054     0.344629080299    30.973761998420
         O           -0.984495808284    -0.198117787054     0.938240080299    15.994914619570
         O            1.339907191716    -1.672038787054     1.230802080299    15.994914619570
         O            0.076362191716     2.363048212946     0.462119080299    15.994914619570
         O            3.066172191716    -2.183627787054    -0.808638919701    15.994914619570
         O            2.844992191716     2.506557212946     0.371486080299    15.994914619570
         O            4.193345191716     0.438841212946    -0.972922919701    15.994914619570
         O           -2.829205808284     0.036795212946    -0.807579919701    15.994914619570
         O           -3.261463808284    -0.719837787054     1.621622080299    15.994914619570
         O           -2.121335808284    -2.340199787054    -0.099716919701    15.994914619570
         C            0.115819191716     0.033453212946     0.016270080299    12.000000000000
         C            0.950949191716    -1.240760787054    -0.075773919701    12.000000000000
         C            0.896246191716     1.206088212946     0.564802080299    12.000000000000
         C            2.257317191716    -1.010862787054    -0.818085919701    12.000000000000
         C            2.174732191716     1.399916212946    -0.228089919701    12.000000000000
         C            3.079739291716     0.069471012946    -0.209196819701    12.000000000000
         C           -3.126555808284     1.435042212946    -0.488934919701    12.000000000000
         C           -3.538659808284     2.088609212946    -1.784167919701    12.000000000000
         H           -0.285434808284     0.302245212946    -0.970286919701     1.007825032230
         H            0.367926191716    -2.025919787054    -0.572080919701     1.007825032230
         H            1.154777191716     1.001321212946     1.612107080299     1.007825032230
         H            2.058591191716    -0.785215787054    -1.872804919701     1.007825032230
         H            1.914644191716     1.639731212946    -1.273631919701     1.007825032230
         H            3.293512191716    -0.091087787054     0.827597080299     1.007825032230
         H            0.519432191716    -1.884587787054     1.711461080299     1.007825032230
         H            0.663197191716     3.112755212946     0.683135080299     1.007825032230
         H            2.971200191716    -2.543929787054     0.094605080299     1.007825032230
         H            3.719086191716     2.552630212946    -0.058917919701     1.007825032230
         H            4.637384191716    -0.420389787054    -1.097135919701     1.007825032230
         H           -3.810737808284    -1.518893787054     1.734679080299     1.007825032230
         H           -3.932888808284     1.448985212946     0.249337080299     1.007825032230
         H           -2.232104808284     1.896324212946    -0.059144919701     1.007825032230
         H           -3.802863808284     3.134326212946    -1.602719919701     1.007825032230
         H           -2.719538808284     2.056767212946    -2.504923919701     1.007825032230
         H           -4.403286808284     1.577767212946    -2.212772919701     1.007825032230

  Basis Set: AUG-CC-PVTZ
    Blend: AUG-CC-PVTZ
  Basis Set: (AUG-CC-PVTZ AUX)
    Blend: AUG-CC-PVTZ-JKFIT
	 Reference Energy          =   -1327.8517912677643835 [Eh]
	 Singles Energy            =      -0.0000000000000000 [Eh]
	 Same-Spin Energy          =      -1.0147583771238764 [Eh]
	 Opposite-Spin Energy      =      -3.0766365312031421 [Eh]
	 Correlation Energy        =      -4.0913949083270182 [Eh]
	 Total Energy              =   -1331.9431861760913307 [Eh]

	 ================> DF-SCS-MP2 Energies <==================
	-----------------------------------------------------------
	 SCS Same-Spin Scale       =       0.3333333333333333 [-]
	 SCS Opposite-Spin Scale   =       1.2000000000000000 [-]
	 SCS Same-Spin Energy      =      -0.3382527923746255 [Eh]
	 SCS Opposite-Spin Energy  =      -3.6919638374437702 [Eh]
	 SCS Correlation Energy    =      -4.0302166298183959 [Eh]
	 SCS Total Energy          =   -1331.8820078975827528 [Eh]
	-----------------------------------------------------------

  Dipole Moment: [D]
     X:    -0.9669      Y:     1.8500      Z:     0.6823     Total:     2.1961

*** Psi4 exiting successfully. Buy a developer a beer!
