                               Psi4 1.3.2 release

  ==> Input File <==

--------------------------------------------------------------------------
#psi4
#
memory 32 gb

molecule  {
0 1
  P       -2.2900960    -0.9400430     0.3446780
  O       -0.9821530    -0.2015620     0.9382890
  O        1.3422500    -1.6754830     1.2308510
  O        0.0787050     2.3596040     0.4621680
  O        3.0685150    -2.1870720    -0.8085900
  O        2.8380753     2.5041850     0.3797787
  O        4.1956880     0.4353970    -0.9728740
  O       -2.8268630     0.0333510    -0.8075310
  O       -3.2591210    -0.7232820     1.6216710
  O       -2.1189930    -2.3436440    -0.0996680
  C        0.1181620     0.0300090     0.0163190
  C        0.9532920    -1.2442050    -0.0757250
  C        0.9019119     1.2128527     0.5725940
  C        2.2596600    -1.0143070    -0.8180370
  C        2.1770750     1.3964720    -0.2280410
  C        3.0258420     0.1487050    -0.2103220
  C       -3.1242130     1.4315980    -0.4888860
  C       -3.5363170     2.0851650    -1.7841190
  H       -0.2830920     0.2988010    -0.9702380
  H        0.3702690    -2.0293640    -0.5720320
  H        1.1571200     0.9978770     1.6121560
  H        2.0609340    -0.7886600    -1.8727560
  H        1.9169870     1.6362870    -1.2735830
  H        3.2958550    -0.0945320     0.8276460
  H        0.5217750    -1.8880320     1.7115100
  H        0.6655400     3.1093110     0.6831840
  H        2.9735430    -2.5473740     0.0946540
  H        3.7214290     2.5491860    -0.0588690
  H        4.6397270    -0.4238340    -1.0970870
  H       -3.8083950    -1.5223380     1.7347280
  H       -3.9305460     1.4455410     0.2493860
  H       -2.2297620     1.8928800    -0.0590960
  H       -3.8005210     3.1308820    -1.6026710
  H       -2.7171960     2.0533230    -2.5048750
  H       -4.4009440     1.5743230    -2.2127240
units angstrom
no_reorient  #important for SAPT in psi4, default
symmetry c1  #important for SAPT in psi4, default
}

set PROPERTIES_ORIGIN ["COM"]
properties('MP2/aug-cc-pvtz', properties = ['dipole'])
--------------------------------------------------------------------------

    Molecular point group: c1
  Charge       = 0
  Multiplicity = 1
  Basis Set: AUG-CC-PVTZ
    Blend: AUG-CC-PVTZ
  Basis Set: (AUG-CC-PVTZ AUX)
    Blend: AUG-CC-PVTZ-JKFIT

    Orbital Energies [Eh]
    ---------------------

    Doubly Occupied:

       1A    -80.116665     2A    -20.614537     3A    -20.606554
       4A    -20.598778     5A    -20.582890     6A    -20.578011
       7A    -20.574556     8A    -20.574331     9A    -20.574150
      10A    -20.523209    11A    -11.320403    12A    -11.303144
      13A    -11.299344    14A    -11.299282    15A    -11.298090
      16A    -11.296240    17A    -11.291593    18A    -11.229834
      19A     -7.632119    20A     -5.530625    21A     -5.530250
      22A     -5.529051    23A     -1.459950    24A     -1.410700
      25A     -1.394223    26A     -1.393434    27A     -1.386720
      28A     -1.373224    29A     -1.363933    30A     -1.353585
      31A     -1.303604    32A     -1.117390    33A     -1.040390
      34A     -1.010720    35A     -1.002664    36A     -0.879878
      37A     -0.864715    38A     -0.858957    39A     -0.821655
      40A     -0.810665    41A     -0.751736    42A     -0.745075
      43A     -0.731490    44A     -0.728085    45A     -0.706509
      46A     -0.687686    47A     -0.677926    48A     -0.673551
      49A     -0.662706    50A     -0.660412    51A     -0.642198
      52A     -0.634823    53A     -0.627144    54A     -0.615316
      55A     -0.603858    56A     -0.598596    57A     -0.581485
      58A     -0.575456    59A     -0.571051    60A     -0.559686
      61A     -0.556733    62A     -0.548333    63A     -0.541129
      64A     -0.536844    65A     -0.529807    66A     -0.520599
      67A     -0.513180    68A     -0.504274    69A     -0.496470
      70A     -0.484490    71A     -0.479583    72A     -0.476417
      73A     -0.462206    74A     -0.456068    75A     -0.449974
      76A     -0.436065

  @DF-RHF Final Energy: -1327.86029981927982

   => Energetics <=

    Nuclear Repulsion Energy =           1772.2873667882176960
    One-Electron Energy =               -5356.7412908022324700
    Two-Electron Energy =                2256.5936241947351846
    Total Energy =                      -1327.8602998192795894
  Basis Set: (AUG-CC-PVTZ AUX)
    Blend: AUG-CC-PVTZ-RI
    Molecular point group: c1

    Geometry (in Angstrom), charge = 0, multiplicity = 1:

       Center              X                  Y                   Z               Mass
    ------------   -----------------  -----------------  -----------------  -----------------
         P           -2.289720236665    -0.940527778738     0.343897693323    30.973761998420
         O           -0.981777236665    -0.202046778738     0.937508693323    15.994914619570
         O            1.342625763335    -1.675967778738     1.230070693323    15.994914619570
         O            0.079080763335     2.359119221262     0.461387693323    15.994914619570
         O            3.068890763335    -2.187556778738    -0.809370306677    15.994914619570
         O            2.838451063335     2.503700221262     0.378998393323    15.994914619570
         O            4.196063763335     0.434912221262    -0.973654306677    15.994914619570
         O           -2.826487236665     0.032866221262    -0.808311306677    15.994914619570
         O           -3.258745236665    -0.723766778738     1.620890693323    15.994914619570
         O           -2.118617236665    -2.344128778738    -0.100448306677    15.994914619570
         C            0.118537763335     0.029524221262     0.015538693323    12.000000000000
         C            0.953667763335    -1.244689778738    -0.076505306677    12.000000000000
         C            0.902287663335     1.212367921262     0.571813693323    12.000000000000
         C            2.260035763335    -1.014791778738    -0.818817306677    12.000000000000
         C            2.177450763335     1.395987221262    -0.228821306677    12.000000000000
         C            3.026217763335     0.148220221262    -0.211102306677    12.000000000000
         C           -3.123837236665     1.431113221262    -0.489666306677    12.000000000000
         C           -3.535941236665     2.084680221262    -1.784899306677    12.000000000000
         H           -0.282716236665     0.298316221262    -0.971018306677     1.007825032230
         H            0.370644763335    -2.029848778738    -0.572812306677     1.007825032230
         H            1.157495763335     0.997392221262     1.611375693323     1.007825032230
         H            2.061309763335    -0.789144778738    -1.873536306677     1.007825032230
         H            1.917362763335     1.635802221262    -1.274363306677     1.007825032230
         H            3.296230763335    -0.095016778738     0.826865693323     1.007825032230
         H            0.522150763335    -1.888516778738     1.710729693323     1.007825032230
         H            0.665915763335     3.108826221262     0.682403693323     1.007825032230
         H            2.973918763335    -2.547858778738     0.093873693323     1.007825032230
         H            3.721804763335     2.548701221262    -0.059649306677     1.007825032230
         H            4.640102763335    -0.424318778738    -1.097867306677     1.007825032230
         H           -3.808019236665    -1.522822778738     1.733947693323     1.007825032230
         H           -3.930170236665     1.445056221262     0.248605693323     1.007825032230
         H           -2.229386236665     1.892395221262    -0.059876306677     1.007825032230
         H           -3.800145236665     3.130397221262    -1.603451306677     1.007825032230
         H           -2.716820236665     2.052838221262    -2.505655306677     1.007825032230
         H           -4.400568236665     1.573838221262    -2.213504306677     1.007825032230

  Basis Set: AUG-CC-PVTZ
    Blend: AUG-CC-PVTZ
  Basis Set: (AUG-CC-PVTZ AUX)
    Blend: AUG-CC-PVTZ-JKFIT
	 Reference Energy          =   -1327.8602998192798168 [Eh]
	 Singles Energy            =      -0.0000000000000000 [Eh]
	 Same-Spin Energy          =      -1.0147488349563287 [Eh]
	 Opposite-Spin Energy      =      -3.0764730695879532 [Eh]
	 Correlation Energy        =      -4.0912219045442821 [Eh]
	 Total Energy              =   -1331.9515217238240439 [Eh]

	 ================> DF-SCS-MP2 Energies <==================
	-----------------------------------------------------------
	 SCS Same-Spin Scale       =       0.3333333333333333 [-]
	 SCS Opposite-Spin Scale   =       1.2000000000000000 [-]
	 SCS Same-Spin Energy      =      -0.3382496116521095 [Eh]
	 SCS Opposite-Spin Energy  =      -3.6917676835055437 [Eh]
	 SCS Correlation Energy    =      -4.0300172951576529 [Eh]
	 SCS Total Energy          =   -1331.8903171144374937 [Eh]
	-----------------------------------------------------------

  Dipole Moment: [D]
     X:    -1.0952      Y:     1.8915      Z:     0.7172     Total:     2.3003

*** Psi4 exiting successfully. Buy a developer a beer!
