                               Psi4 1.3.2 release

  ==> Input File <==

--------------------------------------------------------------------------
#psi4
#
memory 32 gb

molecule  {
0 1
  P       -2.2900960    -0.9400430     0.3446780
  O       -0.9821530    -0.2015620     0.9382890
  O        1.3422500    -1.6754830     1.2308510
  O        0.0787050     2.3596040     0.4621680
  O        3.0685150    -2.1870720    -0.8085900
  O        2.8473350     2.5031130     0.3715350
  O        4.1956880     0.4353970    -0.9728740
  O       -2.8268630     0.0333510    -0.8075310
  O       -3.2591210    -0.7232820     1.6216710
  O       -2.1189930    -2.3436440    -0.0996680
  C        0.1181620     0.0300090     0.0163190
  C        0.9532920    -1.2442050    -0.0757250
  C        0.8985890     1.2026440     0.5648510
  C        2.2596600    -1.0143070    -0.8180370
  C        2.1300712     1.3188659    -0.2700878
  C        3.0258420     0.1487050    -0.2103220
  C       -3.1242130     1.4315980    -0.4888860
  C       -3.5363170     2.0851650    -1.7841190
  H       -0.2830920     0.2988010    -0.9702380
  H        0.3702690    -2.0293640    -0.5720320
  H        1.1571200     0.9978770     1.6121560
  H        2.0609340    -0.7886600    -1.8727560
  H        1.9169870     1.6362870    -1.2735830
  H        3.2958550    -0.0945320     0.8276460
  H        0.5217750    -1.8880320     1.7115100
  H        0.6655400     3.1093110     0.6831840
  H        2.9735430    -2.5473740     0.0946540
  H        3.7214290     2.5491860    -0.0588690
  H        4.6397270    -0.4238340    -1.0970870
  H       -3.8083950    -1.5223380     1.7347280
  H       -3.9305460     1.4455410     0.2493860
  H       -2.2297620     1.8928800    -0.0590960
  H       -3.8005210     3.1308820    -1.6026710
  H       -2.7171960     2.0533230    -2.5048750
  H       -4.4009440     1.5743230    -2.2127240
units angstrom
no_reorient  #important for SAPT in psi4, default
symmetry c1  #important for SAPT in psi4, default
}

set PROPERTIES_ORIGIN ["COM"]
properties('MP2/aug-cc-pvtz', properties = ['dipole'])
--------------------------------------------------------------------------

    Molecular point group: c1
  Charge       = 0
  Multiplicity = 1
  Basis Set: AUG-CC-PVTZ
    Blend: AUG-CC-PVTZ
  Basis Set: (AUG-CC-PVTZ AUX)
    Blend: AUG-CC-PVTZ-JKFIT

    Orbital Energies [Eh]
    ---------------------

    Doubly Occupied:

       1A    -80.117538     2A    -20.615275     3A    -20.607587
       4A    -20.599677     5A    -20.584812     6A    -20.576226
       7A    -20.575679     8A    -20.575262     9A    -20.565074
      10A    -20.524174    11A    -11.321650    12A    -11.305479
      13A    -11.301320    14A    -11.300765    15A    -11.300083
      16A    -11.297926    17A    -11.293914    18A    -11.230471
      19A     -7.633004    20A     -5.531510    21A     -5.531131
      22A     -5.529936    23A     -1.461005    24A     -1.411078
      25A     -1.394776    26A     -1.387584    27A     -1.386496
      28A     -1.373788    29A     -1.361182    30A     -1.332785
      31A     -1.304574    32A     -1.129528    33A     -1.041234
      34A     -1.018650    35A     -1.008031    36A     -0.881601
      37A     -0.865584    38A     -0.861374    39A     -0.822109
      40A     -0.815020    41A     -0.752115    42A     -0.744367
      43A     -0.733569    44A     -0.728911    45A     -0.702419
      46A     -0.688901    47A     -0.679787    48A     -0.674529
      49A     -0.661485    50A     -0.659591    51A     -0.639183
      52A     -0.632958    53A     -0.627563    54A     -0.615944
      55A     -0.601075    56A     -0.599438    57A     -0.582836
      58A     -0.576081    59A     -0.571728    60A     -0.559398
      61A     -0.550081    62A     -0.547350    63A     -0.541191
      64A     -0.535443    65A     -0.531277    66A     -0.519312
      67A     -0.510462    68A     -0.504623    69A     -0.497801
      70A     -0.486122    71A     -0.480634    72A     -0.477316
      73A     -0.469137    74A     -0.466178    75A     -0.453653
      76A     -0.434921

  @DF-RHF Final Energy: -1327.84993279433002

   => Energetics <=

    Nuclear Repulsion Energy =           1773.3518575024511392
    One-Electron Energy =               -5358.7790401847114481
    Two-Electron Energy =                2257.5772498879305203
    Total Energy =                      -1327.8499327943300159
  Basis Set: (AUG-CC-PVTZ AUX)
    Blend: AUG-CC-PVTZ-RI
    Molecular point group: c1

    Geometry (in Angstrom), charge = 0, multiplicity = 1:

       Center              X                  Y                   Z               Mass
    ------------   -----------------  -----------------  -----------------  -----------------
         P           -2.288137890361    -0.936810079787     0.346429569659    30.973761998420
         O           -0.980194890361    -0.198329079787     0.940040569659    15.994914619570
         O            1.344208109639    -1.672250079787     1.232602569659    15.994914619570
         O            0.080663109639     2.362836920213     0.463919569659    15.994914619570
         O            3.070473109639    -2.183839079787    -0.806838430341    15.994914619570
         O            2.849293109639     2.506345920213     0.373286569659    15.994914619570
         O            4.197646109639     0.438629920213    -0.971122430341    15.994914619570
         O           -2.824904890361     0.036583920213    -0.805779430341    15.994914619570
         O           -3.257162890361    -0.720049079787     1.623422569659    15.994914619570
         O           -2.117034890361    -2.340411079787    -0.097916430341    15.994914619570
         C            0.120120109639     0.033241920213     0.018070569659    12.000000000000
         C            0.955250109639    -1.240972079787    -0.073973430341    12.000000000000
         C            0.900547109639     1.205876920213     0.566602569659    12.000000000000
         C            2.261618109639    -1.011074079787    -0.816285430341    12.000000000000
         C            2.132029309639     1.322098820213    -0.268336230341    12.000000000000
         C            3.027800109639     0.151937920213    -0.208570430341    12.000000000000
         C           -3.122254890361     1.434830920213    -0.487134430341    12.000000000000
         C           -3.534358890361     2.088397920213    -1.782367430341    12.000000000000
         H           -0.281133890361     0.302033920213    -0.968486430341     1.007825032230
         H            0.372227109639    -2.026131079787    -0.570280430341     1.007825032230
         H            1.159078109639     1.001109920213     1.613907569659     1.007825032230
         H            2.062892109639    -0.785427079787    -1.871004430341     1.007825032230
         H            1.918945109639     1.639519920213    -1.271831430341     1.007825032230
         H            3.297813109639    -0.091299079787     0.829397569659     1.007825032230
         H            0.523733109639    -1.884799079787     1.713261569659     1.007825032230
         H            0.667498109639     3.112543920213     0.684935569659     1.007825032230
         H            2.975501109639    -2.544141079787     0.096405569659     1.007825032230
         H            3.723387109639     2.552418920213    -0.057117430341     1.007825032230
         H            4.641685109639    -0.420601079787    -1.095335430341     1.007825032230
         H           -3.806436890361    -1.519105079787     1.736479569659     1.007825032230
         H           -3.928587890361     1.448773920213     0.251137569659     1.007825032230
         H           -2.227803890361     1.896112920213    -0.057344430341     1.007825032230
         H           -3.798562890361     3.134114920213    -1.600919430341     1.007825032230
         H           -2.715237890361     2.056555920213    -2.503123430341     1.007825032230
         H           -4.398985890361     1.577555920213    -2.210972430341     1.007825032230

  Basis Set: AUG-CC-PVTZ
    Blend: AUG-CC-PVTZ
  Basis Set: (AUG-CC-PVTZ AUX)
    Blend: AUG-CC-PVTZ-JKFIT
	 Reference Energy          =   -1327.8499327943300159 [Eh]
	 Singles Energy            =      -0.0000000000000000 [Eh]
	 Same-Spin Energy          =      -1.0156744636208368 [Eh]
	 Opposite-Spin Energy      =      -3.0786807570700438 [Eh]
	 Correlation Energy        =      -4.0943552206908809 [Eh]
	 Total Energy              =   -1331.9442880150209021 [Eh]

	 ================> DF-SCS-MP2 Energies <==================
	-----------------------------------------------------------
	 SCS Same-Spin Scale       =       0.3333333333333333 [-]
	 SCS Opposite-Spin Scale   =       1.2000000000000000 [-]
	 SCS Same-Spin Energy      =      -0.3385581545402789 [Eh]
	 SCS Opposite-Spin Energy  =      -3.6944169084840524 [Eh]
	 SCS Correlation Energy    =      -4.0329750630243311 [Eh]
	 SCS Total Energy          =   -1331.8829078573544393 [Eh]
	-----------------------------------------------------------

  Dipole Moment: [D]
     X:    -1.2919      Y:     1.6062      Z:     0.6210     Total:     2.1528

*** Psi4 exiting successfully. Buy a developer a beer!
