                               Psi4 1.4a3.dev225

  ==> Input File <==

--------------------------------------------------------------------------
#psi4
#
memory 32 gb

molecule  {
0 1
  P       -2.3219140    -1.0563120    -0.0968450
  O       -1.0285840    -0.5623410     0.7549430
  O        1.3695440    -1.8069540     1.2202350
  O       -0.1592450     2.1412630     0.5207450
  O        3.3269040    -2.0858120    -0.6453880
  O        2.5724350     2.5270130     0.6374560
  O        4.2203020     0.6406430    -0.6358120
  O       -2.8737010     0.2643620    -0.8096810
  O       -3.3065970    -1.3497020     1.1531960
  O       -2.1044560    -2.1814480    -1.0350500
  C        0.1200290    -0.1583450    -0.0432010
  C        1.0698050    -1.3527180    -0.1046720
  C        0.7441670     1.0454510     0.6308160
  C        2.4193320    -0.9866070    -0.7068450
  C        2.0603010     1.3853380    -0.0470020
  C        3.0180900     0.2181970     0.0056710
  C       -3.2473180     1.4231610     0.0025120
  C       -3.2076300     2.6262440    -0.9075720
  H       -0.2047330     0.1313700    -1.0514980
  H        0.5965010    -2.1549610    -0.6866410
  H        0.9371260     0.8063110     1.6860210
  H        2.3054700    -0.7437210    -1.7704410
  H        1.8633300     1.6367370    -1.1028410
  H        3.2052911    -0.0299714     1.0084072
  H        0.5126160    -2.0057500     1.6426110
  H        0.3598300     2.9232990     0.7925780
  H        3.1793900    -2.4823080     0.2360710
  H        3.4672560     2.6739710     0.2770410
  H        4.7639490    -0.1654590    -0.7244900
  H       -3.7873380    -2.1826420     0.9908450
  H       -4.2474700     1.2335250     0.4005830
  H       -2.5352900     1.5309660     0.8217280
  H       -3.5402110     3.5125760    -0.3587690
  H       -2.1856630     2.7912820    -1.2511950
  H       -3.8637180     2.4807570    -1.7684970
units angstrom
no_reorient  #important for SAPT in psi4, default
symmetry c1  #important for SAPT in psi4, default
}

set PROPERTIES_ORIGIN ["COM"]
properties('MP2/aug-cc-pvtz', properties = ['dipole'])
--------------------------------------------------------------------------

    Molecular point group: c1
  Charge       = 0
  Multiplicity = 1
  Basis Set: AUG-CC-PVTZ
    Blend: AUG-CC-PVTZ
  Basis Set: (AUG-CC-PVTZ AUX)
    Blend: AUG-CC-PVTZ-JKFIT

    Orbital Energies [Eh]
    ---------------------

    Doubly Occupied:

       1A    -80.116857     2A    -20.615036     3A    -20.608131
       4A    -20.596048     5A    -20.584381     6A    -20.578551
       7A    -20.575262     8A    -20.574689     9A    -20.574584
      10A    -20.522564    11A    -11.321447    12A    -11.305263
      13A    -11.300671    14A    -11.299878    15A    -11.298020
      16A    -11.296172    17A    -11.287197    18A    -11.222910
      19A     -7.632120    20A     -5.530655    21A     -5.530152
      22A     -5.529091    23A     -1.458537    24A     -1.411043
      25A     -1.395485    26A     -1.392763    27A     -1.385208
      28A     -1.372688    29A     -1.364320    30A     -1.354179
      31A     -1.302748    32A     -1.119242    33A     -1.035550
      34A     -1.012903    35A     -1.003537    36A     -0.879346
      37A     -0.862748    38A     -0.859587    39A     -0.824181
      40A     -0.811838    41A     -0.754858    42A     -0.746912
      43A     -0.729317    44A     -0.726423    45A     -0.706358
      46A     -0.687076    47A     -0.679572    48A     -0.674357
      49A     -0.663720    50A     -0.659645    51A     -0.642118
      52A     -0.638121    53A     -0.623948    54A     -0.613163
      55A     -0.604195    56A     -0.597904    57A     -0.581124
      58A     -0.577799    59A     -0.570425    60A     -0.560288
      61A     -0.555342    62A     -0.548402    63A     -0.538672
      64A     -0.537956    65A     -0.530272    66A     -0.517996
      67A     -0.508783    68A     -0.504117    69A     -0.494726
      70A     -0.487884    71A     -0.478732    72A     -0.475522
      73A     -0.462727    74A     -0.458496    75A     -0.451044
      76A     -0.437223

  @DF-RHF Final Energy: -1327.86034815397397

   => Energetics <=

    Nuclear Repulsion Energy =           1774.9225911410808294
    One-Electron Energy =               -5362.0242851456314384
    Two-Electron Energy =                2259.2413458505766357
    Total Energy =                      -1327.8603481539739732
  Basis Set: (AUG-CC-PVTZ AUX)
    Blend: AUG-CC-PVTZ-RI
    Molecular point group: c1

    Geometry (in Angstrom), charge = 0, multiplicity = 1:

       Center              X                  Y                   Z               Mass
    ------------   -----------------  -----------------  -----------------  -----------------
         P           -2.311121423455    -1.018574293804    -0.099122389763    30.973761998420
         O           -1.017791423455    -0.524603293804     0.752665610237    15.994914619570
         O            1.380336576545    -1.769216293804     1.217957610237    15.994914619570
         O           -0.148452423455     2.179000706196     0.518467610237    15.994914619570
         O            3.337696576545    -2.048074293804    -0.647665389763    15.994914619570
         O            2.583227576545     2.564750706196     0.635178610237    15.994914619570
         O            4.231094576545     0.678380706196    -0.638089389763    15.994914619570
         O           -2.862908423455     0.302099706196    -0.811958389763    15.994914619570
         O           -3.295804423455    -1.311964293804     1.150918610237    15.994914619570
         O           -2.093663423455    -2.143710293804    -1.037327389763    15.994914619570
         C            0.130821576545    -0.120607293804    -0.045478389763    12.000000000000
         C            1.080597576545    -1.314980293804    -0.106949389763    12.000000000000
         C            0.754959576545     1.083188706196     0.628538610237    12.000000000000
         C            2.430124576545    -0.948869293804    -0.709122389763    12.000000000000
         C            2.071093576545     1.423075706196    -0.049279389763    12.000000000000
         C            3.028882576545     0.255934706196     0.003393610237    12.000000000000
         C           -3.236525423455     1.460898706196     0.000234610237    12.000000000000
         C           -3.196837423455     2.663981706196    -0.909849389763    12.000000000000
         H           -0.193940423455     0.169107706196    -1.053775389763     1.007825032230
         H            0.607293576545    -2.117223293804    -0.688918389763     1.007825032230
         H            0.947918576545     0.844048706196     1.683743610237     1.007825032230
         H            2.316262576545    -0.705983293804    -1.772718389763     1.007825032230
         H            1.874122576545     1.674474706196    -1.105118389763     1.007825032230
         H            3.216083676545     0.007766306196     1.006129810237     1.007825032230
         H            0.523408576545    -1.968012293804     1.640333610237     1.007825032230
         H            0.370622576545     2.961036706196     0.790300610237     1.007825032230
         H            3.190182576545    -2.444570293804     0.233793610237     1.007825032230
         H            3.478048576545     2.711708706196     0.274763610237     1.007825032230
         H            4.774741576545    -0.127721293804    -0.726767389763     1.007825032230
         H           -3.776545423455    -2.144904293804     0.988567610237     1.007825032230
         H           -4.236677423455     1.271262706196     0.398305610237     1.007825032230
         H           -2.524497423455     1.568703706196     0.819450610237     1.007825032230
         H           -3.529418423455     3.550313706196    -0.361046389763     1.007825032230
         H           -2.174870423455     2.829019706196    -1.253472389763     1.007825032230
         H           -3.852925423455     2.518494706196    -1.770774389763     1.007825032230

  Basis Set: AUG-CC-PVTZ
    Blend: AUG-CC-PVTZ
  Basis Set: (AUG-CC-PVTZ AUX)
    Blend: AUG-CC-PVTZ-JKFIT
	 Reference Energy          =   -1327.8603481539739732 [Eh]
	 Singles Energy            =      -0.0000000000000000 [Eh]
	 Same-Spin Energy          =      -1.0145779448646448 [Eh]
	 Opposite-Spin Energy      =      -3.0761545058528093 [Eh]
	 Correlation Energy        =      -4.0907324507174536 [Eh]
	 Total Energy              =   -1331.9510806046914695 [Eh]

	 ================> DF-SCS-MP2 Energies <==================
	-----------------------------------------------------------
	 SCS Same-Spin Scale       =       0.3333333333333333 [-]
	 SCS Opposite-Spin Scale   =       1.2000000000000000 [-]
	 SCS Same-Spin Energy      =      -0.3381926482882149 [Eh]
	 SCS Opposite-Spin Energy  =      -3.6913854070233709 [Eh]
	 SCS Correlation Energy    =      -4.0295780553115854 [Eh]
	 SCS Total Energy          =   -1331.8899262092854769 [Eh]
	-----------------------------------------------------------

  Dipole Moment: [D]
     X:    -0.8691      Y:     1.4123      Z:     1.8963     Total:     2.5191

*** Psi4 exiting successfully. Buy a developer a beer!
