                               Psi4 1.4a3.dev225

  ==> Input File <==

--------------------------------------------------------------------------
#psi4
#
memory 32 gb

molecule  {
0 1
  P       -2.3219140    -1.0563120    -0.0968450
  O       -1.0285840    -0.5623410     0.7549430
  O        1.3695440    -1.8069540     1.2202350
  O       -0.1592450     2.1412630     0.5207450
  O        3.3269040    -2.0858120    -0.6453880
  O        2.5724350     2.5270130     0.6374560
  O        4.2203020     0.6406430    -0.6358120
  O       -2.8737010     0.2643620    -0.8096810
  O       -3.3065970    -1.3497020     1.1531960
  O       -2.1044560    -2.1814480    -1.0350500
  C        0.1200290    -0.1583450    -0.0432010
  C        1.0698050    -1.3527180    -0.1046720
  C        0.7441670     1.0454510     0.6308160
  C        2.4193320    -0.9866070    -0.7068450
  C        2.0603010     1.3853380    -0.0470020
  C        3.0259559     0.2340246     0.0150313
  C       -3.2473180     1.4231610     0.0025120
  C       -3.2076300     2.6262440    -0.9075720
  H       -0.2047330     0.1313700    -1.0514980
  H        0.5965010    -2.1549610    -0.6866410
  H        0.9371260     0.8063110     1.6860210
  H        2.3054700    -0.7437210    -1.7704410
  H        1.8633300     1.6367370    -1.1028410
  H        3.2142070    -0.0417910     1.0561650
  H        0.5126160    -2.0057500     1.6426110
  H        0.3598300     2.9232990     0.7925780
  H        3.1793900    -2.4823080     0.2360710
  H        3.4672560     2.6739710     0.2770410
  H        4.7639490    -0.1654590    -0.7244900
  H       -3.7873380    -2.1826420     0.9908450
  H       -4.2474700     1.2335250     0.4005830
  H       -2.5352900     1.5309660     0.8217280
  H       -3.5402110     3.5125760    -0.3587690
  H       -2.1856630     2.7912820    -1.2511950
  H       -3.8637180     2.4807570    -1.7684970
units angstrom
no_reorient  #important for SAPT in psi4, default
symmetry c1  #important for SAPT in psi4, default
}

set PROPERTIES_ORIGIN ["COM"]
properties('MP2/aug-cc-pvtz', properties = ['dipole'])
--------------------------------------------------------------------------

    Molecular point group: c1
  Charge       = 0
  Multiplicity = 1
  Basis Set: AUG-CC-PVTZ
    Blend: AUG-CC-PVTZ
  Basis Set: (AUG-CC-PVTZ AUX)
    Blend: AUG-CC-PVTZ-JKFIT

    Orbital Energies [Eh]
    ---------------------

    Doubly Occupied:

       1A    -80.116753     2A    -20.614946     3A    -20.607975
       4A    -20.595984     5A    -20.583867     6A    -20.577968
       7A    -20.575778     8A    -20.575033     9A    -20.574873
      10A    -20.522449    11A    -11.321266    12A    -11.304754
      13A    -11.300823    14A    -11.300432    15A    -11.298001
      16A    -11.296144    17A    -11.292769    18A    -11.222906
      19A     -7.632015    20A     -5.530550    21A     -5.530048
      22A     -5.528986    23A     -1.458420    24A     -1.410915
      25A     -1.396019    26A     -1.392579    27A     -1.385184
      28A     -1.373444    29A     -1.364103    30A     -1.354870
      31A     -1.302634    32A     -1.117737    33A     -1.035499
      34A     -1.010960    35A     -1.002410    36A     -0.877562
      37A     -0.862421    38A     -0.859178    39A     -0.823029
      40A     -0.810092    41A     -0.754504    42A     -0.746352
      43A     -0.729082    44A     -0.726168    45A     -0.705505
      46A     -0.686749    47A     -0.679748    48A     -0.673905
      49A     -0.663360    50A     -0.659205    51A     -0.642174
      52A     -0.638165    53A     -0.623562    54A     -0.612928
      55A     -0.604230    56A     -0.597171    57A     -0.580977
      58A     -0.577564    59A     -0.570253    60A     -0.559967
      61A     -0.555349    62A     -0.548111    63A     -0.538395
      64A     -0.537870    65A     -0.530229    66A     -0.517796
      67A     -0.508767    68A     -0.503763    69A     -0.494721
      70A     -0.487545    71A     -0.478601    72A     -0.475421
      73A     -0.462658    74A     -0.458894    75A     -0.450719
      76A     -0.432909

  @DF-RHF Final Energy: -1327.86089698703245

   => Energetics <=

    Nuclear Repulsion Energy =           1774.4365209009074533
    One-Electron Energy =               -5361.0854469375535700
    Two-Electron Energy =                2258.7880290496136695
    Total Energy =                      -1327.8608969870324472
  Basis Set: (AUG-CC-PVTZ AUX)
    Blend: AUG-CC-PVTZ-RI
    Molecular point group: c1

    Geometry (in Angstrom), charge = 0, multiplicity = 1:

       Center              X                  Y                   Z               Mass
    ------------   -----------------  -----------------  -----------------  -----------------
         P           -2.311480293487    -1.019192284783    -0.099679407533    30.973761998420
         O           -1.018150293487    -0.525221284783     0.752108592467    15.994914619570
         O            1.379977706513    -1.769834284783     1.217400592467    15.994914619570
         O           -0.148811293487     2.178382715217     0.517910592467    15.994914619570
         O            3.337337706513    -2.048692284783    -0.648222407533    15.994914619570
         O            2.582868706513     2.564132715217     0.634621592467    15.994914619570
         O            4.230735706513     0.677762715217    -0.638646407533    15.994914619570
         O           -2.863267293487     0.301481715217    -0.812515407533    15.994914619570
         O           -3.296163293487    -1.312582284783     1.150361592467    15.994914619570
         O           -2.094022293487    -2.144328284783    -1.037884407533    15.994914619570
         C            0.130462706513    -0.121225284783    -0.046035407533    12.000000000000
         C            1.080238706513    -1.315598284783    -0.107506407533    12.000000000000
         C            0.754600706513     1.082570715217     0.627981592467    12.000000000000
         C            2.429765706513    -0.949487284783    -0.709679407533    12.000000000000
         C            2.070734706513     1.422457715217    -0.049836407533    12.000000000000
         C            3.036389606513     0.271144315217     0.012196892467    12.000000000000
         C           -3.236884293487     1.460280715217    -0.000322407533    12.000000000000
         C           -3.197196293487     2.663363715217    -0.910406407533    12.000000000000
         H           -0.194299293487     0.168489715217    -1.054332407533     1.007825032230
         H            0.606934706513    -2.117841284783    -0.689475407533     1.007825032230
         H            0.947559706513     0.843430715217     1.683186592467     1.007825032230
         H            2.315903706513    -0.706601284783    -1.773275407533     1.007825032230
         H            1.873763706513     1.673856715217    -1.105675407533     1.007825032230
         H            3.224640706513    -0.004671284783     1.053330592467     1.007825032230
         H            0.523049706513    -1.968630284783     1.639776592467     1.007825032230
         H            0.370263706513     2.960418715217     0.789743592467     1.007825032230
         H            3.189823706513    -2.445188284783     0.233236592467     1.007825032230
         H            3.477689706513     2.711090715217     0.274206592467     1.007825032230
         H            4.774382706513    -0.128339284783    -0.727324407533     1.007825032230
         H           -3.776904293487    -2.145522284783     0.988010592467     1.007825032230
         H           -4.237036293487     1.270644715217     0.397748592467     1.007825032230
         H           -2.524856293487     1.568085715217     0.818893592467     1.007825032230
         H           -3.529777293487     3.549695715217    -0.361603407533     1.007825032230
         H           -2.175229293487     2.828401715217    -1.254029407533     1.007825032230
         H           -3.853284293487     2.517876715217    -1.771331407533     1.007825032230

  Basis Set: AUG-CC-PVTZ
    Blend: AUG-CC-PVTZ
  Basis Set: (AUG-CC-PVTZ AUX)
    Blend: AUG-CC-PVTZ-JKFIT
	 Reference Energy          =   -1327.8608969870324472 [Eh]
	 Singles Energy            =      -0.0000000000000000 [Eh]
	 Same-Spin Energy          =      -1.0146056198597733 [Eh]
	 Opposite-Spin Energy      =      -3.0763729796419699 [Eh]
	 Correlation Energy        =      -4.0909785995017431 [Eh]
	 Total Energy              =   -1331.9518755865342428 [Eh]

	 ================> DF-SCS-MP2 Energies <==================
	-----------------------------------------------------------
	 SCS Same-Spin Scale       =       0.3333333333333333 [-]
	 SCS Opposite-Spin Scale   =       1.2000000000000000 [-]
	 SCS Same-Spin Energy      =      -0.3382018732865911 [Eh]
	 SCS Opposite-Spin Energy  =      -3.6916475755703635 [Eh]
	 SCS Correlation Energy    =      -4.0298494488569547 [Eh]
	 SCS Total Energy          =   -1331.8907464358894686 [Eh]
	-----------------------------------------------------------

  Dipole Moment: [D]
     X:    -0.8403      Y:     1.4272      Z:     1.8776     Total:     2.5036

*** Psi4 exiting successfully. Buy a developer a beer!
