                               Psi4 1.3.2 release

  ==> Input File <==

--------------------------------------------------------------------------
#psi4
#
memory 32 gb

molecule  {
0 1
  P       -2.2900960    -0.9400430     0.3446780
  O       -0.9978438    -0.1539912     0.9301143
  O        1.3422500    -1.6754830     1.2308510
  O        0.0787050     2.3596040     0.4621680
  O        3.0685150    -2.1870720    -0.8085900
  O        2.8473350     2.5031130     0.3715350
  O        4.1956880     0.4353970    -0.9728740
  O       -2.8268630     0.0333510    -0.8075310
  O       -3.2591210    -0.7232820     1.6216710
  O       -2.1189930    -2.3436440    -0.0996680
  C        0.1181620     0.0300090     0.0163190
  C        0.9854962    -1.2194922    -0.1102264
  C        0.8985890     1.2026440     0.5648510
  C        2.2596600    -1.0143070    -0.8180370
  C        2.1770750     1.3964720    -0.2280410
  C        3.0258420     0.1487050    -0.2103220
  C       -3.1242130     1.4315980    -0.4888860
  C       -3.5363170     2.0851650    -1.7841190
  H       -0.2830920     0.2988010    -0.9702380
  H        0.3702690    -2.0293640    -0.5720320
  H        1.1571200     0.9978770     1.6121560
  H        2.0609340    -0.7886600    -1.8727560
  H        1.9169870     1.6362870    -1.2735830
  H        3.2958550    -0.0945320     0.8276460
  H        0.5217750    -1.8880320     1.7115100
  H        0.6655400     3.1093110     0.6831840
  H        2.9735430    -2.5473740     0.0946540
  H        3.7214290     2.5491860    -0.0588690
  H        4.6397270    -0.4238340    -1.0970870
  H       -3.8083950    -1.5223380     1.7347280
  H       -3.9305460     1.4455410     0.2493860
  H       -2.2297620     1.8928800    -0.0590960
  H       -3.8005210     3.1308820    -1.6026710
  H       -2.7171960     2.0533230    -2.5048750
  H       -4.4009440     1.5743230    -2.2127240
units angstrom
no_reorient  #important for SAPT in psi4, default
symmetry c1  #important for SAPT in psi4, default
}

set PROPERTIES_ORIGIN ["COM"]
properties('MP2/aug-cc-pvtz', properties = ['dipole'])
--------------------------------------------------------------------------

    Molecular point group: c1
  Charge       = 0
  Multiplicity = 1
  Basis Set: AUG-CC-PVTZ
    Blend: AUG-CC-PVTZ
  Basis Set: (AUG-CC-PVTZ AUX)
    Blend: AUG-CC-PVTZ-JKFIT

    Orbital Energies [Eh]
    ---------------------

    Doubly Occupied:

       1A    -80.118184     2A    -20.615356     3A    -20.608623
       4A    -20.597412     5A    -20.579442     6A    -20.576866
       7A    -20.576497     8A    -20.574697     9A    -20.572484
      10A    -20.526741    11A    -11.321755    12A    -11.306486
      13A    -11.299832    14A    -11.298321    15A    -11.297799
      16A    -11.296676    17A    -11.292354    18A    -11.229187
      19A     -7.633543    20A     -5.532058    21A     -5.531670
      22A     -5.530467    23A     -1.459833    24A     -1.408878
      25A     -1.394507    26A     -1.391283    27A     -1.386117
      28A     -1.370247    29A     -1.361111    30A     -1.352945
      31A     -1.306362    32A     -1.123978    33A     -1.039716
      34A     -1.012682    35A     -1.009638    36A     -0.881136
      37A     -0.864666    38A     -0.858890    39A     -0.822636
      40A     -0.810577    41A     -0.751361    42A     -0.744829
      43A     -0.730907    44A     -0.726364    45A     -0.708466
      46A     -0.686488    47A     -0.677286    48A     -0.673373
      49A     -0.663063    50A     -0.661245    51A     -0.642188
      52A     -0.634490    53A     -0.628026    54A     -0.614053
      55A     -0.602481    56A     -0.598506    57A     -0.582462
      58A     -0.576046    59A     -0.569813    60A     -0.559368
      61A     -0.555610    62A     -0.545481    63A     -0.539975
      64A     -0.536600    65A     -0.527161    66A     -0.522162
      67A     -0.514130    68A     -0.507020    69A     -0.496760
      70A     -0.487286    71A     -0.480578    72A     -0.477750
      73A     -0.464474    74A     -0.456135    75A     -0.450916
      76A     -0.436496

  @DF-RHF Final Energy: -1327.85584214215351

   => Energetics <=

    Nuclear Repulsion Energy =           1772.4482402077808274
    One-Electron Energy =               -5357.0061589833821927
    Two-Electron Energy =                2256.7020766334476320
    Total Energy =                      -1327.8558421421535058
  Basis Set: (AUG-CC-PVTZ AUX)
    Blend: AUG-CC-PVTZ-RI
    Molecular point group: c1

    Geometry (in Angstrom), charge = 0, multiplicity = 1:

       Center              X                  Y                   Z               Mass
    ------------   -----------------  -----------------  -----------------  -----------------
         P           -2.290566275138    -0.943713886802     0.346569154073    30.973761998420
         O           -0.998314075138    -0.157662086802     0.932005454073    15.994914619570
         O            1.341779724862    -1.679153886802     1.232742154073    15.994914619570
         O            0.078234724862     2.355933113198     0.464059154073    15.994914619570
         O            3.068044724862    -2.190742886802    -0.806698845927    15.994914619570
         O            2.846864724862     2.499442113198     0.373426154073    15.994914619570
         O            4.195217724862     0.431726113198    -0.970982845927    15.994914619570
         O           -2.827333275138     0.029680113198    -0.805639845927    15.994914619570
         O           -3.259591275138    -0.726952886802     1.623562154073    15.994914619570
         O           -2.119463275138    -2.347314886802    -0.097776845927    15.994914619570
         C            0.117691724862     0.026338113198     0.018210154073    12.000000000000
         C            0.985025924862    -1.223163086802    -0.108335245927    12.000000000000
         C            0.898118724862     1.198973113198     0.566742154073    12.000000000000
         C            2.259189724862    -1.017977886802    -0.816145845927    12.000000000000
         C            2.176604724862     1.392801113198    -0.226149845927    12.000000000000
         C            3.025371724862     0.145034113198    -0.208430845927    12.000000000000
         C           -3.124683275138     1.427927113198    -0.486994845927    12.000000000000
         C           -3.536787275138     2.081494113198    -1.782227845927    12.000000000000
         H           -0.283562275138     0.295130113198    -0.968346845927     1.007825032230
         H            0.369798724862    -2.033034886802    -0.570140845927     1.007825032230
         H            1.156649724862     0.994206113198     1.614047154073     1.007825032230
         H            2.060463724862    -0.792330886802    -1.870864845927     1.007825032230
         H            1.916516724862     1.632616113198    -1.271691845927     1.007825032230
         H            3.295384724862    -0.098202886802     0.829537154073     1.007825032230
         H            0.521304724862    -1.891702886802     1.713401154073     1.007825032230
         H            0.665069724862     3.105640113198     0.685075154073     1.007825032230
         H            2.973072724862    -2.551044886802     0.096545154073     1.007825032230
         H            3.720958724862     2.545515113198    -0.056977845927     1.007825032230
         H            4.639256724862    -0.427504886802    -1.095195845927     1.007825032230
         H           -3.808865275138    -1.526008886802     1.736619154073     1.007825032230
         H           -3.931016275138     1.441870113198     0.251277154073     1.007825032230
         H           -2.230232275138     1.889209113198    -0.057204845927     1.007825032230
         H           -3.800991275138     3.127211113198    -1.600779845927     1.007825032230
         H           -2.717666275138     2.049652113198    -2.502983845927     1.007825032230
         H           -4.401414275138     1.570652113198    -2.210832845927     1.007825032230

  Basis Set: AUG-CC-PVTZ
    Blend: AUG-CC-PVTZ
  Basis Set: (AUG-CC-PVTZ AUX)
    Blend: AUG-CC-PVTZ-JKFIT
	 Reference Energy          =   -1327.8558421421535058 [Eh]
	 Singles Energy            =      -0.0000000000000000 [Eh]
	 Same-Spin Energy          =      -1.0152333210006215 [Eh]
	 Opposite-Spin Energy      =      -3.0774126184750763 [Eh]
	 Correlation Energy        =      -4.0926459394756982 [Eh]
	 Total Energy              =   -1331.9484880816291934 [Eh]

	 ================> DF-SCS-MP2 Energies <==================
	-----------------------------------------------------------
	 SCS Same-Spin Scale       =       0.3333333333333333 [-]
	 SCS Opposite-Spin Scale   =       1.2000000000000000 [-]
	 SCS Same-Spin Energy      =      -0.3384111070002072 [Eh]
	 SCS Opposite-Spin Energy  =      -3.6928951421700913 [Eh]
	 SCS Correlation Energy    =      -4.0313062491702985 [Eh]
	 SCS Total Energy          =   -1331.8871483913237626 [Eh]
	-----------------------------------------------------------

  Dipole Moment: [D]
     X:    -1.0953      Y:     1.7755      Z:     0.6571     Total:     2.1872

*** Psi4 exiting successfully. Buy a developer a beer!
