                               Psi4 1.3.2 release

  ==> Input File <==

--------------------------------------------------------------------------
#psi4
#
memory 32 gb

molecule  {
0 1
  P       -2.2900960    -0.9400430     0.3446780
  O       -0.9821530    -0.2015620     0.9382890
  O        1.3187239    -1.7187234     1.2226284
  O        0.0787050     2.3596040     0.4621680
  O        3.0685150    -2.1870720    -0.8085900
  O        2.8473350     2.5031130     0.3715350
  O        4.1956880     0.4353970    -0.9728740
  O       -2.8268630     0.0333510    -0.8075310
  O       -3.2591210    -0.7232820     1.6216710
  O       -2.1189930    -2.3436440    -0.0996680
  C        0.1181620     0.0300090     0.0163190
  C        0.9532920    -1.2442050    -0.0757250
  C        0.8985890     1.2026440     0.5648510
  C        2.2596600    -1.0143070    -0.8180370
  C        2.1770750     1.3964720    -0.2280410
  C        3.0258420     0.1487050    -0.2103220
  C       -3.1242130     1.4315980    -0.4888860
  C       -3.5363170     2.0851650    -1.7841190
  H       -0.2830920     0.2988010    -0.9702380
  H        0.3742943    -2.0511516    -0.5408164
  H        1.1571200     0.9978770     1.6121560
  H        2.0609340    -0.7886600    -1.8727560
  H        1.9169870     1.6362870    -1.2735830
  H        3.2958550    -0.0945320     0.8276460
  H        0.5217750    -1.8880320     1.7115100
  H        0.6655400     3.1093110     0.6831840
  H        2.9735430    -2.5473740     0.0946540
  H        3.7214290     2.5491860    -0.0588690
  H        4.6397270    -0.4238340    -1.0970870
  H       -3.8083950    -1.5223380     1.7347280
  H       -3.9305460     1.4455410     0.2493860
  H       -2.2297620     1.8928800    -0.0590960
  H       -3.8005210     3.1308820    -1.6026710
  H       -2.7171960     2.0533230    -2.5048750
  H       -4.4009440     1.5743230    -2.2127240
units angstrom
no_reorient  #important for SAPT in psi4, default
symmetry c1  #important for SAPT in psi4, default
}

set PROPERTIES_ORIGIN ["COM"]
properties('MP2/aug-cc-pvtz', properties = ['dipole'])
--------------------------------------------------------------------------

    Molecular point group: c1
  Charge       = 0
  Multiplicity = 1
  Basis Set: AUG-CC-PVTZ
    Blend: AUG-CC-PVTZ
  Basis Set: (AUG-CC-PVTZ AUX)
    Blend: AUG-CC-PVTZ-JKFIT

    Orbital Energies [Eh]
    ---------------------

    Doubly Occupied:

       1A    -80.116852     2A    -20.614648     3A    -20.607239
       4A    -20.598963     5A    -20.578617     6A    -20.577465
       7A    -20.574827     8A    -20.574727     9A    -20.574250
      10A    -20.523078    11A    -11.321854    12A    -11.303399
      13A    -11.300276    14A    -11.299692    15A    -11.299487
      16A    -11.297493    17A    -11.292408    18A    -11.229954
      19A     -7.632299    20A     -5.530806    21A     -5.530434
      22A     -5.529226    23A     -1.460352    24A     -1.411593
      25A     -1.395526    26A     -1.393689    27A     -1.386879
      28A     -1.373947    29A     -1.365025    30A     -1.354615
      31A     -1.303499    32A     -1.120328    33A     -1.040550
      34A     -1.012601    35A     -1.004302    36A     -0.881055
      37A     -0.865277    38A     -0.859710    39A     -0.822546
      40A     -0.812917    41A     -0.753322    42A     -0.745271
      43A     -0.731398    44A     -0.729013    45A     -0.708733
      46A     -0.687842    47A     -0.678482    48A     -0.673934
      49A     -0.663003    50A     -0.661370    51A     -0.644200
      52A     -0.635514    53A     -0.627839    54A     -0.617357
      55A     -0.604143    56A     -0.598302    57A     -0.582132
      58A     -0.575685    59A     -0.571488    60A     -0.559447
      61A     -0.556250    62A     -0.547581    63A     -0.540883
      64A     -0.537734    65A     -0.530230    66A     -0.522020
      67A     -0.513542    68A     -0.504283    69A     -0.496337
      70A     -0.485465    71A     -0.479735    72A     -0.476419
      73A     -0.462868    74A     -0.456624    75A     -0.450794
      76A     -0.436063

  @DF-RHF Final Energy: -1327.86223912080368

   => Energetics <=

    Nuclear Repulsion Energy =           1772.0094118875397271
    One-Electron Energy =               -5356.1078849227769751
    Two-Electron Energy =                2256.2362339144337966
    Total Energy =                      -1327.8622391208036788
  Basis Set: (AUG-CC-PVTZ AUX)
    Blend: AUG-CC-PVTZ-RI
    Molecular point group: c1

    Geometry (in Angstrom), charge = 0, multiplicity = 1:

       Center              X                  Y                   Z               Mass
    ------------   -----------------  -----------------  -----------------  -----------------
         P           -2.288803736916    -0.937565782887     0.345025347459    30.973761998420
         O           -0.980860736916    -0.199084782887     0.938636347459    15.994914619570
         O            1.320016163084    -1.716246182887     1.222975747459    15.994914619570
         O            0.079997263084     2.362081217113     0.462515347459    15.994914619570
         O            3.069807263084    -2.184594782887    -0.808242652541    15.994914619570
         O            2.848627263084     2.505590217113     0.371882347459    15.994914619570
         O            4.196980263084     0.437874217113    -0.972526652541    15.994914619570
         O           -2.825570736916     0.035828217113    -0.807183652541    15.994914619570
         O           -3.257828736916    -0.720804782887     1.622018347459    15.994914619570
         O           -2.117700736916    -2.341166782887    -0.099320652541    15.994914619570
         C            0.119454263084     0.032486217113     0.016666347459    12.000000000000
         C            0.954584263084    -1.241727782887    -0.075377652541    12.000000000000
         C            0.899881263084     1.205121217113     0.565198347459    12.000000000000
         C            2.260952263084    -1.011829782887    -0.817689652541    12.000000000000
         C            2.178367263084     1.398949217113    -0.227693652541    12.000000000000
         C            3.027134263084     0.151182217113    -0.209974652541    12.000000000000
         C           -3.122920736916     1.434075217113    -0.488538652541    12.000000000000
         C           -3.535024736916     2.087642217113    -1.783771652541    12.000000000000
         H           -0.281799736916     0.301278217113    -0.969890652541     1.007825032230
         H            0.375586563084    -2.048674382887    -0.540469052541     1.007825032230
         H            1.158412263084     1.000354217113     1.612503347459     1.007825032230
         H            2.062226263084    -0.786182782887    -1.872408652541     1.007825032230
         H            1.918279263084     1.638764217113    -1.273235652541     1.007825032230
         H            3.297147263084    -0.092054782887     0.827993347459     1.007825032230
         H            0.523067263084    -1.885554782887     1.711857347459     1.007825032230
         H            0.666832263084     3.111788217113     0.683531347459     1.007825032230
         H            2.974835263084    -2.544896782887     0.095001347459     1.007825032230
         H            3.722721263084     2.551663217113    -0.058521652541     1.007825032230
         H            4.641019263084    -0.421356782887    -1.096739652541     1.007825032230
         H           -3.807102736916    -1.519860782887     1.735075347459     1.007825032230
         H           -3.929253736916     1.448018217113     0.249733347459     1.007825032230
         H           -2.228469736916     1.895357217113    -0.058748652541     1.007825032230
         H           -3.799228736916     3.133359217113    -1.602323652541     1.007825032230
         H           -2.715903736916     2.055800217113    -2.504527652541     1.007825032230
         H           -4.399651736916     1.576800217113    -2.212376652541     1.007825032230

  Basis Set: AUG-CC-PVTZ
    Blend: AUG-CC-PVTZ
  Basis Set: (AUG-CC-PVTZ AUX)
    Blend: AUG-CC-PVTZ-JKFIT
	 Reference Energy          =   -1327.8622391208036788 [Eh]
	 Singles Energy            =      -0.0000000000000000 [Eh]
	 Same-Spin Energy          =      -1.0141003932989527 [Eh]
	 Opposite-Spin Energy      =      -3.0750041401451855 [Eh]
	 Correlation Energy        =      -4.0891045334441385 [Eh]
	 Total Energy              =   -1331.9513436542479212 [Eh]

	 ================> DF-SCS-MP2 Energies <==================
	-----------------------------------------------------------
	 SCS Same-Spin Scale       =       0.3333333333333333 [-]
	 SCS Opposite-Spin Scale   =       1.2000000000000000 [-]
	 SCS Same-Spin Energy      =      -0.3380334644329842 [Eh]
	 SCS Opposite-Spin Energy  =      -3.6900049681742226 [Eh]
	 SCS Correlation Energy    =      -4.0280384326072065 [Eh]
	 SCS Total Energy          =   -1331.8902775534108969 [Eh]
	-----------------------------------------------------------

  Dipole Moment: [D]
     X:    -1.0763      Y:     1.9724      Z:     0.7136     Total:     2.3575

*** Psi4 exiting successfully. Buy a developer a beer!
