                               Psi4 1.3.2 release

  ==> Input File <==

--------------------------------------------------------------------------
#psi4
#
memory 32 gb

molecule  {
0 1
  P       -2.2900960    -0.9400430     0.3446780
  O       -0.9821530    -0.2015620     0.9382890
  O        1.3422500    -1.6754830     1.2308510
  O        0.0787050     2.3596040     0.4621680
  O        3.0685150    -2.1870720    -0.8085900
  O        2.8473350     2.5031130     0.3715350
  O        4.1956880     0.4353970    -0.9728740
  O       -2.8268630     0.0333510    -0.8075310
  O       -3.2591210    -0.7232820     1.6216710
  O       -2.1189930    -2.3436440    -0.0996680
  C        0.1181620     0.0300090     0.0163190
  C        0.9532920    -1.2442050    -0.0757250
  C        0.8985890     1.2026440     0.5648510
  C        2.2596600    -1.0143070    -0.8180370
  C        2.1770750     1.3964720    -0.2280410
  C        3.1079043     0.1688159    -0.2638134
  C       -3.1242130     1.4315980    -0.4888860
  C       -3.5363170     2.0851650    -1.7841190
  H       -0.2830920     0.2988010    -0.9702380
  H        0.3702690    -2.0293640    -0.5720320
  H        1.1571200     0.9978770     1.6121560
  H        2.0609340    -0.7886600    -1.8727560
  H        1.9169870     1.6362870    -1.2735830
  H        3.2958550    -0.0945320     0.8276460
  H        0.5217750    -1.8880320     1.7115100
  H        0.6655400     3.1093110     0.6831840
  H        2.9735430    -2.5473740     0.0946540
  H        3.7214290     2.5491860    -0.0588690
  H        4.6397270    -0.4238340    -1.0970870
  H       -3.8083950    -1.5223380     1.7347280
  H       -3.9305460     1.4455410     0.2493860
  H       -2.2297620     1.8928800    -0.0590960
  H       -3.8005210     3.1308820    -1.6026710
  H       -2.7171960     2.0533230    -2.5048750
  H       -4.4009440     1.5743230    -2.2127240
units angstrom
no_reorient  #important for SAPT in psi4, default
symmetry c1  #important for SAPT in psi4, default
}

set PROPERTIES_ORIGIN ["COM"]
properties('MP2/aug-cc-pvtz', properties = ['dipole'])
--------------------------------------------------------------------------

    Molecular point group: c1
  Charge       = 0
  Multiplicity = 1
  Basis Set: AUG-CC-PVTZ
    Blend: AUG-CC-PVTZ
  Basis Set: (AUG-CC-PVTZ AUX)
    Blend: AUG-CC-PVTZ-JKFIT

    Orbital Energies [Eh]
    ---------------------

    Doubly Occupied:

       1A    -80.116126     2A    -20.614025     3A    -20.605817
       4A    -20.598227     5A    -20.585439     6A    -20.581183
       7A    -20.574552     8A    -20.573173     9A    -20.572267
      10A    -20.522714    11A    -11.319263    12A    -11.303056
      13A    -11.298803    14A    -11.298003    15A    -11.296605
      16A    -11.294769    17A    -11.293488    18A    -11.229378
      19A     -7.631576    20A     -5.530083    21A     -5.529708
      22A     -5.528509    23A     -1.459374    24A     -1.430108
      25A     -1.404300    26A     -1.391482    27A     -1.386621
      28A     -1.380217    29A     -1.362434    30A     -1.358086
      31A     -1.303106    32A     -1.110895    33A     -1.039798
      34A     -1.004541    35A     -0.998862    36A     -0.879811
      37A     -0.864711    38A     -0.858414    39A     -0.821812
      40A     -0.806871    41A     -0.755436    42A     -0.748075
      43A     -0.733317    44A     -0.727690    45A     -0.706810
      46A     -0.690660    47A     -0.681590    48A     -0.674802
      49A     -0.669249    50A     -0.659942    51A     -0.642849
      52A     -0.639453    53A     -0.626609    54A     -0.614471
      55A     -0.604780    56A     -0.599896    57A     -0.584718
      58A     -0.574999    59A     -0.571776    60A     -0.560407
      61A     -0.558192    62A     -0.548759    63A     -0.540720
      64A     -0.537300    65A     -0.529684    66A     -0.522451
      67A     -0.512493    68A     -0.503223    69A     -0.495897
      70A     -0.483784    71A     -0.479040    72A     -0.475614
      73A     -0.461326    74A     -0.449166    75A     -0.441334
      76A     -0.421736

  @DF-RHF Final Energy: -1327.85293660670800

   => Energetics <=

    Nuclear Repulsion Energy =           1771.4830447796816770
    One-Electron Energy =               -5355.0990524634989924
    Two-Electron Energy =                2255.7630710771095437
    Total Energy =                      -1327.8529366067077717
  Basis Set: (AUG-CC-PVTZ AUX)
    Blend: AUG-CC-PVTZ-RI
    Molecular point group: c1

    Geometry (in Angstrom), charge = 0, multiplicity = 1:

       Center              X                  Y                   Z               Mass
    ------------   -----------------  -----------------  -----------------  -----------------
         P           -2.293514505373    -0.940880758991     0.346906326981    30.973761998420
         O           -0.985571505373    -0.202399758991     0.940517326981    15.994914619570
         O            1.338831494627    -1.676320758991     1.233079326981    15.994914619570
         O            0.075286494627     2.358766241009     0.464396326981    15.994914619570
         O            3.065096494627    -2.187909758991    -0.806361673019    15.994914619570
         O            2.843916494627     2.502275241009     0.373763326981    15.994914619570
         O            4.192269494627     0.434559241009    -0.970645673019    15.994914619570
         O           -2.830281505373     0.032513241009    -0.805302673019    15.994914619570
         O           -3.262539505373    -0.724119758991     1.623899326981    15.994914619570
         O           -2.122411505373    -2.344481758991    -0.097439673019    15.994914619570
         C            0.114743494627     0.029171241009     0.018547326981    12.000000000000
         C            0.949873494627    -1.245042758991    -0.073496673019    12.000000000000
         C            0.895170494627     1.201806241009     0.567079326981    12.000000000000
         C            2.256241494627    -1.015144758991    -0.815808673019    12.000000000000
         C            2.173656494627     1.395634241009    -0.225812673019    12.000000000000
         C            3.104485794627     0.167978141009    -0.261585073019    12.000000000000
         C           -3.127631505373     1.430760241009    -0.486657673019    12.000000000000
         C           -3.539735505373     2.084327241009    -1.781890673019    12.000000000000
         H           -0.286510505373     0.297963241009    -0.968009673019     1.007825032230
         H            0.366850494627    -2.030201758991    -0.569803673019     1.007825032230
         H            1.153701494627     0.997039241009     1.614384326981     1.007825032230
         H            2.057515494627    -0.789497758991    -1.870527673019     1.007825032230
         H            1.913568494627     1.635449241009    -1.271354673019     1.007825032230
         H            3.292436494627    -0.095369758991     0.829874326981     1.007825032230
         H            0.518356494627    -1.888869758991     1.713738326981     1.007825032230
         H            0.662121494627     3.108473241009     0.685412326981     1.007825032230
         H            2.970124494627    -2.548211758991     0.096882326981     1.007825032230
         H            3.718010494627     2.548348241009    -0.056640673019     1.007825032230
         H            4.636308494627    -0.424671758991    -1.094858673019     1.007825032230
         H           -3.811813505373    -1.523175758991     1.736956326981     1.007825032230
         H           -3.933964505373     1.444703241009     0.251614326981     1.007825032230
         H           -2.233180505373     1.892042241009    -0.056867673019     1.007825032230
         H           -3.803939505373     3.130044241009    -1.600442673019     1.007825032230
         H           -2.720614505373     2.052485241009    -2.502646673019     1.007825032230
         H           -4.404362505373     1.573485241009    -2.210495673019     1.007825032230

  Basis Set: AUG-CC-PVTZ
    Blend: AUG-CC-PVTZ
  Basis Set: (AUG-CC-PVTZ AUX)
    Blend: AUG-CC-PVTZ-JKFIT
	 Reference Energy          =   -1327.8529366067079991 [Eh]
	 Singles Energy            =      -0.0000000000000000 [Eh]
	 Same-Spin Energy          =      -1.0144208864704150 [Eh]
	 Opposite-Spin Energy      =      -3.0748952608806106 [Eh]
	 Correlation Energy        =      -4.0893161473510258 [Eh]
	 Total Energy              =   -1331.9422527540589272 [Eh]

	 ================> DF-SCS-MP2 Energies <==================
	-----------------------------------------------------------
	 SCS Same-Spin Scale       =       0.3333333333333333 [-]
	 SCS Opposite-Spin Scale   =       1.2000000000000000 [-]
	 SCS Same-Spin Energy      =      -0.3381402954901383 [Eh]
	 SCS Opposite-Spin Energy  =      -3.6898743130567326 [Eh]
	 SCS Correlation Energy    =      -4.0280146085468713 [Eh]
	 SCS Total Energy          =   -1331.8809512152549814 [Eh]
	-----------------------------------------------------------

  Dipole Moment: [D]
     X:    -0.7970      Y:     1.9208      Z:     0.5364     Total:     2.1476

*** Psi4 exiting successfully. Buy a developer a beer!
