                               Psi4 1.4a3.dev225

  ==> Input File <==

--------------------------------------------------------------------------
#psi4
#
memory 32 gb

molecule  {
0 1
  P       -2.3219140    -1.0563120    -0.0968450
  O       -1.0285840    -0.5623410     0.7549430
  O        1.3695440    -1.8069540     1.2202350
  O       -0.1592450     2.1412630     0.5207450
  O        3.3269040    -2.0858120    -0.6453880
  O        2.5724350     2.5270130     0.6374560
  O        4.2203020     0.6406430    -0.6358120
  O       -2.8737010     0.2643620    -0.8096810
  O       -3.3065970    -1.3497020     1.1531960
  O       -2.1044560    -2.1814480    -1.0350500
  C        0.1200290    -0.1583450    -0.0432010
  C        1.0698050    -1.3527180    -0.1046720
  C        0.7441670     1.0454510     0.6308160
  C        2.4636527    -0.9745833    -0.7266214
  C        2.0603010     1.3853380    -0.0470020
  C        3.0180900     0.2181970     0.0056710
  C       -3.2473180     1.4231610     0.0025120
  C       -3.2076300     2.6262440    -0.9075720
  H       -0.2047330     0.1313700    -1.0514980
  H        0.5965010    -2.1549610    -0.6866410
  H        0.9371260     0.8063110     1.6860210
  H        2.3054700    -0.7437210    -1.7704410
  H        1.8633300     1.6367370    -1.1028410
  H        3.2142070    -0.0417910     1.0561650
  H        0.5126160    -2.0057500     1.6426110
  H        0.3598300     2.9232990     0.7925780
  H        3.1793900    -2.4823080     0.2360710
  H        3.4672560     2.6739710     0.2770410
  H        4.7639490    -0.1654590    -0.7244900
  H       -3.7873380    -2.1826420     0.9908450
  H       -4.2474700     1.2335250     0.4005830
  H       -2.5352900     1.5309660     0.8217280
  H       -3.5402110     3.5125760    -0.3587690
  H       -2.1856630     2.7912820    -1.2511950
  H       -3.8637180     2.4807570    -1.7684970
units angstrom
no_reorient  #important for SAPT in psi4, default
symmetry c1  #important for SAPT in psi4, default
}

set PROPERTIES_ORIGIN ["COM"]
properties('MP2/aug-cc-pvtz', properties = ['dipole'])
--------------------------------------------------------------------------

    Molecular point group: c1
  Charge       = 0
  Multiplicity = 1
  Basis Set: AUG-CC-PVTZ
    Blend: AUG-CC-PVTZ
  Basis Set: (AUG-CC-PVTZ AUX)
    Blend: AUG-CC-PVTZ-JKFIT

    Orbital Energies [Eh]
    ---------------------

    Doubly Occupied:

       1A    -80.116273     2A    -20.614558     3A    -20.607157
       4A    -20.595600     5A    -20.583208     6A    -20.579227
       7A    -20.576086     8A    -20.574383     9A    -20.574364
      10A    -20.522010    11A    -11.320053    12A    -11.305117
      13A    -11.300291    14A    -11.300275    15A    -11.299044
      16A    -11.295843    17A    -11.292355    18A    -11.222676
      19A     -7.631535    20A     -5.530071    21A     -5.529567
      22A     -5.528507    23A     -1.457854    24A     -1.411114
      25A     -1.395399    26A     -1.393996    27A     -1.384896
      28A     -1.372268    29A     -1.366018    30A     -1.355579
      31A     -1.302196    32A     -1.116008    33A     -1.035247
      34A     -1.012580    35A     -0.998048    36A     -0.876457
      37A     -0.862251    38A     -0.861355    39A     -0.823332
      40A     -0.810108    41A     -0.753102    42A     -0.746224
      43A     -0.728429    44A     -0.725319    45A     -0.705458
      46A     -0.687633    47A     -0.679062    48A     -0.675586
      49A     -0.664876    50A     -0.659634    51A     -0.641140
      52A     -0.637720    53A     -0.624889    54A     -0.613181
      55A     -0.604509    56A     -0.599103    57A     -0.580710
      58A     -0.576786    59A     -0.570358    60A     -0.560676
      61A     -0.555512    62A     -0.548005    63A     -0.539446
      64A     -0.537738    65A     -0.528804    66A     -0.518015
      67A     -0.508589    68A     -0.500999    69A     -0.493636
      70A     -0.484379    71A     -0.477568    72A     -0.474945
      73A     -0.461495    74A     -0.457884    75A     -0.449782
      76A     -0.436370

  @DF-RHF Final Energy: -1327.85956483783298

   => Energetics <=

    Nuclear Repulsion Energy =           1774.0303548252154542
    One-Electron Energy =               -5360.2989049822353991
    Two-Electron Energy =                2258.4089853191871953
    Total Energy =                      -1327.8595648378327496
  Basis Set: (AUG-CC-PVTZ AUX)
    Blend: AUG-CC-PVTZ-RI
    Molecular point group: c1

    Geometry (in Angstrom), charge = 0, multiplicity = 1:

       Center              X                  Y                   Z               Mass
    ------------   -----------------  -----------------  -----------------  -----------------
         P           -2.312998921732    -1.019033822523    -0.098465635530    30.973761998420
         O           -1.019668921732    -0.525062822523     0.753322364470    15.994914619570
         O            1.378459078268    -1.769675822523     1.218614364470    15.994914619570
         O           -0.150329921732     2.178541177477     0.519124364470    15.994914619570
         O            3.335819078268    -2.048533822523    -0.647008635530    15.994914619570
         O            2.581350078268     2.564291177477     0.635835364470    15.994914619570
         O            4.229217078268     0.677921177477    -0.637432635530    15.994914619570
         O           -2.864785921732     0.301640177477    -0.811301635530    15.994914619570
         O           -3.297681921732    -1.312423822523     1.151575364470    15.994914619570
         O           -2.095540921732    -2.144169822523    -1.036670635530    15.994914619570
         C            0.128944078268    -0.121066822523    -0.044821635530    12.000000000000
         C            1.078720078268    -1.315439822523    -0.106292635530    12.000000000000
         C            0.753082078268     1.082729177477     0.629195364470    12.000000000000
         C            2.472567778268    -0.937305122523    -0.728242035530    12.000000000000
         C            2.069216078268     1.422616177477    -0.048622635530    12.000000000000
         C            3.027005078268     0.255475177477     0.004050364470    12.000000000000
         C           -3.238402921732     1.460439177477     0.000891364470    12.000000000000
         C           -3.198714921732     2.663522177477    -0.909192635530    12.000000000000
         H           -0.195817921732     0.168648177477    -1.053118635530     1.007825032230
         H            0.605416078268    -2.117682822523    -0.688261635530     1.007825032230
         H            0.946041078268     0.843589177477     1.684400364470     1.007825032230
         H            2.314385078268    -0.706442822523    -1.772061635530     1.007825032230
         H            1.872245078268     1.674015177477    -1.104461635530     1.007825032230
         H            3.223122078268    -0.004512822523     1.054544364470     1.007825032230
         H            0.521531078268    -1.968471822523     1.640990364470     1.007825032230
         H            0.368745078268     2.960577177477     0.790957364470     1.007825032230
         H            3.188305078268    -2.445029822523     0.234450364470     1.007825032230
         H            3.476171078268     2.711249177477     0.275420364470     1.007825032230
         H            4.772864078268    -0.128180822523    -0.726110635530     1.007825032230
         H           -3.778422921732    -2.145363822523     0.989224364470     1.007825032230
         H           -4.238554921732     1.270803177477     0.398962364470     1.007825032230
         H           -2.526374921732     1.568244177477     0.820107364470     1.007825032230
         H           -3.531295921732     3.549854177477    -0.360389635530     1.007825032230
         H           -2.176747921732     2.828560177477    -1.252815635530     1.007825032230
         H           -3.854802921732     2.518035177477    -1.770117635530     1.007825032230

  Basis Set: AUG-CC-PVTZ
    Blend: AUG-CC-PVTZ
  Basis Set: (AUG-CC-PVTZ AUX)
    Blend: AUG-CC-PVTZ-JKFIT
	 Reference Energy          =   -1327.8595648378329770 [Eh]
	 Singles Energy            =      -0.0000000000000000 [Eh]
	 Same-Spin Energy          =      -1.0144685540946075 [Eh]
	 Opposite-Spin Energy      =      -3.0760600570204479 [Eh]
	 Correlation Energy        =      -4.0905286111150554 [Eh]
	 Total Energy              =   -1331.9500934489481097 [Eh]

	 ================> DF-SCS-MP2 Energies <==================
	-----------------------------------------------------------
	 SCS Same-Spin Scale       =       0.3333333333333333 [-]
	 SCS Opposite-Spin Scale   =       1.2000000000000000 [-]
	 SCS Same-Spin Energy      =      -0.3381561846982025 [Eh]
	 SCS Opposite-Spin Energy  =      -3.6912720684245373 [Eh]
	 SCS Correlation Energy    =      -4.0294282531227399 [Eh]
	 SCS Total Energy          =   -1331.8889930909556369 [Eh]
	-----------------------------------------------------------

  Dipole Moment: [D]
     X:    -0.7820      Y:     1.4114      Z:     1.8628     Total:     2.4645

*** Psi4 exiting successfully. Buy a developer a beer!
