                               Psi4 1.3.2 release

  ==> Input File <==

--------------------------------------------------------------------------
#psi4
#
memory 32 gb

molecule  {
0 1
  P       -2.2900960    -0.9400430     0.3446780
  O       -0.9821530    -0.2015620     0.9382890
  O        1.3422500    -1.6754830     1.2308510
  O        0.0787050     2.3596040     0.4621680
  O        3.0685150    -2.1870720    -0.8085900
  O        2.8473350     2.5031130     0.3715350
  O        4.1956880     0.4353970    -0.9728740
  O       -2.8268630     0.0333510    -0.8075310
  O       -3.2591210    -0.7232820     1.6216710
  O       -2.1189930    -2.3436440    -0.0996680
  C        0.1181620     0.0300090     0.0163190
  C        0.9532920    -1.2442050    -0.0757250
  C        0.9139683     1.1531771     0.5757889
  C        2.2596600    -1.0143070    -0.8180370
  C        2.1770750     1.3964720    -0.2280410
  C        2.9892086     0.1253206    -0.1805543
  C       -3.1242130     1.4315980    -0.4888860
  C       -3.5363170     2.0851650    -1.7841190
  H       -0.2830920     0.2988010    -0.9702380
  H        0.3702690    -2.0293640    -0.5720320
  H        1.1571200     0.9978770     1.6121560
  H        2.0609340    -0.7886600    -1.8727560
  H        1.9169870     1.6362870    -1.2735830
  H        3.2958550    -0.0945320     0.8276460
  H        0.5217750    -1.8880320     1.7115100
  H        0.6655400     3.1093110     0.6831840
  H        2.9735430    -2.5473740     0.0946540
  H        3.7214290     2.5491860    -0.0588690
  H        4.6397270    -0.4238340    -1.0970870
  H       -3.8083950    -1.5223380     1.7347280
  H       -3.9305460     1.4455410     0.2493860
  H       -2.2297620     1.8928800    -0.0590960
  H       -3.8005210     3.1308820    -1.6026710
  H       -2.7171960     2.0533230    -2.5048750
  H       -4.4009440     1.5743230    -2.2127240
units angstrom
no_reorient  #important for SAPT in psi4, default
symmetry c1  #important for SAPT in psi4, default
}

set PROPERTIES_ORIGIN ["COM"]
properties('MP2/aug-cc-pvtz', properties = ['dipole'])
--------------------------------------------------------------------------

    Molecular point group: c1
  Charge       = 0
  Multiplicity = 1
  Basis Set: AUG-CC-PVTZ
    Blend: AUG-CC-PVTZ
  Basis Set: (AUG-CC-PVTZ AUX)
    Blend: AUG-CC-PVTZ-JKFIT

    Orbital Energies [Eh]
    ---------------------

    Doubly Occupied:

       1A    -80.117832     2A    -20.615378     3A    -20.608565
       4A    -20.599400     5A    -20.585526     6A    -20.578722
       7A    -20.576162     8A    -20.568741     9A    -20.567372
      10A    -20.524268    11A    -11.322591    12A    -11.304689
      13A    -11.301298    14A    -11.300179    15A    -11.299064
      16A    -11.298470    17A    -11.291641    18A    -11.229666
      19A     -7.633279    20A     -5.531786    21A     -5.531415
      22A     -5.530208    23A     -1.461327    24A     -1.410937
      25A     -1.392632    26A     -1.389924    27A     -1.387045
      28A     -1.368686    29A     -1.352324    30A     -1.343472
      31A     -1.304636    32A     -1.127766    33A     -1.040446
      34A     -1.018356    35A     -1.007330    36A     -0.881547
      37A     -0.865304    38A     -0.859404    39A     -0.823694
      40A     -0.815544    41A     -0.751235    42A     -0.743924
      43A     -0.730473    44A     -0.728875    45A     -0.710016
      46A     -0.682808    47A     -0.679661    48A     -0.672725
      49A     -0.661994    50A     -0.656707    51A     -0.642379
      52A     -0.630808    53A     -0.627990    54A     -0.616537
      55A     -0.602723    56A     -0.597381    57A     -0.580545
      58A     -0.575771    59A     -0.571018    60A     -0.557459
      61A     -0.554641    62A     -0.547777    63A     -0.541490
      64A     -0.535301    65A     -0.529532    66A     -0.522523
      67A     -0.512620    68A     -0.503911    69A     -0.498938
      70A     -0.486732    71A     -0.480449    72A     -0.477437
      73A     -0.466531    74A     -0.457696    75A     -0.452431
      76A     -0.443040

  @DF-RHF Final Energy: -1327.85331084905897

   => Energetics <=

    Nuclear Repulsion Energy =           1773.1606965918042533
    One-Electron Energy =               -5358.4306091099660989
    Two-Electron Energy =                2257.4166016691024197
    Total Energy =                      -1327.8533108490591985
  Basis Set: (AUG-CC-PVTZ AUX)
    Blend: AUG-CC-PVTZ-RI
    Molecular point group: c1

    Geometry (in Angstrom), charge = 0, multiplicity = 1:

       Center              X                  Y                   Z               Mass
    ------------   -----------------  -----------------  -----------------  -----------------
         P           -2.289210567257    -0.937008154487     0.342982283376    30.973761998420
         O           -0.981267567257    -0.198527154487     0.936593283376    15.994914619570
         O            1.343135432743    -1.672448154487     1.229155283376    15.994914619570
         O            0.079590432743     2.362638845513     0.460472283376    15.994914619570
         O            3.069400432743    -2.184037154487    -0.810285716624    15.994914619570
         O            2.848220432743     2.506147845513     0.369839283376    15.994914619570
         O            4.196573432743     0.438431845513    -0.974569716624    15.994914619570
         O           -2.825977567257     0.036385845513    -0.809226716624    15.994914619570
         O           -3.258235567257    -0.720247154487     1.619975283376    15.994914619570
         O           -2.118107567257    -2.340609154487    -0.101363716624    15.994914619570
         C            0.119047432743     0.033043845513     0.014623283376    12.000000000000
         C            0.954177432743    -1.241170154487    -0.077420716624    12.000000000000
         C            0.914853732743     1.156211945513     0.574093183376    12.000000000000
         C            2.260545432743    -1.011272154487    -0.819732716624    12.000000000000
         C            2.177960432743     1.399506845513    -0.229736716624    12.000000000000
         C            2.990094032743     0.128355445513    -0.182250016624    12.000000000000
         C           -3.123327567257     1.434632845513    -0.490581716624    12.000000000000
         C           -3.535431567257     2.088199845513    -1.785814716624    12.000000000000
         H           -0.282206567257     0.301835845513    -0.971933716624     1.007825032230
         H            0.371154432743    -2.026329154487    -0.573727716624     1.007825032230
         H            1.158005432743     1.000911845513     1.610460283376     1.007825032230
         H            2.061819432743    -0.785625154487    -1.874451716624     1.007825032230
         H            1.917872432743     1.639321845513    -1.275278716624     1.007825032230
         H            3.296740432743    -0.091497154487     0.825950283376     1.007825032230
         H            0.522660432743    -1.884997154487     1.709814283376     1.007825032230
         H            0.666425432743     3.112345845513     0.681488283376     1.007825032230
         H            2.974428432743    -2.544339154487     0.092958283376     1.007825032230
         H            3.722314432743     2.552220845513    -0.060564716624     1.007825032230
         H            4.640612432743    -0.420799154487    -1.098782716624     1.007825032230
         H           -3.807509567257    -1.519303154487     1.733032283376     1.007825032230
         H           -3.929660567257     1.448575845513     0.247690283376     1.007825032230
         H           -2.228876567257     1.895914845513    -0.060791716624     1.007825032230
         H           -3.799635567257     3.133916845513    -1.604366716624     1.007825032230
         H           -2.716310567257     2.056357845513    -2.506570716624     1.007825032230
         H           -4.400058567257     1.577357845513    -2.214419716624     1.007825032230

  Basis Set: AUG-CC-PVTZ
    Blend: AUG-CC-PVTZ
  Basis Set: (AUG-CC-PVTZ AUX)
    Blend: AUG-CC-PVTZ-JKFIT
	 Reference Energy          =   -1327.8533108490589711 [Eh]
	 Singles Energy            =      -0.0000000000000000 [Eh]
	 Same-Spin Energy          =      -1.0153340091099821 [Eh]
	 Opposite-Spin Energy      =      -3.0783467183943509 [Eh]
	 Correlation Energy        =      -4.0936807275043332 [Eh]
	 Total Energy              =   -1331.9469915765632777 [Eh]

	 ================> DF-SCS-MP2 Energies <==================
	-----------------------------------------------------------
	 SCS Same-Spin Scale       =       0.3333333333333333 [-]
	 SCS Opposite-Spin Scale   =       1.2000000000000000 [-]
	 SCS Same-Spin Energy      =      -0.3384446697033273 [Eh]
	 SCS Opposite-Spin Energy  =      -3.6940160620732208 [Eh]
	 SCS Correlation Energy    =      -4.0324607317765482 [Eh]
	 SCS Total Energy          =   -1331.8857715808355806 [Eh]
	-----------------------------------------------------------

  Dipole Moment: [D]
     X:    -1.1787      Y:     1.6858      Z:     0.8104     Total:     2.2109

*** Psi4 exiting successfully. Buy a developer a beer!
