                               Psi4 1.3.2 release

  ==> Input File <==

--------------------------------------------------------------------------
#psi4
#
memory 32 gb

molecule  {
0 1
  P       -2.2900960    -0.9400430     0.3446780
  O       -0.9567322    -0.1432641     0.9801269
  O        1.3422500    -1.6754830     1.2308510
  O        0.0787050     2.3596040     0.4621680
  O        3.0685150    -2.1870720    -0.8085900
  O        2.8473350     2.5031130     0.3715350
  O        4.1956880     0.4353970    -0.9728740
  O       -2.8268630     0.0333510    -0.8075310
  O       -3.2591210    -0.7232820     1.6216710
  O       -2.1189930    -2.3436440    -0.0996680
  C        0.1181620     0.0300090     0.0163190
  C        0.9532920    -1.2442050    -0.0757250
  C        0.8471849     1.2060833     0.6249250
  C        2.2596600    -1.0143070    -0.8180370
  C        2.1770750     1.3964720    -0.2280410
  C        3.0258420     0.1487050    -0.2103220
  C       -3.1242130     1.4315980    -0.4888860
  C       -3.5363170     2.0851650    -1.7841190
  H       -0.2830920     0.2988010    -0.9702380
  H        0.3702690    -2.0293640    -0.5720320
  H        1.1571200     0.9978770     1.6121560
  H        2.0609340    -0.7886600    -1.8727560
  H        1.9169870     1.6362870    -1.2735830
  H        3.2958550    -0.0945320     0.8276460
  H        0.5217750    -1.8880320     1.7115100
  H        0.6655400     3.1093110     0.6831840
  H        2.9735430    -2.5473740     0.0946540
  H        3.7214290     2.5491860    -0.0588690
  H        4.6397270    -0.4238340    -1.0970870
  H       -3.8083950    -1.5223380     1.7347280
  H       -3.9305460     1.4455410     0.2493860
  H       -2.2297620     1.8928800    -0.0590960
  H       -3.8005210     3.1308820    -1.6026710
  H       -2.7171960     2.0533230    -2.5048750
  H       -4.4009440     1.5743230    -2.2127240
units angstrom
no_reorient  #important for SAPT in psi4, default
symmetry c1  #important for SAPT in psi4, default
}

set PROPERTIES_ORIGIN ["COM"]
properties('MP2/aug-cc-pvtz', properties = ['dipole'])
--------------------------------------------------------------------------

    Molecular point group: c1
  Charge       = 0
  Multiplicity = 1
  Basis Set: AUG-CC-PVTZ
    Blend: AUG-CC-PVTZ
  Basis Set: (AUG-CC-PVTZ AUX)
    Blend: AUG-CC-PVTZ-JKFIT

    Orbital Energies [Eh]
    ---------------------

    Doubly Occupied:

       1A    -80.123224     2A    -20.617127     3A    -20.605514
       4A    -20.603097     5A    -20.582220     6A    -20.573610
       7A    -20.573142     8A    -20.572691     9A    -20.571436
      10A    -20.530819    11A    -11.315167    12A    -11.302825
      13A    -11.300877    14A    -11.297625    15A    -11.294550
      16A    -11.292950    17A    -11.287801    18A    -11.230988
      19A     -7.637881    20A     -5.536428    21A     -5.535825
      22A     -5.534782    23A     -1.454779    24A     -1.409803
      25A     -1.393994    26A     -1.390792    27A     -1.388762
      28A     -1.369472    29A     -1.363825    30A     -1.351699
      31A     -1.309680    32A     -1.109348    33A     -1.041920
      34A     -1.006278    35A     -0.995061    36A     -0.875205
      37A     -0.862861    38A     -0.859125    39A     -0.821388
      40A     -0.810553    41A     -0.751915    42A     -0.742891
      43A     -0.731376    44A     -0.725599    45A     -0.703404
      46A     -0.688045    47A     -0.677798    48A     -0.673933
      49A     -0.661477    50A     -0.658113    51A     -0.641959
      52A     -0.631308    53A     -0.626715    54A     -0.614786
      55A     -0.601151    56A     -0.597705    57A     -0.584466
      58A     -0.577049    59A     -0.568468    60A     -0.559804
      61A     -0.555801    62A     -0.547949    63A     -0.542861
      64A     -0.536244    65A     -0.528405    66A     -0.517914
      67A     -0.513080    68A     -0.503695    69A     -0.498230
      70A     -0.484781    71A     -0.483747    72A     -0.480000
      73A     -0.455443    74A     -0.450913    75A     -0.441515
      76A     -0.433825

  @DF-RHF Final Energy: -1327.84680369141438

   => Energetics <=

    Nuclear Repulsion Energy =           1770.2080866817361766
    One-Electron Energy =               -5352.6548080950797157
    Two-Electron Energy =                2254.5999177219296143
    Total Energy =                      -1327.8468036914141521
  Basis Set: (AUG-CC-PVTZ AUX)
    Blend: AUG-CC-PVTZ-RI
    Molecular point group: c1

    Geometry (in Angstrom), charge = 0, multiplicity = 1:

       Center              X                  Y                   Z               Mass
    ------------   -----------------  -----------------  -----------------  -----------------
         P           -2.289366102101    -0.943423313118     0.339852340834    30.973761998420
         O           -0.956002302101    -0.146644413118     0.975301240834    15.994914619570
         O            1.342979897899    -1.678863313118     1.226025340834    15.994914619570
         O            0.079434897899     2.356223686882     0.457342340834    15.994914619570
         O            3.069244897899    -2.190452313118    -0.813415659166    15.994914619570
         O            2.848064897899     2.499732686882     0.366709340834    15.994914619570
         O            4.196417897899     0.432016686882    -0.977699659166    15.994914619570
         O           -2.826133102101     0.029970686882    -0.812356659166    15.994914619570
         O           -3.258391102101    -0.726662313118     1.616845340834    15.994914619570
         O           -2.118263102101    -2.347024313118    -0.104493659166    15.994914619570
         C            0.118891897899     0.026628686882     0.011493340834    12.000000000000
         C            0.954021897899    -1.247585313118    -0.080550659166    12.000000000000
         C            0.847914797899     1.202702986882     0.620099340834    12.000000000000
         C            2.260389897899    -1.017687313118    -0.822862659166    12.000000000000
         C            2.177804897899     1.393091686882    -0.232866659166    12.000000000000
         C            3.026571897899     0.145324686882    -0.215147659166    12.000000000000
         C           -3.123483102101     1.428217686882    -0.493711659166    12.000000000000
         C           -3.535587102101     2.081784686882    -1.788944659166    12.000000000000
         H           -0.282362102101     0.295420686882    -0.975063659166     1.007825032230
         H            0.370998897899    -2.032744313118    -0.576857659166     1.007825032230
         H            1.157849897899     0.994496686882     1.607330340834     1.007825032230
         H            2.061663897899    -0.792040313118    -1.877581659166     1.007825032230
         H            1.917716897899     1.632906686882    -1.278408659166     1.007825032230
         H            3.296584897899    -0.097912313118     0.822820340834     1.007825032230
         H            0.522504897899    -1.891412313118     1.706684340834     1.007825032230
         H            0.666269897899     3.105930686882     0.678358340834     1.007825032230
         H            2.974272897899    -2.550754313118     0.089828340834     1.007825032230
         H            3.722158897899     2.545805686882    -0.063694659166     1.007825032230
         H            4.640456897899    -0.427214313118    -1.101912659166     1.007825032230
         H           -3.807665102101    -1.525718313118     1.729902340834     1.007825032230
         H           -3.929816102101     1.442160686882     0.244560340834     1.007825032230
         H           -2.229032102101     1.889499686882    -0.063921659166     1.007825032230
         H           -3.799791102101     3.127501686882    -1.607496659166     1.007825032230
         H           -2.716466102101     2.049942686882    -2.509700659166     1.007825032230
         H           -4.400214102101     1.570942686882    -2.217549659166     1.007825032230

  Basis Set: AUG-CC-PVTZ
    Blend: AUG-CC-PVTZ
  Basis Set: (AUG-CC-PVTZ AUX)
    Blend: AUG-CC-PVTZ-JKFIT
	 Reference Energy          =   -1327.8468036914143795 [Eh]
	 Singles Energy            =      -0.0000000000000000 [Eh]
	 Same-Spin Energy          =      -1.0157191651677162 [Eh]
	 Opposite-Spin Energy      =      -3.0790364017789842 [Eh]
	 Correlation Energy        =      -4.0947555669467004 [Eh]
	 Total Energy              =   -1331.9415592583611669 [Eh]

	 ================> DF-SCS-MP2 Energies <==================
	-----------------------------------------------------------
	 SCS Same-Spin Scale       =       0.3333333333333333 [-]
	 SCS Opposite-Spin Scale   =       1.2000000000000000 [-]
	 SCS Same-Spin Energy      =      -0.3385730550559054 [Eh]
	 SCS Opposite-Spin Energy  =      -3.6948436821347808 [Eh]
	 SCS Correlation Energy    =      -4.0334167371906862 [Eh]
	 SCS Total Energy          =   -1331.8802204286050710 [Eh]
	-----------------------------------------------------------

  Dipole Moment: [D]
     X:    -1.5358      Y:     1.7298      Z:     0.6990     Total:     2.4165

*** Psi4 exiting successfully. Buy a developer a beer!
