                               Psi4 1.3.2 release

  ==> Input File <==

--------------------------------------------------------------------------
#psi4
#
memory 32 gb

molecule  {
0 1
  P       -2.2900960    -0.9400430     0.3446780
  O       -0.9821530    -0.2015620     0.9382890
  O        1.3422500    -1.6754830     1.2308510
  O        0.0787050     2.3596040     0.4621680
  O        3.0685150    -2.1870720    -0.8085900
  O        2.8473350     2.5031130     0.3715350
  O        4.1956880     0.4353970    -0.9728740
  O       -2.8268630     0.0333510    -0.8075310
  O       -3.2591210    -0.7232820     1.6216710
  O       -2.1189930    -2.3436440    -0.0996680
  C        0.1181620     0.0300090     0.0163190
  C        0.9532920    -1.2442050    -0.0757250
  C        0.8985890     1.2026440     0.5648510
  C        2.4315476    -0.9840578    -0.9157080
  C        2.1770750     1.3964720    -0.2280410
  C        3.0258420     0.1487050    -0.2103220
  C       -3.1242130     1.4315980    -0.4888860
  C       -3.5363170     2.0851650    -1.7841190
  H       -0.2830920     0.2988010    -0.9702380
  H        0.3702690    -2.0293640    -0.5720320
  H        1.1571200     0.9978770     1.6121560
  H        2.0609340    -0.7886600    -1.8727560
  H        1.9169870     1.6362870    -1.2735830
  H        3.2958550    -0.0945320     0.8276460
  H        0.5217750    -1.8880320     1.7115100
  H        0.6655400     3.1093110     0.6831840
  H        2.9735430    -2.5473740     0.0946540
  H        3.7214290     2.5491860    -0.0588690
  H        4.6397270    -0.4238340    -1.0970870
  H       -3.8083950    -1.5223380     1.7347280
  H       -3.9305460     1.4455410     0.2493860
  H       -2.2297620     1.8928800    -0.0590960
  H       -3.8005210     3.1308820    -1.6026710
  H       -2.7171960     2.0533230    -2.5048750
  H       -4.4009440     1.5743230    -2.2127240
units angstrom
no_reorient  #important for SAPT in psi4, default
symmetry c1  #important for SAPT in psi4, default
}

set PROPERTIES_ORIGIN ["COM"]
properties('MP2/aug-cc-pvtz', properties = ['dipole'])
--------------------------------------------------------------------------

    Molecular point group: c1
  Charge       = 0
  Multiplicity = 1
  Basis Set: AUG-CC-PVTZ
    Blend: AUG-CC-PVTZ
  Basis Set: (AUG-CC-PVTZ AUX)
    Blend: AUG-CC-PVTZ-JKFIT

    Orbital Energies [Eh]
    ---------------------

    Doubly Occupied:

       1A    -80.114221     2A    -20.612544     3A    -20.602536
       4A    -20.596820     5A    -20.579784     6A    -20.579230
       7A    -20.579118     8A    -20.572291     9A    -20.571333
      10A    -20.520758    11A    -11.314946    12A    -11.303532
      13A    -11.299726    14A    -11.298843    15A    -11.297824
      16A    -11.296822    17A    -11.291051    18A    -11.228736
      19A     -7.629661    20A     -5.528170    21A     -5.527793
      22A     -5.526595    23A     -1.457210    24A     -1.415997
      25A     -1.398237    26A     -1.394033    27A     -1.384925
      28A     -1.371823    29A     -1.368384    30A     -1.357368
      31A     -1.301171    32A     -1.109918    33A     -1.039112
      34A     -1.016404    35A     -0.985549    36A     -0.876605
      37A     -0.868300    38A     -0.861530    39A     -0.824485
      40A     -0.808215    41A     -0.749931    42A     -0.743640
      43A     -0.729922    44A     -0.724780    45A     -0.708747
      46A     -0.692962    47A     -0.687324    48A     -0.671752
      49A     -0.670156    50A     -0.660746    51A     -0.641393
      52A     -0.634723    53A     -0.628249    54A     -0.617030
      55A     -0.608107    56A     -0.600572    57A     -0.581084
      58A     -0.574175    59A     -0.567953    60A     -0.561118
      61A     -0.556879    62A     -0.547210    63A     -0.541276
      64A     -0.538329    65A     -0.525579    66A     -0.521466
      67A     -0.513739    68A     -0.497797    69A     -0.492411
      70A     -0.479067    71A     -0.476295    72A     -0.474452
      73A     -0.460171    74A     -0.458091    75A     -0.444362
      76A     -0.410518

  @DF-RHF Final Energy: -1327.83058201542030

   => Energetics <=

    Nuclear Repulsion Energy =           1770.0681934161598292
    One-Electron Energy =               -5352.3903467897944211
    Two-Electron Energy =                2254.4915713582140597
    Total Energy =                      -1327.8305820154205321
  Basis Set: (AUG-CC-PVTZ AUX)
    Blend: AUG-CC-PVTZ-RI
    Molecular point group: c1

    Geometry (in Angstrom), charge = 0, multiplicity = 1:

       Center              X                  Y                   Z               Mass
    ------------   -----------------  -----------------  -----------------  -----------------
         P           -2.297256433397    -0.941303098676     0.348746753713    30.973761998420
         O           -0.989313433397    -0.202822098676     0.942357753713    15.994914619570
         O            1.335089566603    -1.676743098676     1.234919753713    15.994914619570
         O            0.071544566603     2.358343901324     0.466236753713    15.994914619570
         O            3.061354566603    -2.188332098676    -0.804521246287    15.994914619570
         O            2.840174566603     2.501852901324     0.375603753713    15.994914619570
         O            4.188527566603     0.434136901324    -0.968805246287    15.994914619570
         O           -2.834023433397     0.032090901324    -0.803462246287    15.994914619570
         O           -3.266281433397    -0.724542098676     1.625739753713    15.994914619570
         O           -2.126153433397    -2.344904098676    -0.095599246287    15.994914619570
         C            0.111001566603     0.028748901324     0.020387753713    12.000000000000
         C            0.946131566603    -1.245465098676    -0.071656246287    12.000000000000
         C            0.891428566603     1.201383901324     0.568919753713    12.000000000000
         C            2.424387166603    -0.985317898676    -0.911639246287    12.000000000000
         C            2.169914566603     1.395211901324    -0.223972246287    12.000000000000
         C            3.018681566603     0.147444901324    -0.206253246287    12.000000000000
         C           -3.131373433397     1.430337901324    -0.484817246287    12.000000000000
         C           -3.543477433397     2.083904901324    -1.780050246287    12.000000000000
         H           -0.290252433397     0.297540901324    -0.966169246287     1.007825032230
         H            0.363108566603    -2.030624098676    -0.567963246287     1.007825032230
         H            1.149959566603     0.996616901324     1.616224753713     1.007825032230
         H            2.053773566603    -0.789920098676    -1.868687246287     1.007825032230
         H            1.909826566603     1.635026901324    -1.269514246287     1.007825032230
         H            3.288694566603    -0.095792098676     0.831714753713     1.007825032230
         H            0.514614566603    -1.889292098676     1.715578753713     1.007825032230
         H            0.658379566603     3.108050901324     0.687252753713     1.007825032230
         H            2.966382566603    -2.548634098676     0.098722753713     1.007825032230
         H            3.714268566603     2.547925901324    -0.054800246287     1.007825032230
         H            4.632566566603    -0.425094098676    -1.093018246287     1.007825032230
         H           -3.815555433397    -1.523598098676     1.738796753713     1.007825032230
         H           -3.937706433397     1.444280901324     0.253454753713     1.007825032230
         H           -2.236922433397     1.891619901324    -0.055027246287     1.007825032230
         H           -3.807681433397     3.129621901324    -1.598602246287     1.007825032230
         H           -2.724356433397     2.052062901324    -2.500806246287     1.007825032230
         H           -4.408104433397     1.573062901324    -2.208655246287     1.007825032230

  Basis Set: AUG-CC-PVTZ
    Blend: AUG-CC-PVTZ
  Basis Set: (AUG-CC-PVTZ AUX)
    Blend: AUG-CC-PVTZ-JKFIT
	 Reference Energy          =   -1327.8305820154203047 [Eh]
	 Singles Energy            =      -0.0000000000000000 [Eh]
	 Same-Spin Energy          =      -1.0151445843012847 [Eh]
	 Opposite-Spin Energy      =      -3.0767800676594375 [Eh]
	 Correlation Energy        =      -4.0919246519607224 [Eh]
	 Total Energy              =   -1331.9225066673809579 [Eh]

	 ================> DF-SCS-MP2 Energies <==================
	-----------------------------------------------------------
	 SCS Same-Spin Scale       =       0.3333333333333333 [-]
	 SCS Opposite-Spin Scale   =       1.2000000000000000 [-]
	 SCS Same-Spin Energy      =      -0.3383815281004282 [Eh]
	 SCS Opposite-Spin Energy  =      -3.6921360811913249 [Eh]
	 SCS Correlation Energy    =      -4.0305176092917527 [Eh]
	 SCS Total Energy          =   -1331.8610996247120966 [Eh]
	-----------------------------------------------------------

  Dipole Moment: [D]
     X:    -0.7401      Y:     1.8187      Z:     0.6264     Total:     2.0610

*** Psi4 exiting successfully. Buy a developer a beer!
