                               Psi4 1.4a3.dev225

  ==> Input File <==

--------------------------------------------------------------------------
#psi4
#
memory 32 gb

molecule  {
0 1
  P       -2.3219140    -1.0563120    -0.0968450
  O       -1.0285840    -0.5623410     0.7549430
  O        1.3695440    -1.8069540     1.2202350
  O       -0.1592450     2.1412630     0.5207450
  O        3.3269040    -2.0858120    -0.6453880
  O        2.5724350     2.5270130     0.6374560
  O        4.2203020     0.6406430    -0.6358120
  O       -2.8737010     0.2643620    -0.8096810
  O       -3.3065970    -1.3497020     1.1531960
  O       -2.1044560    -2.1814480    -1.0350500
  C        0.1200290    -0.1583450    -0.0432010
  C        1.0573670    -1.3370768    -0.1038670
  C        0.7441670     1.0454510     0.6308160
  C        2.4193320    -0.9866070    -0.7068450
  C        2.0603010     1.3853380    -0.0470020
  C        3.0180900     0.2181970     0.0056710
  C       -3.2473180     1.4231610     0.0025120
  C       -3.2076300     2.6262440    -0.9075720
  H       -0.2047330     0.1313700    -1.0514980
  H        0.5965010    -2.1549610    -0.6866410
  H        0.9371260     0.8063110     1.6860210
  H        2.3054700    -0.7437210    -1.7704410
  H        1.8633300     1.6367370    -1.1028410
  H        3.2142070    -0.0417910     1.0561650
  H        0.5126160    -2.0057500     1.6426110
  H        0.3598300     2.9232990     0.7925780
  H        3.1793900    -2.4823080     0.2360710
  H        3.4672560     2.6739710     0.2770410
  H        4.7639490    -0.1654590    -0.7244900
  H       -3.7873380    -2.1826420     0.9908450
  H       -4.2474700     1.2335250     0.4005830
  H       -2.5352900     1.5309660     0.8217280
  H       -3.5402110     3.5125760    -0.3587690
  H       -2.1856630     2.7912820    -1.2511950
  H       -3.8637180     2.4807570    -1.7684970
units angstrom
no_reorient  #important for SAPT in psi4, default
symmetry c1  #important for SAPT in psi4, default
}

set PROPERTIES_ORIGIN ["COM"]
properties('MP2/aug-cc-pvtz', properties = ['dipole'])
--------------------------------------------------------------------------

    Molecular point group: c1
  Charge       = 0
  Multiplicity = 1
  Basis Set: AUG-CC-PVTZ
    Blend: AUG-CC-PVTZ
  Basis Set: (AUG-CC-PVTZ AUX)
    Blend: AUG-CC-PVTZ-JKFIT

    Orbital Energies [Eh]
    ---------------------

    Doubly Occupied:

       1A    -80.116993     2A    -20.615119     3A    -20.608350
       4A    -20.596215     5A    -20.583567     6A    -20.578641
       7A    -20.575631     8A    -20.575111     9A    -20.574932
      10A    -20.522618    11A    -11.321410    12A    -11.305327
      13A    -11.300972    14A    -11.300811    15A    -11.298550
      16A    -11.296310    17A    -11.292801    18A    -11.223046
      19A     -7.632257    20A     -5.530792    21A     -5.530290
      22A     -5.529226    23A     -1.458821    24A     -1.410473
      25A     -1.395374    26A     -1.392382    27A     -1.385352
      28A     -1.372261    29A     -1.363959    30A     -1.354105
      31A     -1.302818    32A     -1.120418    33A     -1.035701
      34A     -1.013448    35A     -1.002857    36A     -0.877337
      37A     -0.862404    38A     -0.860474    39A     -0.823131
      40A     -0.809871    41A     -0.755053    42A     -0.745818
      43A     -0.728815    44A     -0.726267    45A     -0.706043
      46A     -0.686838    47A     -0.679059    48A     -0.673473
      49A     -0.662159    50A     -0.659399    51A     -0.642650
      52A     -0.637588    53A     -0.623263    54A     -0.613027
      55A     -0.604440    56A     -0.596796    57A     -0.581234
      58A     -0.577540    59A     -0.570564    60A     -0.559936
      61A     -0.555487    62A     -0.548069    63A     -0.538418
      64A     -0.537705    65A     -0.529368    66A     -0.517744
      67A     -0.509029    68A     -0.503197    69A     -0.494436
      70A     -0.488342    71A     -0.479536    72A     -0.475766
      73A     -0.463301    74A     -0.457331    75A     -0.452209
      76A     -0.435933

  @DF-RHF Final Energy: -1327.86009071012927

   => Energetics <=

    Nuclear Repulsion Energy =           1774.8925903011681839
    One-Electron Energy =               -5361.9733860309652300
    Two-Electron Energy =                2259.2207050196675482
    Total Energy =                      -1327.8600907101294979
  Basis Set: (AUG-CC-PVTZ AUX)
    Blend: AUG-CC-PVTZ-RI
    Molecular point group: c1

    Geometry (in Angstrom), charge = 0, multiplicity = 1:

       Center              X                  Y                   Z               Mass
    ------------   -----------------  -----------------  -----------------  -----------------
         P           -2.310634476859    -1.019184519761    -0.099323012209    30.973761998420
         O           -1.017304476859    -0.525213519761     0.752464987791    15.994914619570
         O            1.380823523141    -1.769826519761     1.217756987791    15.994914619570
         O           -0.147965476859     2.178390480239     0.518266987791    15.994914619570
         O            3.338183523141    -2.048684519761    -0.647866012209    15.994914619570
         O            2.583714523141     2.564140480239     0.634977987791    15.994914619570
         O            4.231581523141     0.677770480239    -0.638290012209    15.994914619570
         O           -2.862421476859     0.301489480239    -0.812159012209    15.994914619570
         O           -3.295317476859    -1.312574519761     1.150717987791    15.994914619570
         O           -2.093176476859    -2.144320519761    -1.037528012209    15.994914619570
         C            0.131308523141    -0.121217519761    -0.045679012209    12.000000000000
         C            1.068646523141    -1.299949319761    -0.106345012209    12.000000000000
         C            0.755446523141     1.082578480239     0.628337987791    12.000000000000
         C            2.430611523141    -0.949479519761    -0.709323012209    12.000000000000
         C            2.071580523141     1.422465480239    -0.049480012209    12.000000000000
         C            3.029369523141     0.255324480239     0.003192987791    12.000000000000
         C           -3.236038476859     1.460288480239     0.000033987791    12.000000000000
         C           -3.196350476859     2.663371480239    -0.910050012209    12.000000000000
         H           -0.193453476859     0.168497480239    -1.053976012209     1.007825032230
         H            0.607780523141    -2.117833519761    -0.689119012209     1.007825032230
         H            0.948405523141     0.843438480239     1.683542987791     1.007825032230
         H            2.316749523141    -0.706593519761    -1.772919012209     1.007825032230
         H            1.874609523141     1.673864480239    -1.105319012209     1.007825032230
         H            3.225486523141    -0.004663519761     1.053686987791     1.007825032230
         H            0.523895523141    -1.968622519761     1.640132987791     1.007825032230
         H            0.371109523141     2.960426480239     0.790099987791     1.007825032230
         H            3.190669523141    -2.445180519761     0.233592987791     1.007825032230
         H            3.478535523141     2.711098480239     0.274562987791     1.007825032230
         H            4.775228523141    -0.128331519761    -0.726968012209     1.007825032230
         H           -3.776058476859    -2.145514519761     0.988366987791     1.007825032230
         H           -4.236190476859     1.270652480239     0.398104987791     1.007825032230
         H           -2.524010476859     1.568093480239     0.819249987791     1.007825032230
         H           -3.528931476859     3.549703480239    -0.361247012209     1.007825032230
         H           -2.174383476859     2.828409480239    -1.253673012209     1.007825032230
         H           -3.852438476859     2.517884480239    -1.770975012209     1.007825032230

  Basis Set: AUG-CC-PVTZ
    Blend: AUG-CC-PVTZ
  Basis Set: (AUG-CC-PVTZ AUX)
    Blend: AUG-CC-PVTZ-JKFIT
	 Reference Energy          =   -1327.8600907101292705 [Eh]
	 Singles Energy            =      -0.0000000000000000 [Eh]
	 Same-Spin Energy          =      -1.0148729264012895 [Eh]
	 Opposite-Spin Energy      =      -3.0768817169205529 [Eh]
	 Correlation Energy        =      -4.0917546433218419 [Eh]
	 Total Energy              =   -1331.9518453534510627 [Eh]

	 ================> DF-SCS-MP2 Energies <==================
	-----------------------------------------------------------
	 SCS Same-Spin Scale       =       0.3333333333333333 [-]
	 SCS Opposite-Spin Scale   =       1.2000000000000000 [-]
	 SCS Same-Spin Energy      =      -0.3382909754670965 [Eh]
	 SCS Opposite-Spin Energy  =      -3.6922580603046633 [Eh]
	 SCS Correlation Energy    =      -4.0305490357717595 [Eh]
	 SCS Total Energy          =   -1331.8906397459011259 [Eh]
	-----------------------------------------------------------

  Dipole Moment: [D]
     X:    -0.8744      Y:     1.4386      Z:     1.8689     Total:     2.5153

*** Psi4 exiting successfully. Buy a developer a beer!
