                               Psi4 1.3.2 release

  ==> Input File <==

--------------------------------------------------------------------------
#psi4
#
memory 32 gb

molecule  {
0 1
  P       -2.2900960    -0.9400430     0.3446780
  O       -0.9821530    -0.2015620     0.9382890
  O        1.3422500    -1.6754830     1.2308510
  O        0.0787050     2.3596040     0.4621680
  O        3.0685150    -2.1870720    -0.8085900
  O        2.8473350     2.5031130     0.3715350
  O        4.1956880     0.4353970    -0.9728740
  O       -2.8268630     0.0333510    -0.8075310
  O       -3.2591210    -0.7232820     1.6216710
  O       -2.1189930    -2.3436440    -0.0996680
  C        0.1181620     0.0300090     0.0163190
  C        1.0080086    -1.3276899    -0.0817556
  C        0.8985890     1.2026440     0.5648510
  C        2.2596600    -1.0143070    -0.8180370
  C        2.1770750     1.3964720    -0.2280410
  C        3.0258420     0.1487050    -0.2103220
  C       -3.1242130     1.4315980    -0.4888860
  C       -3.5363170     2.0851650    -1.7841190
  H       -0.2830920     0.2988010    -0.9702380
  H        0.3702690    -2.0293640    -0.5720320
  H        1.1571200     0.9978770     1.6121560
  H        2.0609340    -0.7886600    -1.8727560
  H        1.9169870     1.6362870    -1.2735830
  H        3.2958550    -0.0945320     0.8276460
  H        0.5217750    -1.8880320     1.7115100
  H        0.6655400     3.1093110     0.6831840
  H        2.9735430    -2.5473740     0.0946540
  H        3.7214290     2.5491860    -0.0588690
  H        4.6397270    -0.4238340    -1.0970870
  H       -3.8083950    -1.5223380     1.7347280
  H       -3.9305460     1.4455410     0.2493860
  H       -2.2297620     1.8928800    -0.0590960
  H       -3.8005210     3.1308820    -1.6026710
  H       -2.7171960     2.0533230    -2.5048750
  H       -4.4009440     1.5743230    -2.2127240
units angstrom
no_reorient  #important for SAPT in psi4, default
symmetry c1  #important for SAPT in psi4, default
}

set PROPERTIES_ORIGIN ["COM"]
properties('MP2/aug-cc-pvtz', properties = ['dipole'])
--------------------------------------------------------------------------

    Molecular point group: c1
  Charge       = 0
  Multiplicity = 1
  Basis Set: AUG-CC-PVTZ
    Blend: AUG-CC-PVTZ
  Basis Set: (AUG-CC-PVTZ AUX)
    Blend: AUG-CC-PVTZ-JKFIT

    Orbital Energies [Eh]
    ---------------------

    Doubly Occupied:

       1A    -80.116176     2A    -20.614200     3A    -20.605555
       4A    -20.597960     5A    -20.586405     6A    -20.576259
       7A    -20.575448     8A    -20.572857     9A    -20.571954
      10A    -20.523379    11A    -11.318963    12A    -11.304486
      13A    -11.298510    14A    -11.297844    15A    -11.296860
      16A    -11.295921    17A    -11.292750    18A    -11.229156
      19A     -7.631619    20A     -5.530125    21A     -5.529747
      22A     -5.528566    23A     -1.458748    24A     -1.415421
      25A     -1.396379    26A     -1.393255    27A     -1.386045
      28A     -1.374980    29A     -1.365038    30A     -1.354439
      31A     -1.303641    32A     -1.112634    33A     -1.039609
      34A     -1.008433    35A     -1.001797    36A     -0.882353
      37A     -0.865017    38A     -0.855197    39A     -0.821057
      40A     -0.811936    41A     -0.750747    42A     -0.747245
      43A     -0.732166    44A     -0.727040    45A     -0.705955
      46A     -0.688432    47A     -0.683349    48A     -0.674363
      49A     -0.663258    50A     -0.660651    51A     -0.641646
      52A     -0.634257    53A     -0.628900    54A     -0.616466
      55A     -0.602455    56A     -0.599320    57A     -0.581454
      58A     -0.574730    59A     -0.570969    60A     -0.560001
      61A     -0.556497    62A     -0.549120    63A     -0.541118
      64A     -0.539507    65A     -0.531063    66A     -0.521788
      67A     -0.512545    68A     -0.506308    69A     -0.497418
      70A     -0.481501    71A     -0.478386    72A     -0.474762
      73A     -0.459433    74A     -0.455625    75A     -0.441910
      76A     -0.433724

  @DF-RHF Final Energy: -1327.85430327884706

   => Energetics <=

    Nuclear Repulsion Energy =           1771.1354141322981377
    One-Electron Energy =               -5354.4497791143076029
    Two-Electron Energy =                2255.4600617031624097
    Total Energy =                      -1327.8543032788470555
  Basis Set: (AUG-CC-PVTZ AUX)
    Blend: AUG-CC-PVTZ-RI
    Molecular point group: c1

    Geometry (in Angstrom), charge = 0, multiplicity = 1:

       Center              X                  Y                   Z               Mass
    ------------   -----------------  -----------------  -----------------  -----------------
         P           -2.292375342563    -0.936565181674     0.344929212543    30.973761998420
         O           -0.984432342563    -0.198084181674     0.938540212543    15.994914619570
         O            1.339970657437    -1.672005181674     1.231102212543    15.994914619570
         O            0.076425657437     2.363081818326     0.462419212543    15.994914619570
         O            3.066235657437    -2.183594181674    -0.808338787457    15.994914619570
         O            2.845055657437     2.506590818326     0.371786212543    15.994914619570
         O            4.193408657437     0.438874818326    -0.972622787457    15.994914619570
         O           -2.829142342563     0.036828818326    -0.807279787457    15.994914619570
         O           -3.261400342563    -0.719804181674     1.621922212543    15.994914619570
         O           -2.121272342563    -2.340166181674    -0.099416787457    15.994914619570
         C            0.115882657437     0.033486818326     0.016570212543    12.000000000000
         C            1.005729257437    -1.324212081674    -0.081504387457    12.000000000000
         C            0.896309657437     1.206121818326     0.565102212543    12.000000000000
         C            2.257380657437    -1.010829181674    -0.817785787457    12.000000000000
         C            2.174795657437     1.399949818326    -0.227789787457    12.000000000000
         C            3.023562657437     0.152182818326    -0.210070787457    12.000000000000
         C           -3.126492342563     1.435075818326    -0.488634787457    12.000000000000
         C           -3.538596342563     2.088642818326    -1.783867787457    12.000000000000
         H           -0.285371342563     0.302278818326    -0.969986787457     1.007825032230
         H            0.367989657437    -2.025886181674    -0.571780787457     1.007825032230
         H            1.154840657437     1.001354818326     1.612407212543     1.007825032230
         H            2.058654657437    -0.785182181674    -1.872504787457     1.007825032230
         H            1.914707657437     1.639764818326    -1.273331787457     1.007825032230
         H            3.293575657437    -0.091054181674     0.827897212543     1.007825032230
         H            0.519495657437    -1.884554181674     1.711761212543     1.007825032230
         H            0.663260657437     3.112788818326     0.683435212543     1.007825032230
         H            2.971263657437    -2.543896181674     0.094905212543     1.007825032230
         H            3.719149657437     2.552663818326    -0.058617787457     1.007825032230
         H            4.637447657437    -0.420356181674    -1.096835787457     1.007825032230
         H           -3.810674342563    -1.518860181674     1.734979212543     1.007825032230
         H           -3.932825342563     1.449018818326     0.249637212543     1.007825032230
         H           -2.232041342563     1.896357818326    -0.058844787457     1.007825032230
         H           -3.802800342563     3.134359818326    -1.602419787457     1.007825032230
         H           -2.719475342563     2.056800818326    -2.504623787457     1.007825032230
         H           -4.403223342563     1.577800818326    -2.212472787457     1.007825032230

  Basis Set: AUG-CC-PVTZ
    Blend: AUG-CC-PVTZ
  Basis Set: (AUG-CC-PVTZ AUX)
    Blend: AUG-CC-PVTZ-JKFIT
	 Reference Energy          =   -1327.8543032788470555 [Eh]
	 Singles Energy            =      -0.0000000000000000 [Eh]
	 Same-Spin Energy          =      -1.0144222157340097 [Eh]
	 Opposite-Spin Energy      =      -3.0757118827349879 [Eh]
	 Correlation Energy        =      -4.0901340984689973 [Eh]
	 Total Energy              =   -1331.9444373773160351 [Eh]

	 ================> DF-SCS-MP2 Energies <==================
	-----------------------------------------------------------
	 SCS Same-Spin Scale       =       0.3333333333333333 [-]
	 SCS Opposite-Spin Scale   =       1.2000000000000000 [-]
	 SCS Same-Spin Energy      =      -0.3381407385780032 [Eh]
	 SCS Opposite-Spin Energy  =      -3.6908542592819851 [Eh]
	 SCS Correlation Energy    =      -4.0289949978599884 [Eh]
	 SCS Total Energy          =   -1331.8832982767071371 [Eh]
	-----------------------------------------------------------

  Dipole Moment: [D]
     X:    -1.0409      Y:     1.7475      Z:     0.7660     Total:     2.1735

*** Psi4 exiting successfully. Buy a developer a beer!
