                               Psi4 1.3.2 release

  ==> Input File <==

--------------------------------------------------------------------------
#psi4
#
memory 32 gb

molecule  {
0 1
  P       -2.2900960    -0.9400430     0.3446780
  O       -0.9821530    -0.2015620     0.9382890
  O        1.3422500    -1.6754830     1.2308510
  O        0.0787050     2.3596040     0.4621680
  O        3.0685150    -2.1870720    -0.8085900
  O        2.8473350     2.5031130     0.3715350
  O        4.1956880     0.4353970    -0.9728740
  O       -2.8268630     0.0333510    -0.8075310
  O       -3.2591210    -0.7232820     1.6216710
  O       -2.1189930    -2.3436440    -0.0996680
  C        0.1181620     0.0300090     0.0163190
  C        0.9532920    -1.2442050    -0.0757250
  C        0.8985890     1.2026440     0.5648510
  C        2.2596600    -1.0143070    -0.8180370
  C        2.1326533     1.4083811    -0.2927801
  C        3.0258420     0.1487050    -0.2103220
  C       -3.1242130     1.4315980    -0.4888860
  C       -3.5363170     2.0851650    -1.7841190
  H       -0.2830920     0.2988010    -0.9702380
  H        0.3702690    -2.0293640    -0.5720320
  H        1.1009358     0.9940656     1.6237024
  H        2.0609340    -0.7886600    -1.8727560
  H        1.9169870     1.6362870    -1.2735830
  H        3.2958550    -0.0945320     0.8276460
  H        0.5217750    -1.8880320     1.7115100
  H        0.6655400     3.1093110     0.6831840
  H        2.9735430    -2.5473740     0.0946540
  H        3.7214290     2.5491860    -0.0588690
  H        4.6397270    -0.4238340    -1.0970870
  H       -3.8083950    -1.5223380     1.7347280
  H       -3.9305460     1.4455410     0.2493860
  H       -2.2297620     1.8928800    -0.0590960
  H       -3.8005210     3.1308820    -1.6026710
  H       -2.7171960     2.0533230    -2.5048750
  H       -4.4009440     1.5743230    -2.2127240
units angstrom
no_reorient  #important for SAPT in psi4, default
symmetry c1  #important for SAPT in psi4, default
}

set PROPERTIES_ORIGIN ["COM"]
properties('MP2/aug-cc-pvtz', properties = ['dipole'])
--------------------------------------------------------------------------

    Molecular point group: c1
  Charge       = 0
  Multiplicity = 1
  Basis Set: AUG-CC-PVTZ
    Blend: AUG-CC-PVTZ
  Basis Set: (AUG-CC-PVTZ AUX)
    Blend: AUG-CC-PVTZ-JKFIT

    Orbital Energies [Eh]
    ---------------------

    Doubly Occupied:

       1A    -80.117212     2A    -20.614954     3A    -20.607341
       4A    -20.599192     5A    -20.583389     6A    -20.573969
       7A    -20.573540     8A    -20.572401     9A    -20.571480
      10A    -20.523676    11A    -11.320309    12A    -11.303701
      13A    -11.299568    14A    -11.299456    15A    -11.298491
      16A    -11.295985    17A    -11.293296    18A    -11.230139
      19A     -7.632658    20A     -5.531166    21A     -5.530790
      22A     -5.529589    23A     -1.460578    24A     -1.409926
      25A     -1.393450    26A     -1.388295    27A     -1.387073
      28A     -1.372320    29A     -1.360830    30A     -1.347014
      31A     -1.304072    32A     -1.118605    33A     -1.040673
      34A     -1.009818    35A     -1.003720    36A     -0.880868
      37A     -0.865717    38A     -0.858134    39A     -0.823750
      40A     -0.813909    41A     -0.751590    42A     -0.744004
      43A     -0.732709    44A     -0.728952    45A     -0.704185
      46A     -0.688026    47A     -0.678227    48A     -0.674039
      49A     -0.660700    50A     -0.656756    51A     -0.640414
      52A     -0.633875    53A     -0.627898    54A     -0.615512
      55A     -0.606015    56A     -0.599231    57A     -0.582005
      58A     -0.575744    59A     -0.571060    60A     -0.558496
      61A     -0.554967    62A     -0.548924    63A     -0.541516
      64A     -0.534290    65A     -0.530637    66A     -0.519765
      67A     -0.513313    68A     -0.503857    69A     -0.496296
      70A     -0.483386    71A     -0.479889    72A     -0.476777
      73A     -0.469771    74A     -0.454245    75A     -0.451984
      76A     -0.433141

  @DF-RHF Final Energy: -1327.85309569985725

   => Energetics <=

    Nuclear Repulsion Energy =           1772.0358681471921045
    One-Electron Energy =               -5356.2514244623180275
    Two-Electron Energy =                2256.3624606152689012
    Total Energy =                      -1327.8530956998570218
  Basis Set: (AUG-CC-PVTZ AUX)
    Blend: AUG-CC-PVTZ-RI
    Molecular point group: c1

    Geometry (in Angstrom), charge = 0, multiplicity = 1:

       Center              X                  Y                   Z               Mass
    ------------   -----------------  -----------------  -----------------  -----------------
         P           -2.288048886152    -0.940525754955     0.347334485048    30.973761998420
         O           -0.980105886152    -0.202044754955     0.940945485048    15.994914619570
         O            1.344297113848    -1.675965754955     1.233507485048    15.994914619570
         O            0.080752113848     2.359121245045     0.464824485048    15.994914619570
         O            3.070562113848    -2.187554754955    -0.805933514952    15.994914619570
         O            2.849382113848     2.502630245045     0.374191485048    15.994914619570
         O            4.197735113848     0.434914245045    -0.970217514952    15.994914619570
         O           -2.824815886152     0.032868245045    -0.804874514952    15.994914619570
         O           -3.257073886152    -0.723764754955     1.624327485048    15.994914619570
         O           -2.116945886152    -2.344126754955    -0.097011514952    15.994914619570
         C            0.120209113848     0.029526245045     0.018975485048    12.000000000000
         C            0.955339113848    -1.244687754955    -0.073068514952    12.000000000000
         C            0.900636113848     1.202161245045     0.567507485048    12.000000000000
         C            2.261707113848    -1.014789754955    -0.815380514952    12.000000000000
         C            2.134700413848     1.407898345045    -0.290123614952    12.000000000000
         C            3.027889113848     0.148222245045    -0.207665514952    12.000000000000
         C           -3.122165886152     1.431115245045    -0.486229514952    12.000000000000
         C           -3.534269886152     2.084682245045    -1.781462514952    12.000000000000
         H           -0.281044886152     0.298318245045    -0.967581514952     1.007825032230
         H            0.372316113848    -2.029846754955    -0.569375514952     1.007825032230
         H            1.102982913848     0.993582845045     1.626358885048     1.007825032230
         H            2.062981113848    -0.789142754955    -1.870099514952     1.007825032230
         H            1.919034113848     1.635804245045    -1.270926514952     1.007825032230
         H            3.297902113848    -0.095014754955     0.830302485048     1.007825032230
         H            0.523822113848    -1.888514754955     1.714166485048     1.007825032230
         H            0.667587113848     3.108828245045     0.685840485048     1.007825032230
         H            2.975590113848    -2.547856754955     0.097310485048     1.007825032230
         H            3.723476113848     2.548703245045    -0.056212514952     1.007825032230
         H            4.641774113848    -0.424316754955    -1.094430514952     1.007825032230
         H           -3.806347886152    -1.522820754955     1.737384485048     1.007825032230
         H           -3.928498886152     1.445058245045     0.252042485048     1.007825032230
         H           -2.227714886152     1.892397245045    -0.056439514952     1.007825032230
         H           -3.798473886152     3.130399245045    -1.600014514952     1.007825032230
         H           -2.715148886152     2.052840245045    -2.502218514952     1.007825032230
         H           -4.398896886152     1.573840245045    -2.210067514952     1.007825032230

  Basis Set: AUG-CC-PVTZ
    Blend: AUG-CC-PVTZ
  Basis Set: (AUG-CC-PVTZ AUX)
    Blend: AUG-CC-PVTZ-JKFIT
	 Reference Energy          =   -1327.8530956998572492 [Eh]
	 Singles Energy            =      -0.0000000000000000 [Eh]
	 Same-Spin Energy          =      -1.0145133926189900 [Eh]
	 Opposite-Spin Energy      =      -3.0768721082018935 [Eh]
	 Correlation Energy        =      -4.0913855008208833 [Eh]
	 Total Energy              =   -1331.9444812006781831 [Eh]

	 ================> DF-SCS-MP2 Energies <==================
	-----------------------------------------------------------
	 SCS Same-Spin Scale       =       0.3333333333333333 [-]
	 SCS Opposite-Spin Scale   =       1.2000000000000000 [-]
	 SCS Same-Spin Energy      =      -0.3381711308729967 [Eh]
	 SCS Opposite-Spin Energy  =      -3.6922465298422722 [Eh]
	 SCS Correlation Energy    =      -4.0304176607152691 [Eh]
	 SCS Total Energy          =   -1331.8835133605725787 [Eh]
	-----------------------------------------------------------

  Dipole Moment: [D]
     X:    -1.2089      Y:     1.8046      Z:     0.6327     Total:     2.2623

*** Psi4 exiting successfully. Buy a developer a beer!
