                               Psi4 1.3.2 release

  ==> Input File <==

--------------------------------------------------------------------------
#psi4
#
memory 32 gb

molecule  {
0 1
  P       -2.2900960    -0.9400430     0.3446780
  O       -0.9011692    -0.1558375     0.9750436
  O        1.3422500    -1.6754830     1.2308510
  O        0.0787050     2.3596040     0.4621680
  O        3.0685150    -2.1870720    -0.8085900
  O        2.8473350     2.5031130     0.3715350
  O        4.1956880     0.4353970    -0.9728740
  O       -2.8268630     0.0333510    -0.8075310
  O       -3.2591210    -0.7232820     1.6216710
  O       -2.1189930    -2.3436440    -0.0996680
  C        0.1181620     0.0300090     0.0163190
  C        0.9532920    -1.2442050    -0.0757250
  C        0.8985890     1.2026440     0.5648510
  C        2.2596600    -1.0143070    -0.8180370
  C        2.1770750     1.3964720    -0.2280410
  C        3.0258420     0.1487050    -0.2103220
  C       -3.1242130     1.4315980    -0.4888860
  C       -3.5363170     2.0851650    -1.7841190
  H       -0.2830920     0.2988010    -0.9702380
  H        0.3702690    -2.0293640    -0.5720320
  H        1.1571200     0.9978770     1.6121560
  H        2.0609340    -0.7886600    -1.8727560
  H        1.9169870     1.6362870    -1.2735830
  H        3.2958550    -0.0945320     0.8276460
  H        0.5217750    -1.8880320     1.7115100
  H        0.6655400     3.1093110     0.6831840
  H        2.9735430    -2.5473740     0.0946540
  H        3.7214290     2.5491860    -0.0588690
  H        4.6397270    -0.4238340    -1.0970870
  H       -3.8083950    -1.5223380     1.7347280
  H       -3.9305460     1.4455410     0.2493860
  H       -2.2297620     1.8928800    -0.0590960
  H       -3.8005210     3.1308820    -1.6026710
  H       -2.7171960     2.0533230    -2.5048750
  H       -4.4009440     1.5743230    -2.2127240
units angstrom
no_reorient  #important for SAPT in psi4, default
symmetry c1  #important for SAPT in psi4, default
}

set PROPERTIES_ORIGIN ["COM"]
properties('MP2/aug-cc-pvtz', properties = ['dipole'])
--------------------------------------------------------------------------

    Molecular point group: c1
  Charge       = 0
  Multiplicity = 1
  Basis Set: AUG-CC-PVTZ
    Blend: AUG-CC-PVTZ
  Basis Set: (AUG-CC-PVTZ AUX)
    Blend: AUG-CC-PVTZ-JKFIT

    Orbital Energies [Eh]
    ---------------------

    Doubly Occupied:

       1A    -80.129902     2A    -20.622729     3A    -20.607630
       4A    -20.606065     5A    -20.579533     6A    -20.572737
       7A    -20.571490     8A    -20.571129     9A    -20.569558
      10A    -20.533418    11A    -11.309278    12A    -11.302853
      13A    -11.298326    14A    -11.295614    15A    -11.291660
      16A    -11.290995    17A    -11.287838    18A    -11.232252
      19A     -7.644002    20A     -5.542471    21A     -5.541918
      22A     -5.540901    23A     -1.456884    24A     -1.411006
      25A     -1.394841    26A     -1.391697    27A     -1.389483
      28A     -1.367815    29A     -1.360344    30A     -1.349945
      31A     -1.312400    32A     -1.111626    33A     -1.043753
      34A     -1.002906    35A     -0.998945    36A     -0.878293
      37A     -0.865242    38A     -0.855137    39A     -0.825416
      40A     -0.807620    41A     -0.749170    42A     -0.743127
      43A     -0.730864    44A     -0.727120    45A     -0.705013
      46A     -0.684687    47A     -0.677615    48A     -0.675011
      49A     -0.661883    50A     -0.658475    51A     -0.640318
      52A     -0.631560    53A     -0.627931    54A     -0.615553
      55A     -0.600746    56A     -0.595297    57A     -0.583595
      58A     -0.580234    59A     -0.567529    60A     -0.557527
      61A     -0.553747    62A     -0.548881    63A     -0.543894
      64A     -0.533381    65A     -0.527580    66A     -0.519271
      67A     -0.513375    68A     -0.501787    69A     -0.499690
      70A     -0.486160    71A     -0.482748    72A     -0.477636
      73A     -0.456797    74A     -0.452134    75A     -0.445120
      76A     -0.432782

  @DF-RHF Final Energy: -1327.84843385507907

   => Energetics <=

    Nuclear Repulsion Energy =           1770.9218301267844708
    One-Electron Energy =               -5354.0327492328933658
    Two-Electron Energy =                2255.2624852510298297
    Total Energy =                      -1327.8484338550788380
  Basis Set: (AUG-CC-PVTZ AUX)
    Blend: AUG-CC-PVTZ-RI
    Molecular point group: c1

    Geometry (in Angstrom), charge = 0, multiplicity = 1:

       Center              X                  Y                   Z               Mass
    ------------   -----------------  -----------------  -----------------  -----------------
         P           -2.294592684460    -0.942581887020     0.342637149941    30.973761998420
         O           -0.905665884460    -0.158376387020     0.973002749941    15.994914619570
         O            1.337753315540    -1.678021887020     1.228810149941    15.994914619570
         O            0.074208315540     2.357065112980     0.460127149941    15.994914619570
         O            3.064018315540    -2.189610887020    -0.810630850059    15.994914619570
         O            2.842838315540     2.500574112980     0.369494149941    15.994914619570
         O            4.191191315540     0.432858112980    -0.974914850059    15.994914619570
         O           -2.831359684460     0.030812112980    -0.809571850059    15.994914619570
         O           -3.263617684460    -0.725820887020     1.619630149941    15.994914619570
         O           -2.123489684460    -2.346182887020    -0.101708850059    15.994914619570
         C            0.113665315540     0.027470112980     0.014278149941    12.000000000000
         C            0.948795315540    -1.246743887020    -0.077765850059    12.000000000000
         C            0.894092315540     1.200105112980     0.562810149941    12.000000000000
         C            2.255163315540    -1.016845887020    -0.820077850059    12.000000000000
         C            2.172578315540     1.393933112980    -0.230081850059    12.000000000000
         C            3.021345315540     0.146166112980    -0.212362850059    12.000000000000
         C           -3.128709684460     1.429059112980    -0.490926850059    12.000000000000
         C           -3.540813684460     2.082626112980    -1.786159850059    12.000000000000
         H           -0.287588684460     0.296262112980    -0.972278850059     1.007825032230
         H            0.365772315540    -2.031902887020    -0.574072850059     1.007825032230
         H            1.152623315540     0.995338112980     1.610115149941     1.007825032230
         H            2.056437315540    -0.791198887020    -1.874796850059     1.007825032230
         H            1.912490315540     1.633748112980    -1.275623850059     1.007825032230
         H            3.291358315540    -0.097070887020     0.825605149941     1.007825032230
         H            0.517278315540    -1.890570887020     1.709469149941     1.007825032230
         H            0.661043315540     3.106772112980     0.681143149941     1.007825032230
         H            2.969046315540    -2.549912887020     0.092613149941     1.007825032230
         H            3.716932315540     2.546647112980    -0.060909850059     1.007825032230
         H            4.635230315540    -0.426372887020    -1.099127850059     1.007825032230
         H           -3.812891684460    -1.524876887020     1.732687149941     1.007825032230
         H           -3.935042684460     1.443002112980     0.247345149941     1.007825032230
         H           -2.234258684460     1.890341112980    -0.061136850059     1.007825032230
         H           -3.805017684460     3.128343112980    -1.604711850059     1.007825032230
         H           -2.721692684460     2.050784112980    -2.506915850059     1.007825032230
         H           -4.405440684460     1.571784112980    -2.214764850059     1.007825032230

  Basis Set: AUG-CC-PVTZ
    Blend: AUG-CC-PVTZ
  Basis Set: (AUG-CC-PVTZ AUX)
    Blend: AUG-CC-PVTZ-JKFIT
	 Reference Energy          =   -1327.8484338550790653 [Eh]
	 Singles Energy            =      -0.0000000000000000 [Eh]
	 Same-Spin Energy          =      -1.0162785789496203 [Eh]
	 Opposite-Spin Energy      =      -3.0797214720148758 [Eh]
	 Correlation Energy        =      -4.0960000509644958 [Eh]
	 Total Energy              =   -1331.9444339060435141 [Eh]

	 ================> DF-SCS-MP2 Energies <==================
	-----------------------------------------------------------
	 SCS Same-Spin Scale       =       0.3333333333333333 [-]
	 SCS Opposite-Spin Scale   =       1.2000000000000000 [-]
	 SCS Same-Spin Energy      =      -0.3387595263165400 [Eh]
	 SCS Opposite-Spin Energy  =      -3.6956657664178509 [Eh]
	 SCS Correlation Energy    =      -4.0344252927343911 [Eh]
	 SCS Total Energy          =   -1331.8828591478134058 [Eh]
	-----------------------------------------------------------

  Dipole Moment: [D]
     X:    -1.8674      Y:     1.6452      Z:     0.6525     Total:     2.5729

*** Psi4 exiting successfully. Buy a developer a beer!
