                               Psi4 1.3.2 release

  ==> Input File <==

--------------------------------------------------------------------------
#psi4
#
memory 32 gb

molecule  {
0 1
  P       -2.2900960    -0.9400430     0.3446780
  O       -0.9821530    -0.2015620     0.9382890
  O        1.3422500    -1.6754830     1.2308510
  O        0.0787050     2.3596040     0.4621680
  O        3.0685150    -2.1870720    -0.8085900
  O        2.8473350     2.5031130     0.3715350
  O        4.1956880     0.4353970    -0.9728740
  O       -2.8268630     0.0333510    -0.8075310
  O       -3.2591210    -0.7232820     1.6216710
  O       -2.1189930    -2.3436440    -0.0996680
  C        0.1181620     0.0300090     0.0163190
  C        0.9532920    -1.2442050    -0.0757250
  C        0.8985890     1.2026440     0.5648510
  C        2.2596600    -1.0143070    -0.8180370
  C        2.1770750     1.3964720    -0.2280410
  C        3.0258420     0.1487050    -0.2103220
  C       -3.1242130     1.4315980    -0.4888860
  C       -3.5363170     2.0851650    -1.7841190
  H       -0.2830920     0.2988010    -0.9702380
  H        0.3702690    -2.0293640    -0.5720320
  H        1.1100290     1.0351750     1.4213910
  H        2.0609340    -0.7886600    -1.8727560
  H        1.9169870     1.6362870    -1.2735830
  H        3.2958550    -0.0945320     0.8276460
  H        0.5217750    -1.8880320     1.7115100
  H        0.6655400     3.1093110     0.6831840
  H        2.9735430    -2.5473740     0.0946540
  H        3.7214290     2.5491860    -0.0588690
  H        4.6397270    -0.4238340    -1.0970870
  H       -3.8083950    -1.5223380     1.7347280
  H       -3.9305460     1.4455410     0.2493860
  H       -2.2297620     1.8928800    -0.0590960
  H       -3.8005210     3.1308820    -1.6026710
  H       -2.7171960     2.0533230    -2.5048750
  H       -4.4009440     1.5743230    -2.2127240
units angstrom
no_reorient  #important for SAPT in psi4, default
symmetry c1  #important for SAPT in psi4, default
}

set PROPERTIES_ORIGIN ["COM"]
properties('MP2/aug-cc-pvtz', properties = ['dipole'])
--------------------------------------------------------------------------

    Molecular point group: c1
  Charge       = 0
  Multiplicity = 1
  Basis Set: AUG-CC-PVTZ
    Blend: AUG-CC-PVTZ
  Basis Set: (AUG-CC-PVTZ AUX)
    Blend: AUG-CC-PVTZ-JKFIT

    Orbital Energies [Eh]
    ---------------------

    Doubly Occupied:

       1A    -80.117080     2A    -20.614799     3A    -20.607235
       4A    -20.598875     5A    -20.584040     6A    -20.577054
       7A    -20.574787     8A    -20.574300     9A    -20.571063
      10A    -20.523528    11A    -11.319687    12A    -11.303667
      13A    -11.299507    14A    -11.299177    15A    -11.295688
      16A    -11.291744    17A    -11.275279    18A    -11.229669
      19A     -7.632520    20A     -5.531028    21A     -5.530653
      22A     -5.529451    23A     -1.460423    24A     -1.411357
      25A     -1.394924    26A     -1.393321    27A     -1.386840
      28A     -1.372890    29A     -1.363855    30A     -1.353898
      31A     -1.303912    32A     -1.122523    33A     -1.040283
      34A     -1.014750    35A     -1.009438    36A     -0.882576
      37A     -0.872019    38A     -0.864595    39A     -0.822308
      40A     -0.820757    41A     -0.756053    42A     -0.746668
      43A     -0.735241    44A     -0.728536    45A     -0.709369
      46A     -0.691015    47A     -0.678458    48A     -0.673676
      49A     -0.663494    50A     -0.661084    51A     -0.647689
      52A     -0.636983    53A     -0.627349    54A     -0.615514
      55A     -0.608534    56A     -0.598508    57A     -0.581619
      58A     -0.575828    59A     -0.571580    60A     -0.560258
      61A     -0.556696    62A     -0.548546    63A     -0.541229
      64A     -0.537132    65A     -0.530033    66A     -0.523129
      67A     -0.513882    68A     -0.505033    69A     -0.498304
      70A     -0.486717    71A     -0.479869    72A     -0.476646
      73A     -0.465240    74A     -0.456420    75A     -0.452821
      76A     -0.436497

  @DF-RHF Final Energy: -1327.82943607589937

   => Energetics <=

    Nuclear Repulsion Energy =           1773.8362559199449606
    One-Electron Energy =               -5359.6370836679770946
    Two-Electron Energy =                2257.9713916721329952
    Total Energy =                      -1327.8294360758991388
  Basis Set: (AUG-CC-PVTZ AUX)
    Blend: AUG-CC-PVTZ-RI
    Molecular point group: c1

    Geometry (in Angstrom), charge = 0, multiplicity = 1:

       Center              X                  Y                   Z               Mass
    ------------   -----------------  -----------------  -----------------  -----------------
         P           -2.289931212182    -0.940173475019     0.345345410967    30.973761998420
         O           -0.981988212182    -0.201692475019     0.938956410967    15.994914619570
         O            1.342414787818    -1.675613475019     1.231518410967    15.994914619570
         O            0.078869787818     2.359473524981     0.462835410967    15.994914619570
         O            3.068679787818    -2.187202475019    -0.807922589033    15.994914619570
         O            2.847499787818     2.502982524981     0.372202410967    15.994914619570
         O            4.195852787818     0.435266524981    -0.972206589033    15.994914619570
         O           -2.826698212182     0.033220524981    -0.806863589033    15.994914619570
         O           -3.258956212182    -0.723412475019     1.622338410967    15.994914619570
         O           -2.118828212182    -2.343774475019    -0.099000589033    15.994914619570
         C            0.118326787818     0.029878524981     0.016986410967    12.000000000000
         C            0.953456787818    -1.244335475019    -0.075057589033    12.000000000000
         C            0.898753787818     1.202513524981     0.565518410967    12.000000000000
         C            2.259824787818    -1.014437475019    -0.817369589033    12.000000000000
         C            2.177239787818     1.396341524981    -0.227373589033    12.000000000000
         C            3.026006787818     0.148574524981    -0.209654589033    12.000000000000
         C           -3.124048212182     1.431467524981    -0.488218589033    12.000000000000
         C           -3.536152212182     2.085034524981    -1.783451589033    12.000000000000
         H           -0.282927212182     0.298670524981    -0.969570589033     1.007825032230
         H            0.370433787818    -2.029494475019    -0.571364589033     1.007825032230
         H            1.110193787818     1.035044524981     1.422058410967     1.007825032230
         H            2.061098787818    -0.788790475019    -1.872088589033     1.007825032230
         H            1.917151787818     1.636156524981    -1.272915589033     1.007825032230
         H            3.296019787818    -0.094662475019     0.828313410967     1.007825032230
         H            0.521939787818    -1.888162475019     1.712177410967     1.007825032230
         H            0.665704787818     3.109180524981     0.683851410967     1.007825032230
         H            2.973707787818    -2.547504475019     0.095321410967     1.007825032230
         H            3.721593787818     2.549055524981    -0.058201589033     1.007825032230
         H            4.639891787818    -0.423964475019    -1.096419589033     1.007825032230
         H           -3.808230212182    -1.522468475019     1.735395410967     1.007825032230
         H           -3.930381212182     1.445410524981     0.250053410967     1.007825032230
         H           -2.229597212182     1.892749524981    -0.058428589033     1.007825032230
         H           -3.800356212182     3.130751524981    -1.602003589033     1.007825032230
         H           -2.717031212182     2.053192524981    -2.504207589033     1.007825032230
         H           -4.400779212182     1.574192524981    -2.212056589033     1.007825032230

  Basis Set: AUG-CC-PVTZ
    Blend: AUG-CC-PVTZ
  Basis Set: (AUG-CC-PVTZ AUX)
    Blend: AUG-CC-PVTZ-JKFIT
	 Reference Energy          =   -1327.8294360758993662 [Eh]
	 Singles Energy            =      -0.0000000000000000 [Eh]
	 Same-Spin Energy          =      -1.0141533178043374 [Eh]
	 Opposite-Spin Energy      =      -3.0749081975344752 [Eh]
	 Correlation Energy        =      -4.0890615153388126 [Eh]
	 Total Energy              =   -1331.9184975912380651 [Eh]

	 ================> DF-SCS-MP2 Energies <==================
	-----------------------------------------------------------
	 SCS Same-Spin Scale       =       0.3333333333333333 [-]
	 SCS Opposite-Spin Scale   =       1.2000000000000000 [-]
	 SCS Same-Spin Energy      =      -0.3380511059347791 [Eh]
	 SCS Opposite-Spin Energy  =      -3.6898898370413700 [Eh]
	 SCS Correlation Energy    =      -4.0279409429761488 [Eh]
	 SCS Total Energy          =   -1331.8573770188754679 [Eh]
	-----------------------------------------------------------

  Dipole Moment: [D]
     X:    -1.0840      Y:     1.8205      Z:     0.7409     Total:     2.2446

*** Psi4 exiting successfully. Buy a developer a beer!
