                               Psi4 1.3.2 release

  ==> Input File <==

--------------------------------------------------------------------------
#psi4
#
memory 32 gb

molecule  {
0 1
  P       -2.2900960    -0.9400430     0.3446780
  O       -0.9821530    -0.2015620     0.9382890
  O        1.3055796    -1.6166293     1.2590497
  O        0.0787050     2.3596040     0.4621680
  O        3.0685150    -2.1870720    -0.8085900
  O        2.8473350     2.5031130     0.3715350
  O        4.1956880     0.4353970    -0.9728740
  O       -2.8268630     0.0333510    -0.8075310
  O       -3.2591210    -0.7232820     1.6216710
  O       -2.1189930    -2.3436440    -0.0996680
  C        0.1263679     0.0271438     0.0957517
  C        0.9532920    -1.2442050    -0.0757250
  C        0.8985890     1.2026440     0.5648510
  C        2.2596600    -1.0143070    -0.8180370
  C        2.1770750     1.3964720    -0.2280410
  C        3.0258420     0.1487050    -0.2103220
  C       -3.1242130     1.4315980    -0.4888860
  C       -3.5363170     2.0851650    -1.7841190
  H       -0.2830920     0.2988010    -0.9702380
  H        0.3702690    -2.0293640    -0.5720320
  H        1.1571200     0.9978770     1.6121560
  H        2.0609340    -0.7886600    -1.8727560
  H        1.9169870     1.6362870    -1.2735830
  H        3.2958550    -0.0945320     0.8276460
  H        0.5217750    -1.8880320     1.7115100
  H        0.6655400     3.1093110     0.6831840
  H        2.9735430    -2.5473740     0.0946540
  H        3.7214290     2.5491860    -0.0588690
  H        4.6397270    -0.4238340    -1.0970870
  H       -3.8083950    -1.5223380     1.7347280
  H       -3.9305460     1.4455410     0.2493860
  H       -2.2297620     1.8928800    -0.0590960
  H       -3.8005210     3.1308820    -1.6026710
  H       -2.7171960     2.0533230    -2.5048750
  H       -4.4009440     1.5743230    -2.2127240
units angstrom
no_reorient  #important for SAPT in psi4, default
symmetry c1  #important for SAPT in psi4, default
}

set PROPERTIES_ORIGIN ["COM"]
properties('MP2/aug-cc-pvtz', properties = ['dipole'])
--------------------------------------------------------------------------

    Molecular point group: c1
  Charge       = 0
  Multiplicity = 1
  Basis Set: AUG-CC-PVTZ
    Blend: AUG-CC-PVTZ
  Basis Set: (AUG-CC-PVTZ AUX)
    Blend: AUG-CC-PVTZ-JKFIT

    Orbital Energies [Eh]
    ---------------------

    Doubly Occupied:

       1A    -80.119708     2A    -20.616275     3A    -20.608802
       4A    -20.599051     5A    -20.577206     6A    -20.576923
       7A    -20.576443     8A    -20.574217     9A    -20.572478
      10A    -20.524771    11A    -11.320525    12A    -11.303643
      13A    -11.300702    14A    -11.298932    15A    -11.296929
      16A    -11.295240    17A    -11.291500    18A    -11.229209
      19A     -7.634944    20A     -5.533432    21A     -5.533126
      22A     -5.531887    23A     -1.465772    24A     -1.414827
      25A     -1.398407    26A     -1.394040    27A     -1.387442
      28A     -1.375662    29A     -1.365629    30A     -1.354632
      31A     -1.305362    32A     -1.118951    33A     -1.040081
      34A     -1.012675    35A     -1.004622    36A     -0.884805
      37A     -0.864908    38A     -0.861238    39A     -0.824202
      40A     -0.805807    41A     -0.752001    42A     -0.743942
      43A     -0.735331    44A     -0.730794    45A     -0.708318
      46A     -0.687057    47A     -0.685532    48A     -0.672145
      49A     -0.663264    50A     -0.661587    51A     -0.644905
      52A     -0.636676    53A     -0.629254    54A     -0.614931
      55A     -0.607103    56A     -0.598864    57A     -0.581425
      58A     -0.576886    59A     -0.569310    60A     -0.558698
      61A     -0.556388    62A     -0.547402    63A     -0.541061
      64A     -0.536684    65A     -0.525707    66A     -0.522485
      67A     -0.512991    68A     -0.504932    69A     -0.497610
      70A     -0.480294    71A     -0.478217    72A     -0.473192
      73A     -0.461097    74A     -0.454724    75A     -0.448045
      76A     -0.437905

  @DF-RHF Final Energy: -1327.85498294263971

   => Energetics <=

    Nuclear Repulsion Energy =           1774.1711810735605468
    One-Electron Energy =               -5360.3887949658628713
    Two-Electron Energy =                2258.3626309496626163
    Total Energy =                      -1327.8549829426397082
  Basis Set: (AUG-CC-PVTZ AUX)
    Blend: AUG-CC-PVTZ-RI
    Molecular point group: c1

    Geometry (in Angstrom), charge = 0, multiplicity = 1:

       Center              X                  Y                   Z               Mass
    ------------   -----------------  -----------------  -----------------  -----------------
         P           -2.288401641712    -0.943191542687     0.339803231237    30.973761998420
         O           -0.980458641712    -0.204710542687     0.933414231237    15.994914619570
         O            1.307273958288    -1.619777842687     1.254174931237    15.994914619570
         O            0.080399358288     2.356455457313     0.457293231237    15.994914619570
         O            3.070209358288    -2.190220542687    -0.813464768763    15.994914619570
         O            2.849029358288     2.499964457313     0.366660231237    15.994914619570
         O            4.197382358288     0.432248457313    -0.977748768763    15.994914619570
         O           -2.825168641712     0.030202457313    -0.812405768763    15.994914619570
         O           -3.257426641712    -0.726430542687     1.616796231237    15.994914619570
         O           -2.117298641712    -2.346792542687    -0.104542768763    15.994914619570
         C            0.128062258288     0.023995257313     0.090876931237    12.000000000000
         C            0.954986358288    -1.247353542687    -0.080599768763    12.000000000000
         C            0.900283358288     1.199495457313     0.559976231237    12.000000000000
         C            2.261354358288    -1.017455542687    -0.822911768763    12.000000000000
         C            2.178769358288     1.393323457313    -0.232915768763    12.000000000000
         C            3.027536358288     0.145556457313    -0.215196768763    12.000000000000
         C           -3.122518641712     1.428449457313    -0.493760768763    12.000000000000
         C           -3.534622641712     2.082016457313    -1.788993768763    12.000000000000
         H           -0.281397641712     0.295652457313    -0.975112768763     1.007825032230
         H            0.371963358288    -2.032512542687    -0.576906768763     1.007825032230
         H            1.158814358288     0.994728457313     1.607281231237     1.007825032230
         H            2.062628358288    -0.791808542687    -1.877630768763     1.007825032230
         H            1.918681358288     1.633138457313    -1.278457768763     1.007825032230
         H            3.297549358288    -0.097680542687     0.822771231237     1.007825032230
         H            0.523469358288    -1.891180542687     1.706635231237     1.007825032230
         H            0.667234358288     3.106162457313     0.678309231237     1.007825032230
         H            2.975237358288    -2.550522542687     0.089779231237     1.007825032230
         H            3.723123358288     2.546037457313    -0.063743768763     1.007825032230
         H            4.641421358288    -0.426982542687    -1.101961768763     1.007825032230
         H           -3.806700641712    -1.525486542687     1.729853231237     1.007825032230
         H           -3.928851641712     1.442392457313     0.244511231237     1.007825032230
         H           -2.228067641712     1.889731457313    -0.063970768763     1.007825032230
         H           -3.798826641712     3.127733457313    -1.607545768763     1.007825032230
         H           -2.715501641712     2.050174457313    -2.509749768763     1.007825032230
         H           -4.399249641712     1.571174457313    -2.217598768763     1.007825032230

  Basis Set: AUG-CC-PVTZ
    Blend: AUG-CC-PVTZ
  Basis Set: (AUG-CC-PVTZ AUX)
    Blend: AUG-CC-PVTZ-JKFIT
	 Reference Energy          =   -1327.8549829426397082 [Eh]
	 Singles Energy            =      -0.0000000000000000 [Eh]
	 Same-Spin Energy          =      -1.0144607142600024 [Eh]
	 Opposite-Spin Energy      =      -3.0751421317640775 [Eh]
	 Correlation Energy        =      -4.0896028460240803 [Eh]
	 Total Energy              =   -1331.9445857886637441 [Eh]

	 ================> DF-SCS-MP2 Energies <==================
	-----------------------------------------------------------
	 SCS Same-Spin Scale       =       0.3333333333333333 [-]
	 SCS Opposite-Spin Scale   =       1.2000000000000000 [-]
	 SCS Same-Spin Energy      =      -0.3381535714200008 [Eh]
	 SCS Opposite-Spin Energy  =      -3.6901705581168929 [Eh]
	 SCS Correlation Energy    =      -4.0283241295368937 [Eh]
	 SCS Total Energy          =   -1331.8833070721766489 [Eh]
	-----------------------------------------------------------

  Dipole Moment: [D]
     X:    -1.1076      Y:     1.6619      Z:     0.7537     Total:     2.1347

*** Psi4 exiting successfully. Buy a developer a beer!
