                               Psi4 1.3.2 release

  ==> Input File <==

--------------------------------------------------------------------------
#psi4
#
memory 32 gb

molecule  {
0 1
  P       -2.2900960    -0.9400430     0.3446780
  O       -0.9821530    -0.2015620     0.9382890
  O        1.3422500    -1.6754830     1.2308510
  O        0.0787050     2.3596040     0.4621680
  O        3.0685150    -2.1870720    -0.8085900
  O        2.8473350     2.5031130     0.3715350
  O        4.1956880     0.4353970    -0.9728740
  O       -2.8268630     0.0333510    -0.8075310
  O       -3.2591210    -0.7232820     1.6216710
  O       -2.1189930    -2.3436440    -0.0996680
  C        0.1181620     0.0300090     0.0163190
  C        0.8819236    -1.2550640    -0.0559191
  C        0.8985890     1.2026440     0.5648510
  C        2.2596600    -1.0143070    -0.8180370
  C        2.1770750     1.3964720    -0.2280410
  C        3.0258420     0.1487050    -0.2103220
  C       -3.1242130     1.4315980    -0.4888860
  C       -3.5363170     2.0851650    -1.7841190
  H       -0.2830920     0.2988010    -0.9702380
  H        0.3702690    -2.0293640    -0.5720320
  H        1.1571200     0.9978770     1.6121560
  H        2.0609340    -0.7886600    -1.8727560
  H        1.9169870     1.6362870    -1.2735830
  H        3.2958550    -0.0945320     0.8276460
  H        0.4955259    -1.8750206     1.6697500
  H        0.6655400     3.1093110     0.6831840
  H        2.9735430    -2.5473740     0.0946540
  H        3.7214290     2.5491860    -0.0588690
  H        4.6397270    -0.4238340    -1.0970870
  H       -3.8083950    -1.5223380     1.7347280
  H       -3.9305460     1.4455410     0.2493860
  H       -2.2297620     1.8928800    -0.0590960
  H       -3.8005210     3.1308820    -1.6026710
  H       -2.7171960     2.0533230    -2.5048750
  H       -4.4009440     1.5743230    -2.2127240
units angstrom
no_reorient  #important for SAPT in psi4, default
symmetry c1  #important for SAPT in psi4, default
}

set PROPERTIES_ORIGIN ["COM"]
properties('MP2/aug-cc-pvtz', properties = ['dipole'])
--------------------------------------------------------------------------

    Molecular point group: c1
  Charge       = 0
  Multiplicity = 1
  Basis Set: AUG-CC-PVTZ
    Blend: AUG-CC-PVTZ
  Basis Set: (AUG-CC-PVTZ AUX)
    Blend: AUG-CC-PVTZ-JKFIT

    Orbital Energies [Eh]
    ---------------------

    Doubly Occupied:

       1A    -80.117472     2A    -20.615051     3A    -20.606227
       4A    -20.599474     5A    -20.586185     6A    -20.576657
       7A    -20.574710     8A    -20.574038     9A    -20.573562
      10A    -20.524253    11A    -11.320618    12A    -11.302202
      13A    -11.300188    14A    -11.300168    15A    -11.299844
      16A    -11.296634    17A    -11.290822    18A    -11.230226
      19A     -7.632933    20A     -5.531442    21A     -5.531069
      22A     -5.529864    23A     -1.461222    24A     -1.411801
      25A     -1.395524    26A     -1.392878    27A     -1.387293
      28A     -1.373787    29A     -1.364558    30A     -1.353686
      31A     -1.304751    32A     -1.116542    33A     -1.040893
      34A     -1.015419    35A     -0.996067    36A     -0.879893
      37A     -0.865201    38A     -0.860976    39A     -0.822209
      40A     -0.808104    41A     -0.752354    42A     -0.745667
      43A     -0.733920    44A     -0.728841    45A     -0.708301
      46A     -0.688827    47A     -0.676218    48A     -0.673336
      49A     -0.661208    50A     -0.659833    51A     -0.644896
      52A     -0.635554    53A     -0.626448    54A     -0.615333
      55A     -0.604309    56A     -0.599360    57A     -0.582295
      58A     -0.575878    59A     -0.574446    60A     -0.560483
      61A     -0.558250    62A     -0.550947    63A     -0.541912
      64A     -0.536604    65A     -0.529588    66A     -0.521452
      67A     -0.512138    68A     -0.501572    69A     -0.498578
      70A     -0.481221    71A     -0.480031    72A     -0.475963
      73A     -0.462710    74A     -0.455558    75A     -0.454004
      76A     -0.434389

  @DF-RHF Final Energy: -1327.85391014761990

   => Energetics <=

    Nuclear Repulsion Energy =           1772.6430328792689579
    One-Electron Energy =               -5357.3801551858723542
    Two-Electron Energy =                2256.8832121589834969
    Total Energy =                      -1327.8539101476198994
  Basis Set: (AUG-CC-PVTZ AUX)
    Blend: AUG-CC-PVTZ-RI
    Molecular point group: c1

    Geometry (in Angstrom), charge = 0, multiplicity = 1:

       Center              X                  Y                   Z               Mass
    ------------   -----------------  -----------------  -----------------  -----------------
         P           -2.287031077294    -0.939636142186     0.343999023420    30.973761998420
         O           -0.979088077294    -0.201155142186     0.937610023420    15.994914619570
         O            1.345314922706    -1.675076142186     1.230172023420    15.994914619570
         O            0.081769922706     2.360010857814     0.461489023420    15.994914619570
         O            3.071579922706    -2.186665142186    -0.809268976580    15.994914619570
         O            2.850399922706     2.503519857814     0.370856023420    15.994914619570
         O            4.198752922706     0.435803857814    -0.973552976580    15.994914619570
         O           -2.823798077294     0.033757857814    -0.808209976580    15.994914619570
         O           -3.256056077294    -0.722875142186     1.620992023420    15.994914619570
         O           -2.115928077294    -2.343237142186    -0.100346976580    15.994914619570
         C            0.121226922706     0.030415857814     0.015640023420    12.000000000000
         C            0.884988522706    -1.254657142186    -0.056598076580    12.000000000000
         C            0.901653922706     1.203050857814     0.564172023420    12.000000000000
         C            2.262724922706    -1.013900142186    -0.818715976580    12.000000000000
         C            2.180139922706     1.396878857814    -0.228719976580    12.000000000000
         C            3.028906922706     0.149111857814    -0.211000976580    12.000000000000
         C           -3.121148077294     1.432004857814    -0.489564976580    12.000000000000
         C           -3.533252077294     2.085571857814    -1.784797976580    12.000000000000
         H           -0.280027077294     0.299207857814    -0.970916976580     1.007825032230
         H            0.373333922706    -2.028957142186    -0.572710976580     1.007825032230
         H            1.160184922706     0.998283857814     1.611477023420     1.007825032230
         H            2.063998922706    -0.788253142186    -1.873434976580     1.007825032230
         H            1.920051922706     1.636693857814    -1.274261976580     1.007825032230
         H            3.298919922706    -0.094125142186     0.826967023420     1.007825032230
         H            0.498590822706    -1.874613742186     1.669071023420     1.007825032230
         H            0.668604922706     3.109717857814     0.682505023420     1.007825032230
         H            2.976607922706    -2.546967142186     0.093975023420     1.007825032230
         H            3.724493922706     2.549592857814    -0.059547976580     1.007825032230
         H            4.642791922706    -0.423427142186    -1.097765976580     1.007825032230
         H           -3.805330077294    -1.521931142186     1.734049023420     1.007825032230
         H           -3.927481077294     1.445947857814     0.248707023420     1.007825032230
         H           -2.226697077294     1.893286857814    -0.059774976580     1.007825032230
         H           -3.797456077294     3.131288857814    -1.603349976580     1.007825032230
         H           -2.714131077294     2.053729857814    -2.505553976580     1.007825032230
         H           -4.397879077294     1.574729857814    -2.213402976580     1.007825032230

  Basis Set: AUG-CC-PVTZ
    Blend: AUG-CC-PVTZ
  Basis Set: (AUG-CC-PVTZ AUX)
    Blend: AUG-CC-PVTZ-JKFIT
	 Reference Energy          =   -1327.8539101476198994 [Eh]
	 Singles Energy            =      -0.0000000000000000 [Eh]
	 Same-Spin Energy          =      -1.0149736160882605 [Eh]
	 Opposite-Spin Energy      =      -3.0770852163239830 [Eh]
	 Correlation Energy        =      -4.0920588324122438 [Eh]
	 Total Energy              =   -1331.9459689800321485 [Eh]

	 ================> DF-SCS-MP2 Energies <==================
	-----------------------------------------------------------
	 SCS Same-Spin Scale       =       0.3333333333333333 [-]
	 SCS Opposite-Spin Scale   =       1.2000000000000000 [-]
	 SCS Same-Spin Energy      =      -0.3383245386960868 [Eh]
	 SCS Opposite-Spin Energy  =      -3.6925022595887795 [Eh]
	 SCS Correlation Energy    =      -4.0308267982848660 [Eh]
	 SCS Total Energy          =   -1331.8847369459047059 [Eh]
	-----------------------------------------------------------

  Dipole Moment: [D]
     X:    -1.1777      Y:     1.8847      Z:     0.6854     Total:     2.3257

*** Psi4 exiting successfully. Buy a developer a beer!
