                               Psi4 1.3.2 release

  ==> Input File <==

--------------------------------------------------------------------------
#psi4
#
memory 32 gb

molecule  {
0 1
  P       -2.2900960    -0.9400430     0.3446780
  O       -0.9821530    -0.2015620     0.9382890
  O        1.3422500    -1.6754830     1.2308510
  O        0.0430436     2.3314917     0.4421525
  O        3.0685150    -2.1870720    -0.8085900
  O        2.8473350     2.5031130     0.3715350
  O        4.1956880     0.4353970    -0.9728740
  O       -2.8268630     0.0333510    -0.8075310
  O       -3.2591210    -0.7232820     1.6216710
  O       -2.1189930    -2.3436440    -0.0996680
  C        0.0778706     0.0626201     0.0064664
  C        0.9532920    -1.2442050    -0.0757250
  C        0.8985890     1.2026440     0.5648510
  C        2.2596600    -1.0143070    -0.8180370
  C        2.1770750     1.3964720    -0.2280410
  C        3.0258420     0.1487050    -0.2103220
  C       -3.1242130     1.4315980    -0.4888860
  C       -3.5363170     2.0851650    -1.7841190
  H       -0.2830920     0.2988010    -0.9702380
  H        0.3702690    -2.0293640    -0.5720320
  H        1.1571200     0.9978770     1.6121560
  H        2.0609340    -0.7886600    -1.8727560
  H        1.9169870     1.6362870    -1.2735830
  H        3.2958550    -0.0945320     0.8276460
  H        0.5217750    -1.8880320     1.7115100
  H        0.6655400     3.1093110     0.6831840
  H        2.9735430    -2.5473740     0.0946540
  H        3.7214290     2.5491860    -0.0588690
  H        4.6397270    -0.4238340    -1.0970870
  H       -3.8083950    -1.5223380     1.7347280
  H       -3.9305460     1.4455410     0.2493860
  H       -2.2297620     1.8928800    -0.0590960
  H       -3.8005210     3.1308820    -1.6026710
  H       -2.7171960     2.0533230    -2.5048750
  H       -4.4009440     1.5743230    -2.2127240
units angstrom
no_reorient  #important for SAPT in psi4, default
symmetry c1  #important for SAPT in psi4, default
}

set PROPERTIES_ORIGIN ["COM"]
properties('MP2/aug-cc-pvtz', properties = ['dipole'])
--------------------------------------------------------------------------

    Molecular point group: c1
  Charge       = 0
  Multiplicity = 1
  Basis Set: AUG-CC-PVTZ
    Blend: AUG-CC-PVTZ
  Basis Set: (AUG-CC-PVTZ AUX)
    Blend: AUG-CC-PVTZ-JKFIT

    Orbital Energies [Eh]
    ---------------------

    Doubly Occupied:

       1A    -80.117775     2A    -20.615303     3A    -20.609110
       4A    -20.599523     5A    -20.582050     6A    -20.577787
       7A    -20.577611     8A    -20.573604     9A    -20.573180
      10A    -20.523920    11A    -11.317323    12A    -11.302223
      13A    -11.299430    14A    -11.297570    15A    -11.297499
      16A    -11.296877    17A    -11.290886    18A    -11.230008
      19A     -7.633262    20A     -5.531779    21A     -5.531399
      22A     -5.530163    23A     -1.462975    24A     -1.410135
      25A     -1.396128    26A     -1.391226    27A     -1.387405
      28A     -1.371529    29A     -1.361099    30A     -1.352629
      31A     -1.304367    32A     -1.113035    33A     -1.040678
      34A     -1.009403    35A     -0.998936    36A     -0.881520
      37A     -0.865507    38A     -0.854454    39A     -0.824106
      40A     -0.811932    41A     -0.748067    42A     -0.746563
      43A     -0.731083    44A     -0.728661    45A     -0.706906
      46A     -0.682977    47A     -0.676332    48A     -0.673732
      49A     -0.662795    50A     -0.660682    51A     -0.641611
      52A     -0.633180    53A     -0.627722    54A     -0.614129
      55A     -0.603891    56A     -0.596921    57A     -0.580876
      58A     -0.576082    59A     -0.571875    60A     -0.560382
      61A     -0.555730    62A     -0.547837    63A     -0.541300
      64A     -0.535884    65A     -0.532204    66A     -0.522752
      67A     -0.512888    68A     -0.504488    69A     -0.497562
      70A     -0.484939    71A     -0.479421    72A     -0.476220
      73A     -0.461174    74A     -0.455845    75A     -0.443507
      76A     -0.433845

  @DF-RHF Final Energy: -1327.85282877517193

   => Energetics <=

    Nuclear Repulsion Energy =           1772.8669466349274444
    One-Electron Energy =               -5357.9287301083923012
    Two-Electron Energy =                2257.2089546982929278
    Total Energy =                      -1327.8528287751719290
  Basis Set: (AUG-CC-PVTZ AUX)
    Blend: AUG-CC-PVTZ-RI
    Molecular point group: c1

    Geometry (in Angstrom), charge = 0, multiplicity = 1:

       Center              X                  Y                   Z               Mass
    ------------   -----------------  -----------------  -----------------  -----------------
         P           -2.286437374790    -0.939840523005     0.346199812136    30.973761998420
         O           -0.978494374790    -0.201359523005     0.939810812136    15.994914619570
         O            1.345908625210    -1.675280523005     1.232372812136    15.994914619570
         O            0.046702225210     2.331694176995     0.443674312136    15.994914619570
         O            3.072173625210    -2.186869523005    -0.807068187864    15.994914619570
         O            2.850993625210     2.503315476995     0.373056812136    15.994914619570
         O            4.199346625210     0.435599476995    -0.971352187864    15.994914619570
         O           -2.823204374790     0.033553476995    -0.806009187864    15.994914619570
         O           -3.255462374790    -0.723079523005     1.623192812136    15.994914619570
         O           -2.115334374790    -2.343441523005    -0.098146187864    15.994914619570
         C            0.081529225210     0.062822576995     0.007988212136    12.000000000000
         C            0.956950625210    -1.244002523005    -0.074203187864    12.000000000000
         C            0.902247625210     1.202846476995     0.566372812136    12.000000000000
         C            2.263318625210    -1.014104523005    -0.816515187864    12.000000000000
         C            2.180733625210     1.396674476995    -0.226519187864    12.000000000000
         C            3.029500625210     0.148907476995    -0.208800187864    12.000000000000
         C           -3.120554374790     1.431800476995    -0.487364187864    12.000000000000
         C           -3.532658374790     2.085367476995    -1.782597187864    12.000000000000
         H           -0.279433374790     0.299003476995    -0.968716187864     1.007825032230
         H            0.373927625210    -2.029161523005    -0.570510187864     1.007825032230
         H            1.160778625210     0.998079476995     1.613677812136     1.007825032230
         H            2.064592625210    -0.788457523005    -1.871234187864     1.007825032230
         H            1.920645625210     1.636489476995    -1.272061187864     1.007825032230
         H            3.299513625210    -0.094329523005     0.829167812136     1.007825032230
         H            0.525433625210    -1.887829523005     1.713031812136     1.007825032230
         H            0.669198625210     3.109513476995     0.684705812136     1.007825032230
         H            2.977201625210    -2.547171523005     0.096175812136     1.007825032230
         H            3.725087625210     2.549388476995    -0.057347187864     1.007825032230
         H            4.643385625210    -0.423631523005    -1.095565187864     1.007825032230
         H           -3.804736374790    -1.522135523005     1.736249812136     1.007825032230
         H           -3.926887374790     1.445743476995     0.250907812136     1.007825032230
         H           -2.226103374790     1.893082476995    -0.057574187864     1.007825032230
         H           -3.796862374790     3.131084476995    -1.601149187864     1.007825032230
         H           -2.713537374790     2.053525476995    -2.503353187864     1.007825032230
         H           -4.397285374790     1.574525476995    -2.211202187864     1.007825032230

  Basis Set: AUG-CC-PVTZ
    Blend: AUG-CC-PVTZ
  Basis Set: (AUG-CC-PVTZ AUX)
    Blend: AUG-CC-PVTZ-JKFIT
	 Reference Energy          =   -1327.8528287751719290 [Eh]
	 Singles Energy            =      -0.0000000000000000 [Eh]
	 Same-Spin Energy          =      -1.0153446868427825 [Eh]
	 Opposite-Spin Energy      =      -3.0780612495935418 [Eh]
	 Correlation Energy        =      -4.0934059364363247 [Eh]
	 Total Energy              =   -1331.9462347116082128 [Eh]

	 ================> DF-SCS-MP2 Energies <==================
	-----------------------------------------------------------
	 SCS Same-Spin Scale       =       0.3333333333333333 [-]
	 SCS Opposite-Spin Scale   =       1.2000000000000000 [-]
	 SCS Same-Spin Energy      =      -0.3384482289475941 [Eh]
	 SCS Opposite-Spin Energy  =      -3.6936734995122498 [Eh]
	 SCS Correlation Energy    =      -4.0321217284598436 [Eh]
	 SCS Total Energy          =   -1331.8849505036316714 [Eh]
	-----------------------------------------------------------

  Dipole Moment: [D]
     X:    -1.1802      Y:     1.9524      Z:     0.7717     Total:     2.4084

*** Psi4 exiting successfully. Buy a developer a beer!
