                               Psi4 1.3.2 release

  ==> Input File <==

--------------------------------------------------------------------------
#psi4
#
memory 32 gb

molecule  {
0 1
  P       -2.2900960    -0.9400430     0.3446780
  O       -0.9821530    -0.2015620     0.9382890
  O        1.3422500    -1.6754830     1.2308510
  O        0.0787050     2.3596040     0.4621680
  O        3.0685150    -2.1870720    -0.8085900
  O        2.8473350     2.5031130     0.3715350
  O        4.1956880     0.4353970    -0.9728740
  O       -2.8268630     0.0333510    -0.8075310
  O       -3.2591210    -0.7232820     1.6216710
  O       -2.1189930    -2.3436440    -0.0996680
  C        0.1181620     0.0300090     0.0163190
  C        0.9532920    -1.2442050    -0.0757250
  C        0.8985890     1.2026440     0.5648510
  C        2.2661242    -0.9955844    -0.8003884
  C        2.1770750     1.3964720    -0.2280410
  C        3.0258420     0.1487050    -0.2103220
  C       -3.1242130     1.4315980    -0.4888860
  C       -3.5363170     2.0851650    -1.7841190
  H       -0.2830920     0.2988010    -0.9702380
  H        0.3565679    -2.0273045    -0.5588261
  H        1.1571200     0.9978770     1.6121560
  H        2.0609340    -0.7886600    -1.8727560
  H        1.9169870     1.6362870    -1.2735830
  H        3.2958550    -0.0945320     0.8276460
  H        0.5217750    -1.8880320     1.7115100
  H        0.6655400     3.1093110     0.6831840
  H        2.9735430    -2.5473740     0.0946540
  H        3.7214290     2.5491860    -0.0588690
  H        4.6397270    -0.4238340    -1.0970870
  H       -3.8083950    -1.5223380     1.7347280
  H       -3.9305460     1.4455410     0.2493860
  H       -2.2297620     1.8928800    -0.0590960
  H       -3.8005210     3.1308820    -1.6026710
  H       -2.7171960     2.0533230    -2.5048750
  H       -4.4009440     1.5743230    -2.2127240
units angstrom
no_reorient  #important for SAPT in psi4, default
symmetry c1  #important for SAPT in psi4, default
}

set PROPERTIES_ORIGIN ["COM"]
properties('MP2/aug-cc-pvtz', properties = ['dipole'])
--------------------------------------------------------------------------

    Molecular point group: c1
  Charge       = 0
  Multiplicity = 1
  Basis Set: AUG-CC-PVTZ
    Blend: AUG-CC-PVTZ
  Basis Set: (AUG-CC-PVTZ AUX)
    Blend: AUG-CC-PVTZ-JKFIT

    Orbital Energies [Eh]
    ---------------------

    Doubly Occupied:

       1A    -80.117166     2A    -20.614895     3A    -20.607156
       4A    -20.599087     5A    -20.582728     6A    -20.577311
       7A    -20.574944     8A    -20.573779     9A    -20.573679
      10A    -20.523769    11A    -11.320561    12A    -11.304077
      13A    -11.299970    14A    -11.299509    15A    -11.298975
      16A    -11.297447    17A    -11.291691    18A    -11.229952
      19A     -7.632617    20A     -5.531123    21A     -5.530749
      22A     -5.529550    23A     -1.460459    24A     -1.410700
      25A     -1.395203    26A     -1.392266    27A     -1.386976
      28A     -1.373190    29A     -1.362869    30A     -1.352925
      31A     -1.304179    32A     -1.121217    33A     -1.040619
      34A     -1.014923    35A     -1.003373    36A     -0.881471
      37A     -0.865320    38A     -0.858803    39A     -0.822157
      40A     -0.810084    41A     -0.752017    42A     -0.745962
      43A     -0.731913    44A     -0.728785    45A     -0.708350
      46A     -0.688270    47A     -0.676467    48A     -0.673977
      49A     -0.663071    50A     -0.660459    51A     -0.643557
      52A     -0.635308    53A     -0.627149    54A     -0.615513
      55A     -0.603866    56A     -0.596491    57A     -0.581609
      58A     -0.575497    59A     -0.571479    60A     -0.559520
      61A     -0.556639    62A     -0.548531    63A     -0.541090
      64A     -0.535245    65A     -0.529298    66A     -0.521541
      67A     -0.513089    68A     -0.504239    69A     -0.497349
      70A     -0.484433    71A     -0.479984    72A     -0.476896
      73A     -0.462581    74A     -0.456526    75A     -0.450138
      76A     -0.441473

  @DF-RHF Final Energy: -1327.85991986795648

   => Energetics <=

    Nuclear Repulsion Energy =           1772.8371038220420814
    One-Electron Energy =               -5357.7824900762989273
    Two-Electron Energy =                2257.0854663863001406
    Total Energy =                      -1327.8599198679567053
  Basis Set: (AUG-CC-PVTZ AUX)
    Blend: AUG-CC-PVTZ-RI
    Molecular point group: c1

    Geometry (in Angstrom), charge = 0, multiplicity = 1:

       Center              X                  Y                   Z               Mass
    ------------   -----------------  -----------------  -----------------  -----------------
         P           -2.290317316409    -0.940830130883     0.343896585367    30.973761998420
         O           -0.982374316409    -0.202349130883     0.937507585367    15.994914619570
         O            1.342028683591    -1.676270130883     1.230069585367    15.994914619570
         O            0.078483683591     2.358816869117     0.461386585367    15.994914619570
         O            3.068293683591    -2.187859130883    -0.809371414633    15.994914619570
         O            2.847113683591     2.502325869117     0.370753585367    15.994914619570
         O            4.195466683591     0.434609869117    -0.973655414633    15.994914619570
         O           -2.827084316409     0.032563869117    -0.808312414633    15.994914619570
         O           -3.259342316409    -0.724069130883     1.620889585367    15.994914619570
         O           -2.119214316409    -2.344431130883    -0.100449414633    15.994914619570
         C            0.117940683591     0.029221869117     0.015537585367    12.000000000000
         C            0.953070683591    -1.244992130883    -0.076506414633    12.000000000000
         C            0.898367683591     1.201856869117     0.564069585367    12.000000000000
         C            2.265902883591    -0.996371530883    -0.801169814633    12.000000000000
         C            2.176853683591     1.395684869117    -0.228822414633    12.000000000000
         C            3.025620683591     0.147917869117    -0.211103414633    12.000000000000
         C           -3.124434316409     1.430810869117    -0.489667414633    12.000000000000
         C           -3.536538316409     2.084377869117    -1.784900414633    12.000000000000
         H           -0.283313316409     0.298013869117    -0.971019414633     1.007825032230
         H            0.356346583591    -2.028091630883    -0.559607514633     1.007825032230
         H            1.156898683591     0.997089869117     1.611374585367     1.007825032230
         H            2.060712683591    -0.789447130883    -1.873537414633     1.007825032230
         H            1.916765683591     1.635499869117    -1.274364414633     1.007825032230
         H            3.295633683591    -0.095319130883     0.826864585367     1.007825032230
         H            0.521553683591    -1.888819130883     1.710728585367     1.007825032230
         H            0.665318683591     3.108523869117     0.682402585367     1.007825032230
         H            2.973321683591    -2.548161130883     0.093872585367     1.007825032230
         H            3.721207683591     2.548398869117    -0.059650414633     1.007825032230
         H            4.639505683591    -0.424621130883    -1.097868414633     1.007825032230
         H           -3.808616316409    -1.523125130883     1.733946585367     1.007825032230
         H           -3.930767316409     1.444753869117     0.248604585367     1.007825032230
         H           -2.229983316409     1.892092869117    -0.059877414633     1.007825032230
         H           -3.800742316409     3.130094869117    -1.603452414633     1.007825032230
         H           -2.717417316409     2.052535869117    -2.505656414633     1.007825032230
         H           -4.401165316409     1.573535869117    -2.213505414633     1.007825032230

  Basis Set: AUG-CC-PVTZ
    Blend: AUG-CC-PVTZ
  Basis Set: (AUG-CC-PVTZ AUX)
    Blend: AUG-CC-PVTZ-JKFIT
	 Reference Energy          =   -1327.8599198679564779 [Eh]
	 Singles Energy            =      -0.0000000000000000 [Eh]
	 Same-Spin Energy          =      -1.0148709728332199 [Eh]
	 Opposite-Spin Energy      =      -3.0765746598760981 [Eh]
	 Correlation Energy        =      -4.0914456327093180 [Eh]
	 Total Energy              =   -1331.9513655006658155 [Eh]

	 ================> DF-SCS-MP2 Energies <==================
	-----------------------------------------------------------
	 SCS Same-Spin Scale       =       0.3333333333333333 [-]
	 SCS Opposite-Spin Scale   =       1.2000000000000000 [-]
	 SCS Same-Spin Energy      =      -0.3382903242777400 [Eh]
	 SCS Opposite-Spin Energy  =      -3.6918895918513175 [Eh]
	 SCS Correlation Energy    =      -4.0301799161290575 [Eh]
	 SCS Total Energy          =   -1331.8900997840855780 [Eh]
	-----------------------------------------------------------

  Dipole Moment: [D]
     X:    -1.1335      Y:     1.9151      Z:     0.7457     Total:     2.3471

*** Psi4 exiting successfully. Buy a developer a beer!
