                               Psi4 1.3.2 release

  ==> Input File <==

--------------------------------------------------------------------------
#psi4
#
memory 32 gb

molecule  {
0 1
  P       -2.2900960    -0.9400430     0.3446780
  O       -0.9821530    -0.2015620     0.9382890
  O        1.3422500    -1.6754830     1.2308510
  O        0.0787050     2.3596040     0.4621680
  O        3.0685150    -2.1870720    -0.8085900
  O        2.8473350     2.5031130     0.3715350
  O        4.1956880     0.4353970    -0.9728740
  O       -2.8065204     0.0242287    -0.8243756
  O       -3.2440520    -0.7423550     1.6360313
  O       -2.1189930    -2.3436440    -0.0996680
  C        0.1181620     0.0300090     0.0163190
  C        0.9532920    -1.2442050    -0.0757250
  C        0.8985890     1.2026440     0.5648510
  C        2.2596600    -1.0143070    -0.8180370
  C        2.1770750     1.3964720    -0.2280410
  C        3.0258420     0.1487050    -0.2103220
  C       -3.1242130     1.4315980    -0.4888860
  C       -3.5363170     2.0851650    -1.7841190
  H       -0.2830920     0.2988010    -0.9702380
  H        0.3702690    -2.0293640    -0.5720320
  H        1.1571200     0.9978770     1.6121560
  H        2.0609340    -0.7886600    -1.8727560
  H        1.9169870     1.6362870    -1.2735830
  H        3.2958550    -0.0945320     0.8276460
  H        0.5217750    -1.8880320     1.7115100
  H        0.6655400     3.1093110     0.6831840
  H        2.9735430    -2.5473740     0.0946540
  H        3.7214290     2.5491860    -0.0588690
  H        4.6397270    -0.4238340    -1.0970870
  H       -3.8083950    -1.5223380     1.7347280
  H       -3.9305460     1.4455410     0.2493860
  H       -2.2297620     1.8928800    -0.0590960
  H       -3.8005210     3.1308820    -1.6026710
  H       -2.7171960     2.0533230    -2.5048750
  H       -4.4009440     1.5743230    -2.2127240
units angstrom
no_reorient  #important for SAPT in psi4, default
symmetry c1  #important for SAPT in psi4, default
}

set PROPERTIES_ORIGIN ["COM"]
properties('MP2/aug-cc-pvtz', properties = ['dipole'])
--------------------------------------------------------------------------

    Molecular point group: c1
  Charge       = 0
  Multiplicity = 1
  Basis Set: AUG-CC-PVTZ
    Blend: AUG-CC-PVTZ
  Basis Set: (AUG-CC-PVTZ AUX)
    Blend: AUG-CC-PVTZ-JKFIT

    Orbital Energies [Eh]
    ---------------------

    Doubly Occupied:

       1A    -80.116141     2A    -20.614906     3A    -20.605995
       4A    -20.600728     5A    -20.582502     6A    -20.576587
       7A    -20.574210     8A    -20.573823     9A    -20.573414
      10A    -20.520757    11A    -11.319985    12A    -11.302898
      13A    -11.302343    14A    -11.298916    15A    -11.298269
      16A    -11.296412    17A    -11.291118    18A    -11.231296
      19A     -7.631632    20A     -5.530135    21A     -5.529716
      22A     -5.528583    23A     -1.459717    24A     -1.410411
      25A     -1.394671    26A     -1.392894    27A     -1.386253
      28A     -1.372063    29A     -1.363657    30A     -1.353531
      31A     -1.301570    32A     -1.118611    33A     -1.041740
      34A     -1.011652    35A     -1.003031    36A     -0.879881
      37A     -0.864877    38A     -0.858725    39A     -0.823308
      40A     -0.810214    41A     -0.751426    42A     -0.745459
      43A     -0.731855    44A     -0.727360    45A     -0.708021
      46A     -0.686819    47A     -0.677471    48A     -0.673046
      49A     -0.662064    50A     -0.660695    51A     -0.642920
      52A     -0.634383    53A     -0.627415    54A     -0.614901
      55A     -0.603174    56A     -0.598117    57A     -0.580920
      58A     -0.576188    59A     -0.570611    60A     -0.559056
      61A     -0.556314    62A     -0.548310    63A     -0.541395
      64A     -0.536221    65A     -0.530043    66A     -0.521556
      67A     -0.514827    68A     -0.504332    69A     -0.497964
      70A     -0.485109    71A     -0.479628    72A     -0.474883
      73A     -0.461674    74A     -0.455636    75A     -0.449527
      76A     -0.435793

  @DF-RHF Final Energy: -1327.86093987323875

   => Energetics <=

    Nuclear Repulsion Energy =           1772.3742367903666945
    One-Electron Energy =               -5356.9257928710003398
    Two-Electron Energy =                2256.6906162073946689
    Total Energy =                      -1327.8609398732387490
  Basis Set: (AUG-CC-PVTZ AUX)
    Blend: AUG-CC-PVTZ-RI
    Molecular point group: c1

    Geometry (in Angstrom), charge = 0, multiplicity = 1:

       Center              X                  Y                   Z               Mass
    ------------   -----------------  -----------------  -----------------  -----------------
         P           -2.292062236397    -0.938477406332     0.344815934343    30.973761998420
         O           -0.984119236397    -0.199996406332     0.938426934343    15.994914619570
         O            1.340283763603    -1.673917406332     1.230988934343    15.994914619570
         O            0.076738763603     2.361169593668     0.462305934343    15.994914619570
         O            3.066548763603    -2.185506406332    -0.808452065657    15.994914619570
         O            2.845368763603     2.504678593668     0.371672934343    15.994914619570
         O            4.193721763603     0.436962593668    -0.972736065657    15.994914619570
         O           -2.808486636397     0.025794293668    -0.824237665657    15.994914619570
         O           -3.246018236397    -0.740789406332     1.636169234343    15.994914619570
         O           -2.120959236397    -2.342078406332    -0.099530065657    15.994914619570
         C            0.116195763603     0.031574593668     0.016456934343    12.000000000000
         C            0.951325763603    -1.242639406332    -0.075587065657    12.000000000000
         C            0.896622763603     1.204209593668     0.564988934343    12.000000000000
         C            2.257693763603    -1.012741406332    -0.817899065657    12.000000000000
         C            2.175108763603     1.398037593668    -0.227903065657    12.000000000000
         C            3.023875763603     0.150270593668    -0.210184065657    12.000000000000
         C           -3.126179236397     1.433163593668    -0.488748065657    12.000000000000
         C           -3.538283236397     2.086730593668    -1.783981065657    12.000000000000
         H           -0.285058236397     0.300366593668    -0.970100065657     1.007825032230
         H            0.368302763603    -2.027798406332    -0.571894065657     1.007825032230
         H            1.155153763603     0.999442593668     1.612293934343     1.007825032230
         H            2.058967763603    -0.787094406332    -1.872618065657     1.007825032230
         H            1.915020763603     1.637852593668    -1.273445065657     1.007825032230
         H            3.293888763603    -0.092966406332     0.827783934343     1.007825032230
         H            0.519808763603    -1.886466406332     1.711647934343     1.007825032230
         H            0.663573763603     3.110876593668     0.683321934343     1.007825032230
         H            2.971576763603    -2.545808406332     0.094791934343     1.007825032230
         H            3.719462763603     2.550751593668    -0.058731065657     1.007825032230
         H            4.637760763603    -0.422268406332    -1.096949065657     1.007825032230
         H           -3.810361236397    -1.520772406332     1.734865934343     1.007825032230
         H           -3.932512236397     1.447106593668     0.249523934343     1.007825032230
         H           -2.231728236397     1.894445593668    -0.058958065657     1.007825032230
         H           -3.802487236397     3.132447593668    -1.602533065657     1.007825032230
         H           -2.719162236397     2.054888593668    -2.504737065657     1.007825032230
         H           -4.402910236397     1.575888593668    -2.212586065657     1.007825032230

  Basis Set: AUG-CC-PVTZ
    Blend: AUG-CC-PVTZ
  Basis Set: (AUG-CC-PVTZ AUX)
    Blend: AUG-CC-PVTZ-JKFIT
	 Reference Energy          =   -1327.8609398732387490 [Eh]
	 Singles Energy            =      -0.0000000000000000 [Eh]
	 Same-Spin Energy          =      -1.0145487396902924 [Eh]
	 Opposite-Spin Energy      =      -3.0761859787180330 [Eh]
	 Correlation Energy        =      -4.0907347184083251 [Eh]
	 Total Energy              =   -1331.9516745916471336 [Eh]

	 ================> DF-SCS-MP2 Energies <==================
	-----------------------------------------------------------
	 SCS Same-Spin Scale       =       0.3333333333333333 [-]
	 SCS Opposite-Spin Scale   =       1.2000000000000000 [-]
	 SCS Same-Spin Energy      =      -0.3381829132300974 [Eh]
	 SCS Opposite-Spin Energy  =      -3.6914231744616393 [Eh]
	 SCS Correlation Energy    =      -4.0296060876917368 [Eh]
	 SCS Total Energy          =   -1331.8905459609304671 [Eh]
	-----------------------------------------------------------

  Dipole Moment: [D]
     X:    -1.2311      Y:     1.9873      Z:     0.7015     Total:     2.4407

*** Psi4 exiting successfully. Buy a developer a beer!
