                               Psi4 1.3.2 release

  ==> Input File <==

--------------------------------------------------------------------------
#psi4
#
memory 32 gb

molecule  {
0 1
  P       -2.2900960    -0.9400430     0.3446780
  O       -0.9672160    -0.2250705     0.9339538
  O        1.3422500    -1.6754830     1.2308510
  O        0.0787050     2.3596040     0.4621680
  O        3.0685150    -2.1870720    -0.8085900
  O        2.8473350     2.5031130     0.3715350
  O        4.1956880     0.4353970    -0.9728740
  O       -2.8268630     0.0333510    -0.8075310
  O       -3.2591210    -0.7232820     1.6216710
  O       -2.0940618    -2.3425216    -0.0928603
  C        0.1181620     0.0300090     0.0163190
  C        0.9532920    -1.2442050    -0.0757250
  C        0.8985890     1.2026440     0.5648510
  C        2.2596600    -1.0143070    -0.8180370
  C        2.1770750     1.3964720    -0.2280410
  C        3.0258420     0.1487050    -0.2103220
  C       -3.1242130     1.4315980    -0.4888860
  C       -3.5363170     2.0851650    -1.7841190
  H       -0.2830920     0.2988010    -0.9702380
  H        0.3702690    -2.0293640    -0.5720320
  H        1.1571200     0.9978770     1.6121560
  H        2.0609340    -0.7886600    -1.8727560
  H        1.9169870     1.6362870    -1.2735830
  H        3.2958550    -0.0945320     0.8276460
  H        0.5217750    -1.8880320     1.7115100
  H        0.6655400     3.1093110     0.6831840
  H        2.9735430    -2.5473740     0.0946540
  H        3.7214290     2.5491860    -0.0588690
  H        4.6397270    -0.4238340    -1.0970870
  H       -3.8083950    -1.5223380     1.7347280
  H       -3.9305460     1.4455410     0.2493860
  H       -2.2297620     1.8928800    -0.0590960
  H       -3.8005210     3.1308820    -1.6026710
  H       -2.7171960     2.0533230    -2.5048750
  H       -4.4009440     1.5743230    -2.2127240
units angstrom
no_reorient  #important for SAPT in psi4, default
symmetry c1  #important for SAPT in psi4, default
}

set PROPERTIES_ORIGIN ["COM"]
properties('MP2/aug-cc-pvtz', properties = ['dipole'])
--------------------------------------------------------------------------

    Molecular point group: c1
  Charge       = 0
  Multiplicity = 1
  Basis Set: AUG-CC-PVTZ
    Blend: AUG-CC-PVTZ
  Basis Set: (AUG-CC-PVTZ AUX)
    Blend: AUG-CC-PVTZ-JKFIT

    Orbital Energies [Eh]
    ---------------------

    Doubly Occupied:

       1A    -80.117823     2A    -20.616669     3A    -20.605548
       4A    -20.600960     5A    -20.581550     6A    -20.576339
       7A    -20.573419     8A    -20.573389     9A    -20.573291
      10A    -20.522489    11A    -11.319120    12A    -11.301415
      13A    -11.300679    14A    -11.297940    15A    -11.297915
      16A    -11.296111    17A    -11.290601    18A    -11.230708
      19A     -7.633217    20A     -5.531698    21A     -5.531373
      22A     -5.530144    23A     -1.461476    24A     -1.410920
      25A     -1.395289    26A     -1.392407    27A     -1.388449
      28A     -1.372488    29A     -1.363171    30A     -1.353133
      31A     -1.303412    32A     -1.117937    33A     -1.041540
      34A     -1.011229    35A     -1.002395    36A     -0.880456
      37A     -0.865636    38A     -0.858507    39A     -0.823050
      40A     -0.809836    41A     -0.751303    42A     -0.745264
      43A     -0.731434    44A     -0.730275    45A     -0.708141
      46A     -0.687090    47A     -0.677212    48A     -0.674117
      49A     -0.662318    50A     -0.660813    51A     -0.642961
      52A     -0.635036    53A     -0.627326    54A     -0.615395
      55A     -0.604049    56A     -0.597616    57A     -0.581425
      58A     -0.576548    59A     -0.571018    60A     -0.559141
      61A     -0.555723    62A     -0.548857    63A     -0.541637
      64A     -0.535803    65A     -0.530401    66A     -0.521000
      67A     -0.513360    68A     -0.503627    69A     -0.497125
      70A     -0.483940    71A     -0.480307    72A     -0.476489
      73A     -0.461078    74A     -0.455300    75A     -0.448615
      76A     -0.435139

  @DF-RHF Final Energy: -1327.86166615797379

   => Energetics <=

    Nuclear Repulsion Energy =           1773.0484992605724983
    One-Electron Energy =               -5358.2590992793193436
    Two-Electron Energy =                2257.3489338607732861
    Total Energy =                      -1327.8616661579735592
  Basis Set: (AUG-CC-PVTZ AUX)
    Blend: AUG-CC-PVTZ-RI
    Molecular point group: c1

    Geometry (in Angstrom), charge = 0, multiplicity = 1:

       Center              X                  Y                   Z               Mass
    ------------   -----------------  -----------------  -----------------  -----------------
         P           -2.292309694164    -0.938799968747     0.344540702405    30.973761998420
         O           -0.969429694164    -0.223827468747     0.933816502405    15.994914619570
         O            1.340036305836    -1.674239968747     1.230713702405    15.994914619570
         O            0.076491305836     2.360847031253     0.462030702405    15.994914619570
         O            3.066301305836    -2.185828968747    -0.808727297595    15.994914619570
         O            2.845121305836     2.504356031253     0.371397702405    15.994914619570
         O            4.193474305836     0.436640031253    -0.973011297595    15.994914619570
         O           -2.829076694164     0.034594031253    -0.807668297595    15.994914619570
         O           -3.261334694164    -0.722038968747     1.621533702405    15.994914619570
         O           -2.096275494164    -2.341278568747    -0.092997597595    15.994914619570
         C            0.115948305836     0.031252031253     0.016181702405    12.000000000000
         C            0.951078305836    -1.242961968747    -0.075862297595    12.000000000000
         C            0.896375305836     1.203887031253     0.564713702405    12.000000000000
         C            2.257446305836    -1.013063968747    -0.818174297595    12.000000000000
         C            2.174861305836     1.397715031253    -0.228178297595    12.000000000000
         C            3.023628305836     0.149948031253    -0.210459297595    12.000000000000
         C           -3.126426694164     1.432841031253    -0.489023297595    12.000000000000
         C           -3.538530694164     2.086408031253    -1.784256297595    12.000000000000
         H           -0.285305694164     0.300044031253    -0.970375297595     1.007825032230
         H            0.368055305836    -2.028120968747    -0.572169297595     1.007825032230
         H            1.154906305836     0.999120031253     1.612018702405     1.007825032230
         H            2.058720305836    -0.787416968747    -1.872893297595     1.007825032230
         H            1.914773305836     1.637530031253    -1.273720297595     1.007825032230
         H            3.293641305836    -0.093288968747     0.827508702405     1.007825032230
         H            0.519561305836    -1.886788968747     1.711372702405     1.007825032230
         H            0.663326305836     3.110554031253     0.683046702405     1.007825032230
         H            2.971329305836    -2.546130968747     0.094516702405     1.007825032230
         H            3.719215305836     2.550429031253    -0.059006297595     1.007825032230
         H            4.637513305836    -0.422590968747    -1.097224297595     1.007825032230
         H           -3.810608694164    -1.521094968747     1.734590702405     1.007825032230
         H           -3.932759694164     1.446784031253     0.249248702405     1.007825032230
         H           -2.231975694164     1.894123031253    -0.059233297595     1.007825032230
         H           -3.802734694164     3.132125031253    -1.602808297595     1.007825032230
         H           -2.719409694164     2.054566031253    -2.505012297595     1.007825032230
         H           -4.403157694164     1.575566031253    -2.212861297595     1.007825032230

  Basis Set: AUG-CC-PVTZ
    Blend: AUG-CC-PVTZ
  Basis Set: (AUG-CC-PVTZ AUX)
    Blend: AUG-CC-PVTZ-JKFIT
	 Reference Energy          =   -1327.8616661579737865 [Eh]
	 Singles Energy            =      -0.0000000000000000 [Eh]
	 Same-Spin Energy          =      -1.0145331708830581 [Eh]
	 Opposite-Spin Energy      =      -3.0757630699179668 [Eh]
	 Correlation Energy        =      -4.0902962408010248 [Eh]
	 Total Energy              =   -1331.9519623987748673 [Eh]

	 ================> DF-SCS-MP2 Energies <==================
	-----------------------------------------------------------
	 SCS Same-Spin Scale       =       0.3333333333333333 [-]
	 SCS Opposite-Spin Scale   =       1.2000000000000000 [-]
	 SCS Same-Spin Energy      =      -0.3381777236276860 [Eh]
	 SCS Opposite-Spin Energy  =      -3.6909156839015598 [Eh]
	 SCS Correlation Energy    =      -4.0290934075292455 [Eh]
	 SCS Total Energy          =   -1331.8907595655030036 [Eh]
	-----------------------------------------------------------

  Dipole Moment: [D]
     X:    -1.2982      Y:     1.9143      Z:     0.7189     Total:     2.4221

*** Psi4 exiting successfully. Buy a developer a beer!
