                               Psi4 1.3.2 release

  ==> Input File <==

--------------------------------------------------------------------------
#psi4
#
memory 32 gb

molecule  {
0 1
  P       -2.2900960    -0.9400430     0.3446780
  O       -0.9821530    -0.2015620     0.9382890
  O        1.3422500    -1.6754830     1.2308510
  O        0.0787050     2.3596040     0.4621680
  O        3.0685150    -2.1870720    -0.8085900
  O        2.8473350     2.5031130     0.3715350
  O        4.1956880     0.4353970    -0.9728740
  O       -2.8268630     0.0333510    -0.8075310
  O       -3.2591210    -0.7232820     1.6216710
  O       -2.1189930    -2.3436440    -0.0996680
  C        0.1181620     0.0300090     0.0163190
  C        0.9107254    -1.2695770    -0.0952833
  C        0.8553763     1.2325174     0.5599321
  C        2.2596600    -1.0143070    -0.8180370
  C        2.1770750     1.3964720    -0.2280410
  C        3.0258420     0.1487050    -0.2103220
  C       -3.1242130     1.4315980    -0.4888860
  C       -3.5363170     2.0851650    -1.7841190
  H       -0.2830920     0.2988010    -0.9702380
  H        0.3702690    -2.0293640    -0.5720320
  H        1.1571200     0.9978770     1.6121560
  H        2.0609340    -0.7886600    -1.8727560
  H        1.9169870     1.6362870    -1.2735830
  H        3.2958550    -0.0945320     0.8276460
  H        0.5217750    -1.8880320     1.7115100
  H        0.6655400     3.1093110     0.6831840
  H        2.9735430    -2.5473740     0.0946540
  H        3.7214290     2.5491860    -0.0588690
  H        4.6397270    -0.4238340    -1.0970870
  H       -3.8083950    -1.5223380     1.7347280
  H       -3.9305460     1.4455410     0.2493860
  H       -2.2297620     1.8928800    -0.0590960
  H       -3.8005210     3.1308820    -1.6026710
  H       -2.7171960     2.0533230    -2.5048750
  H       -4.4009440     1.5743230    -2.2127240
units angstrom
no_reorient  #important for SAPT in psi4, default
symmetry c1  #important for SAPT in psi4, default
}

set PROPERTIES_ORIGIN ["COM"]
properties('MP2/aug-cc-pvtz', properties = ['dipole'])
--------------------------------------------------------------------------

    Molecular point group: c1
  Charge       = 0
  Multiplicity = 1
  Basis Set: AUG-CC-PVTZ
    Blend: AUG-CC-PVTZ
  Basis Set: (AUG-CC-PVTZ AUX)
    Blend: AUG-CC-PVTZ-JKFIT

    Orbital Energies [Eh]
    ---------------------

    Doubly Occupied:

       1A    -80.116654     2A    -20.614577     3A    -20.605257
       4A    -20.599116     5A    -20.581202     6A    -20.579113
       7A    -20.575798     8A    -20.573733     9A    -20.573264
      10A    -20.523697    11A    -11.320061    12A    -11.303041
      13A    -11.300681    14A    -11.300179    15A    -11.299661
      16A    -11.295580    17A    -11.290998    18A    -11.230459
      19A     -7.632135    20A     -5.530643    21A     -5.530257
      22A     -5.529072    23A     -1.460145    24A     -1.413156
      25A     -1.397563    26A     -1.393697    27A     -1.387035
      28A     -1.375721    29A     -1.364290    30A     -1.353139
      31A     -1.304153    32A     -1.112250    33A     -1.041029
      34A     -1.011512    35A     -0.998218    36A     -0.880070
      37A     -0.865628    38A     -0.860682    39A     -0.821870
      40A     -0.806241    41A     -0.754936    42A     -0.743994
      43A     -0.734690    44A     -0.728464    45A     -0.706883
      46A     -0.691239    47A     -0.675685    48A     -0.672543
      49A     -0.662507    50A     -0.659824    51A     -0.646358
      52A     -0.636450    53A     -0.626489    54A     -0.616222
      55A     -0.605539    56A     -0.599698    57A     -0.584337
      58A     -0.575695    59A     -0.570635    60A     -0.560889
      61A     -0.558038    62A     -0.549380    63A     -0.541903
      64A     -0.537674    65A     -0.528704    66A     -0.518520
      67A     -0.512351    68A     -0.501059    69A     -0.496997
      70A     -0.480639    71A     -0.479667    72A     -0.476090
      73A     -0.459266    74A     -0.455000    75A     -0.446103
      76A     -0.438148

  @DF-RHF Final Energy: -1327.85559258130070

   => Energetics <=

    Nuclear Repulsion Energy =           1771.8738674643248032
    One-Electron Energy =               -5355.8905439126983765
    Two-Electron Energy =                2256.1610838670731027
    Total Energy =                      -1327.8555925813006979
  Basis Set: (AUG-CC-PVTZ AUX)
    Blend: AUG-CC-PVTZ-RI
    Molecular point group: c1

    Geometry (in Angstrom), charge = 0, multiplicity = 1:

       Center              X                  Y                   Z               Mass
    ------------   -----------------  -----------------  -----------------  -----------------
         P           -2.286522586765    -0.940230500929     0.345697658064    30.973761998420
         O           -0.978579586765    -0.201749500929     0.939308658064    15.994914619570
         O            1.345823413235    -1.675670500929     1.231870658064    15.994914619570
         O            0.082278413235     2.359416499071     0.463187658064    15.994914619570
         O            3.072088413235    -2.187259500929    -0.807570341936    15.994914619570
         O            2.850908413235     2.502925499071     0.372554658064    15.994914619570
         O            4.199261413235     0.435209499071    -0.971854341936    15.994914619570
         O           -2.823289586765     0.033163499071    -0.806511341936    15.994914619570
         O           -3.255547586765    -0.723469500929     1.622690658064    15.994914619570
         O           -2.115419586765    -2.343831500929    -0.098648341936    15.994914619570
         C            0.121735413235     0.029821499071     0.017338658064    12.000000000000
         C            0.914298813235    -1.269764500929    -0.094263641936    12.000000000000
         C            0.858949713235     1.232329899071     0.560951758064    12.000000000000
         C            2.263233413235    -1.014494500929    -0.817017341936    12.000000000000
         C            2.180648413235     1.396284499071    -0.227021341936    12.000000000000
         C            3.029415413235     0.148517499071    -0.209302341936    12.000000000000
         C           -3.120639586765     1.431410499071    -0.487866341936    12.000000000000
         C           -3.532743586765     2.084977499071    -1.783099341936    12.000000000000
         H           -0.279518586765     0.298613499071    -0.969218341936     1.007825032230
         H            0.373842413235    -2.029551500929    -0.571012341936     1.007825032230
         H            1.160693413235     0.997689499071     1.613175658064     1.007825032230
         H            2.064507413235    -0.788847500929    -1.871736341936     1.007825032230
         H            1.920560413235     1.636099499071    -1.272563341936     1.007825032230
         H            3.299428413235    -0.094719500929     0.828665658064     1.007825032230
         H            0.525348413235    -1.888219500929     1.712529658064     1.007825032230
         H            0.669113413235     3.109123499071     0.684203658064     1.007825032230
         H            2.977116413235    -2.547561500929     0.095673658064     1.007825032230
         H            3.725002413235     2.548998499071    -0.057849341936     1.007825032230
         H            4.643300413235    -0.424021500929    -1.096067341936     1.007825032230
         H           -3.804821586765    -1.522525500929     1.735747658064     1.007825032230
         H           -3.926972586765     1.445353499071     0.250405658064     1.007825032230
         H           -2.226188586765     1.892692499071    -0.058076341936     1.007825032230
         H           -3.796947586765     3.130694499071    -1.601651341936     1.007825032230
         H           -2.713622586765     2.053135499071    -2.503855341936     1.007825032230
         H           -4.397370586765     1.574135499071    -2.211704341936     1.007825032230

  Basis Set: AUG-CC-PVTZ
    Blend: AUG-CC-PVTZ
  Basis Set: (AUG-CC-PVTZ AUX)
    Blend: AUG-CC-PVTZ-JKFIT
	 Reference Energy          =   -1327.8555925813006979 [Eh]
	 Singles Energy            =      -0.0000000000000000 [Eh]
	 Same-Spin Energy          =      -1.0143804397664982 [Eh]
	 Opposite-Spin Energy      =      -3.0758039539086175 [Eh]
	 Correlation Energy        =      -4.0901843936751154 [Eh]
	 Total Energy              =   -1331.9457769749758427 [Eh]

	 ================> DF-SCS-MP2 Energies <==================
	-----------------------------------------------------------
	 SCS Same-Spin Scale       =       0.3333333333333333 [-]
	 SCS Opposite-Spin Scale   =       1.2000000000000000 [-]
	 SCS Same-Spin Energy      =      -0.3381268132554994 [Eh]
	 SCS Opposite-Spin Energy  =      -3.6909647446903406 [Eh]
	 SCS Correlation Energy    =      -4.0290915579458400 [Eh]
	 SCS Total Energy          =   -1331.8846841392464739 [Eh]
	-----------------------------------------------------------

  Dipole Moment: [D]
     X:    -1.2414      Y:     2.0000      Z:     0.6746     Total:     2.4487

*** Psi4 exiting successfully. Buy a developer a beer!
