                               Psi4 1.3.2 release

  ==> Input File <==

--------------------------------------------------------------------------
#psi4
#
memory 32 gb

molecule  {
0 1
  P       -2.2900960    -0.9400430     0.3446780
  O       -0.9821530    -0.2015620     0.9382890
  O        1.3422500    -1.6754830     1.2308510
  O        0.0787050     2.3596040     0.4621680
  O        3.0685150    -2.1870720    -0.8085900
  O        2.8524185     2.4633825     0.4345353
  O        4.1956880     0.4353970    -0.9728740
  O       -2.8268630     0.0333510    -0.8075310
  O       -3.2591210    -0.7232820     1.6216710
  O       -2.1189930    -2.3436440    -0.0996680
  C        0.1181620     0.0300090     0.0163190
  C        0.9532920    -1.2442050    -0.0757250
  C        0.8985890     1.2026440     0.5648510
  C        2.2596600    -1.0143070    -0.8180370
  C        2.1770750     1.3964720    -0.2280410
  C        3.0258420     0.1487050    -0.2103220
  C       -3.1242130     1.4315980    -0.4888860
  C       -3.5363170     2.0851650    -1.7841190
  H       -0.2830920     0.2988010    -0.9702380
  H        0.3702690    -2.0293640    -0.5720320
  H        1.1571200     0.9978770     1.6121560
  H        2.0609340    -0.7886600    -1.8727560
  H        1.8933942     1.5837356    -1.2781708
  H        3.2958550    -0.0945320     0.8276460
  H        0.5217750    -1.8880320     1.7115100
  H        0.6655400     3.1093110     0.6831840
  H        2.9735430    -2.5473740     0.0946540
  H        3.7214290     2.5491860    -0.0588690
  H        4.6397270    -0.4238340    -1.0970870
  H       -3.8083950    -1.5223380     1.7347280
  H       -3.9305460     1.4455410     0.2493860
  H       -2.2297620     1.8928800    -0.0590960
  H       -3.8005210     3.1308820    -1.6026710
  H       -2.7171960     2.0533230    -2.5048750
  H       -4.4009440     1.5743230    -2.2127240
units angstrom
no_reorient  #important for SAPT in psi4, default
symmetry c1  #important for SAPT in psi4, default
}

set PROPERTIES_ORIGIN ["COM"]
properties('MP2/aug-cc-pvtz', properties = ['dipole'])
--------------------------------------------------------------------------

    Molecular point group: c1
  Charge       = 0
  Multiplicity = 1
  Basis Set: AUG-CC-PVTZ
    Blend: AUG-CC-PVTZ
  Basis Set: (AUG-CC-PVTZ AUX)
    Blend: AUG-CC-PVTZ-JKFIT

    Orbital Energies [Eh]
    ---------------------

    Doubly Occupied:

       1A    -80.116668     2A    -20.614511     3A    -20.606592
       4A    -20.598798     5A    -20.582540     6A    -20.582246
       7A    -20.573948     8A    -20.573679     9A    -20.573487
      10A    -20.523185    11A    -11.320056    12A    -11.303000
      13A    -11.299338    14A    -11.298482    15A    -11.297510
      16A    -11.296782    17A    -11.289662    18A    -11.229906
      19A     -7.632122    20A     -5.530628    21A     -5.530254
      22A     -5.529053    23A     -1.459993    24A     -1.410315
      25A     -1.393870    26A     -1.392378    27A     -1.386682
      28A     -1.372337    29A     -1.362876    30A     -1.352479
      31A     -1.303584    32A     -1.118460    33A     -1.040435
      34A     -1.011322    35A     -1.002540    36A     -0.879433
      37A     -0.864554    38A     -0.858469    39A     -0.821145
      40A     -0.810381    41A     -0.751905    42A     -0.744527
      43A     -0.731413    44A     -0.727804    45A     -0.705974
      46A     -0.686754    47A     -0.677528    48A     -0.673438
      49A     -0.662544    50A     -0.659372    51A     -0.642135
      52A     -0.634571    53A     -0.627093    54A     -0.614863
      55A     -0.601420    56A     -0.598063    57A     -0.580884
      58A     -0.575355    59A     -0.570567    60A     -0.559756
      61A     -0.556620    62A     -0.547820    63A     -0.541258
      64A     -0.537020    65A     -0.529762    66A     -0.520997
      67A     -0.514214    68A     -0.503934    69A     -0.497005
      70A     -0.484164    71A     -0.479714    72A     -0.476360
      73A     -0.463172    74A     -0.454821    75A     -0.450037
      76A     -0.434961

  @DF-RHF Final Energy: -1327.85665332283861

   => Energetics <=

    Nuclear Repulsion Energy =           1772.9646445451317049
    One-Electron Energy =               -5358.1195451618750667
    Two-Electron Energy =                2257.2982472939047511
    Total Energy =                      -1327.8566533228386106
  Basis Set: (AUG-CC-PVTZ AUX)
    Blend: AUG-CC-PVTZ-RI
    Molecular point group: c1

    Geometry (in Angstrom), charge = 0, multiplicity = 1:

       Center              X                  Y                   Z               Mass
    ------------   -----------------  -----------------  -----------------  -----------------
         P           -2.290295691288    -0.937653042258     0.341195878810    30.973761998420
         O           -0.982352691288    -0.199172042258     0.934806878810    15.994914619570
         O            1.342050308712    -1.673093042258     1.227368878810    15.994914619570
         O            0.078505308712     2.361993957742     0.458685878810    15.994914619570
         O            3.068315308712    -2.184682042258    -0.812072121190    15.994914619570
         O            2.852218808712     2.465772457742     0.431053178810    15.994914619570
         O            4.195488308712     0.437786957742    -0.976356121190    15.994914619570
         O           -2.827062691288     0.035740957742    -0.811013121190    15.994914619570
         O           -3.259320691288    -0.720892042258     1.618188878810    15.994914619570
         O           -2.119192691288    -2.341254042258    -0.103150121190    15.994914619570
         C            0.117962308712     0.032398957742     0.012836878810    12.000000000000
         C            0.953092308712    -1.241815042258    -0.079207121190    12.000000000000
         C            0.898389308712     1.205033957742     0.561368878810    12.000000000000
         C            2.259460308712    -1.011917042258    -0.821519121190    12.000000000000
         C            2.176875308712     1.398861957742    -0.231523121190    12.000000000000
         C            3.025642308712     0.151094957742    -0.213804121190    12.000000000000
         C           -3.124412691288     1.433987957742    -0.492368121190    12.000000000000
         C           -3.536516691288     2.087554957742    -1.787601121190    12.000000000000
         H           -0.283291691288     0.301190957742    -0.973720121190     1.007825032230
         H            0.370069308712    -2.026974042258    -0.575514121190     1.007825032230
         H            1.156920308712     1.000266957742     1.608673878810     1.007825032230
         H            2.060734308712    -0.786270042258    -1.876238121190     1.007825032230
         H            1.893194508712     1.586125557742    -1.281652921190     1.007825032230
         H            3.295655308712    -0.092142042258     0.824163878810     1.007825032230
         H            0.521575308712    -1.885642042258     1.708027878810     1.007825032230
         H            0.665340308712     3.111700957742     0.679701878810     1.007825032230
         H            2.973343308712    -2.544984042258     0.091171878810     1.007825032230
         H            3.721229308712     2.551575957742    -0.062351121190     1.007825032230
         H            4.639527308712    -0.421444042258    -1.100569121190     1.007825032230
         H           -3.808594691288    -1.519948042258     1.731245878810     1.007825032230
         H           -3.930745691288     1.447930957742     0.245903878810     1.007825032230
         H           -2.229961691288     1.895269957742    -0.062578121190     1.007825032230
         H           -3.800720691288     3.133271957742    -1.606153121190     1.007825032230
         H           -2.717395691288     2.055712957742    -2.508357121190     1.007825032230
         H           -4.401143691288     1.576712957742    -2.216206121190     1.007825032230

  Basis Set: AUG-CC-PVTZ
    Blend: AUG-CC-PVTZ
  Basis Set: (AUG-CC-PVTZ AUX)
    Blend: AUG-CC-PVTZ-JKFIT
	 Reference Energy          =   -1327.8566533228386106 [Eh]
	 Singles Energy            =      -0.0000000000000000 [Eh]
	 Same-Spin Energy          =      -1.0152836370539684 [Eh]
	 Opposite-Spin Energy      =      -3.0775636138562277 [Eh]
	 Correlation Energy        =      -4.0928472509101965 [Eh]
	 Total Energy              =   -1331.9495005737487645 [Eh]

	 ================> DF-SCS-MP2 Energies <==================
	-----------------------------------------------------------
	 SCS Same-Spin Scale       =       0.3333333333333333 [-]
	 SCS Opposite-Spin Scale   =       1.2000000000000000 [-]
	 SCS Same-Spin Energy      =      -0.3384278790179894 [Eh]
	 SCS Opposite-Spin Energy  =      -3.6930763366274730 [Eh]
	 SCS Correlation Energy    =      -4.0315042156454624 [Eh]
	 SCS Total Energy          =   -1331.8881575384841653 [Eh]
	-----------------------------------------------------------

  Dipole Moment: [D]
     X:    -1.1096      Y:     1.9872      Z:     0.6290     Total:     2.3613

*** Psi4 exiting successfully. Buy a developer a beer!
