                               Psi4 1.3.2 release

  ==> Input File <==

--------------------------------------------------------------------------
#psi4
#
memory 32 gb

molecule  {
0 1
  P       -2.2900960    -0.9400430     0.3446780
  O       -0.9821530    -0.2015620     0.9382890
  O        1.3422500    -1.6754830     1.2308510
  O        0.0787050     2.3596040     0.4621680
  O        3.0685150    -2.1870720    -0.8085900
  O        2.9057134     2.4583496     0.3842467
  O        4.1956880     0.4353970    -0.9728740
  O       -2.8268630     0.0333510    -0.8075310
  O       -3.2591210    -0.7232820     1.6216710
  O       -2.1189930    -2.3436440    -0.0996680
  C        0.1181620     0.0300090     0.0163190
  C        0.9532920    -1.2442050    -0.0757250
  C        0.8985890     1.2026440     0.5648510
  C        2.2596600    -1.0143070    -0.8180370
  C        2.1770750     1.3964720    -0.2280410
  C        3.0825025     0.1902618    -0.1741906
  C       -3.1242130     1.4315980    -0.4888860
  C       -3.5363170     2.0851650    -1.7841190
  H       -0.2830920     0.2988010    -0.9702380
  H        0.3702690    -2.0293640    -0.5720320
  H        1.1571200     0.9978770     1.6121560
  H        2.0609340    -0.7886600    -1.8727560
  H        1.9169870     1.6362870    -1.2735830
  H        3.2958550    -0.0945320     0.8276460
  H        0.5217750    -1.8880320     1.7115100
  H        0.6655400     3.1093110     0.6831840
  H        2.9735430    -2.5473740     0.0946540
  H        3.7214290     2.5491860    -0.0588690
  H        4.6397270    -0.4238340    -1.0970870
  H       -3.8083950    -1.5223380     1.7347280
  H       -3.9305460     1.4455410     0.2493860
  H       -2.2297620     1.8928800    -0.0590960
  H       -3.8005210     3.1308820    -1.6026710
  H       -2.7171960     2.0533230    -2.5048750
  H       -4.4009440     1.5743230    -2.2127240
units angstrom
no_reorient  #important for SAPT in psi4, default
symmetry c1  #important for SAPT in psi4, default
}

set PROPERTIES_ORIGIN ["COM"]
properties('MP2/aug-cc-pvtz', properties = ['dipole'])
--------------------------------------------------------------------------

    Molecular point group: c1
  Charge       = 0
  Multiplicity = 1
  Basis Set: AUG-CC-PVTZ
    Blend: AUG-CC-PVTZ
  Basis Set: (AUG-CC-PVTZ AUX)
    Blend: AUG-CC-PVTZ-JKFIT

    Orbital Energies [Eh]
    ---------------------

    Doubly Occupied:

       1A    -80.116814     2A    -20.614636     3A    -20.606906
       4A    -20.598941     5A    -20.581951     6A    -20.575733
       7A    -20.575471     8A    -20.571807     9A    -20.568701
      10A    -20.523146    11A    -11.320695    12A    -11.301371
      13A    -11.300154    14A    -11.299575    15A    -11.297107
      16A    -11.296523    17A    -11.288488    18A    -11.230048
      19A     -7.632260    20A     -5.530766    21A     -5.530396
      22A     -5.529189    23A     -1.460176    24A     -1.412290
      25A     -1.399561    26A     -1.392591    27A     -1.386982
      28A     -1.376126    29A     -1.366237    30A     -1.356752
      31A     -1.303551    32A     -1.113905    33A     -1.040543
      34A     -1.009833    35A     -0.998024    36A     -0.880524
      37A     -0.865496    38A     -0.856747    39A     -0.824070
      40A     -0.810437    41A     -0.753946    42A     -0.746048
      43A     -0.731779    44A     -0.729407    45A     -0.711197
      46A     -0.688205    47A     -0.677332    48A     -0.674510
      49A     -0.665174    50A     -0.659574    51A     -0.647207
      52A     -0.637284    53A     -0.626846    54A     -0.614394
      55A     -0.603229    56A     -0.599640    57A     -0.582199
      58A     -0.575524    59A     -0.570598    60A     -0.559453
      61A     -0.556497    62A     -0.548540    63A     -0.541037
      64A     -0.534669    65A     -0.530121    66A     -0.522731
      67A     -0.513593    68A     -0.506215    69A     -0.497258
      70A     -0.485084    71A     -0.479765    72A     -0.476331
      73A     -0.464202    74A     -0.456618    75A     -0.449640
      76A     -0.417272

  @DF-RHF Final Energy: -1327.85666269476474

   => Energetics <=

    Nuclear Repulsion Energy =           1771.5890600145426106
    One-Electron Energy =               -5355.3361691874515600
    Two-Electron Energy =                2255.8904464781439856
    Total Energy =                      -1327.8566626947649638
  Basis Set: (AUG-CC-PVTZ AUX)
    Blend: AUG-CC-PVTZ-RI
    Molecular point group: c1

    Geometry (in Angstrom), charge = 0, multiplicity = 1:

       Center              X                  Y                   Z               Mass
    ------------   -----------------  -----------------  -----------------  -----------------
         P           -2.295697848075    -0.939288610347     0.342467003118    30.973761998420
         O           -0.987754848075    -0.200807610347     0.936078003118    15.994914619570
         O            1.336648151925    -1.674728610347     1.228640003118    15.994914619570
         O            0.073103151925     2.360358389653     0.459957003118    15.994914619570
         O            3.062913151925    -2.186317610347    -0.810800996882    15.994914619570
         O            2.900111551925     2.459103989653     0.382035703118    15.994914619570
         O            4.190086151925     0.436151389653    -0.975084996882    15.994914619570
         O           -2.832464848075     0.034105389653    -0.809741996882    15.994914619570
         O           -3.264722848075    -0.722527610347     1.619460003118    15.994914619570
         O           -2.124594848075    -2.342889610347    -0.101878996882    15.994914619570
         C            0.112560151925     0.030763389653     0.014108003118    12.000000000000
         C            0.947690151925    -1.243450610347    -0.077935996882    12.000000000000
         C            0.892987151925     1.203398389653     0.562640003118    12.000000000000
         C            2.254058151925    -1.013552610347    -0.820247996882    12.000000000000
         C            2.171473151925     1.397226389653    -0.230251996882    12.000000000000
         C            3.076900651925     0.191016189653    -0.176401596882    12.000000000000
         C           -3.129814848075     1.432352389653    -0.491096996882    12.000000000000
         C           -3.541918848075     2.085919389653    -1.786329996882    12.000000000000
         H           -0.288693848075     0.299555389653    -0.972448996882     1.007825032230
         H            0.364667151925    -2.028609610347    -0.574242996882     1.007825032230
         H            1.151518151925     0.998631389653     1.609945003118     1.007825032230
         H            2.055332151925    -0.787905610347    -1.874966996882     1.007825032230
         H            1.911385151925     1.637041389653    -1.275793996882     1.007825032230
         H            3.290253151925    -0.093777610347     0.825435003118     1.007825032230
         H            0.516173151925    -1.887277610347     1.709299003118     1.007825032230
         H            0.659938151925     3.110065389653     0.680973003118     1.007825032230
         H            2.967941151925    -2.546619610347     0.092443003118     1.007825032230
         H            3.715827151925     2.549940389653    -0.061079996882     1.007825032230
         H            4.634125151925    -0.423079610347    -1.099297996882     1.007825032230
         H           -3.813996848075    -1.521583610347     1.732517003118     1.007825032230
         H           -3.936147848075     1.446295389653     0.247175003118     1.007825032230
         H           -2.235363848075     1.893634389653    -0.061306996882     1.007825032230
         H           -3.806122848075     3.131636389653    -1.604881996882     1.007825032230
         H           -2.722797848075     2.054077389653    -2.507085996882     1.007825032230
         H           -4.406545848075     1.575077389653    -2.214934996882     1.007825032230

  Basis Set: AUG-CC-PVTZ
    Blend: AUG-CC-PVTZ
  Basis Set: (AUG-CC-PVTZ AUX)
    Blend: AUG-CC-PVTZ-JKFIT
	 Reference Energy          =   -1327.8566626947647364 [Eh]
	 Singles Energy            =      -0.0000000000000000 [Eh]
	 Same-Spin Energy          =      -1.0136139727632443 [Eh]
	 Opposite-Spin Energy      =      -3.0740673676645196 [Eh]
	 Correlation Energy        =      -4.0876813404277641 [Eh]
	 Total Energy              =   -1331.9443440351924437 [Eh]

	 ================> DF-SCS-MP2 Energies <==================
	-----------------------------------------------------------
	 SCS Same-Spin Scale       =       0.3333333333333333 [-]
	 SCS Opposite-Spin Scale   =       1.2000000000000000 [-]
	 SCS Same-Spin Energy      =      -0.3378713242544147 [Eh]
	 SCS Opposite-Spin Energy  =      -3.6888808411974234 [Eh]
	 SCS Correlation Energy    =      -4.0267521654518381 [Eh]
	 SCS Total Energy          =   -1331.8834148602165897 [Eh]
	-----------------------------------------------------------

  Dipole Moment: [D]
     X:    -1.1235      Y:     1.9926      Z:     0.6699     Total:     2.3836

*** Psi4 exiting successfully. Buy a developer a beer!
