                               Psi4 1.3.2 release

  ==> Input File <==

--------------------------------------------------------------------------
#psi4
#
memory 32 gb

molecule  {
0 1
  P       -2.2900960    -0.9400430     0.3446780
  O       -0.9821530    -0.2015620     0.9382890
  O        1.3422500    -1.6754830     1.2308510
  O        0.0787050     2.3596040     0.4621680
  O        3.0685150    -2.1870720    -0.8085900
  O        2.8473350     2.5031130     0.3715350
  O        4.1956880     0.4353970    -0.9728740
  O       -2.7598090    -0.0882473    -0.6635948
  O       -3.2591210    -0.7232820     1.6216710
  O       -2.1189930    -2.3436440    -0.0996680
  C        0.1181620     0.0300090     0.0163190
  C        0.9532920    -1.2442050    -0.0757250
  C        0.8985890     1.2026440     0.5648510
  C        2.2596600    -1.0143070    -0.8180370
  C        2.1770750     1.3964720    -0.2280410
  C        3.0258420     0.1487050    -0.2103220
  C       -3.1242130     1.4315980    -0.4888860
  C       -3.5363170     2.0851650    -1.7841190
  H       -0.2830920     0.2988010    -0.9702380
  H        0.3702690    -2.0293640    -0.5720320
  H        1.1571200     0.9978770     1.6121560
  H        2.0609340    -0.7886600    -1.8727560
  H        1.9169870     1.6362870    -1.2735830
  H        3.2958550    -0.0945320     0.8276460
  H        0.5217750    -1.8880320     1.7115100
  H        0.6655400     3.1093110     0.6831840
  H        2.9735430    -2.5473740     0.0946540
  H        3.7214290     2.5491860    -0.0588690
  H        4.6397270    -0.4238340    -1.0970870
  H       -3.8083950    -1.5223380     1.7347280
  H       -3.9305460     1.4455410     0.2493860
  H       -2.2297620     1.8928800    -0.0590960
  H       -3.8005210     3.1308820    -1.6026710
  H       -2.7171960     2.0533230    -2.5048750
  H       -4.4009440     1.5743230    -2.2127240
units angstrom
no_reorient  #important for SAPT in psi4, default
symmetry c1  #important for SAPT in psi4, default
}

set PROPERTIES_ORIGIN ["COM"]
properties('MP2/aug-cc-pvtz', properties = ['dipole'])
--------------------------------------------------------------------------

    Molecular point group: c1
  Charge       = 0
  Multiplicity = 1
  Basis Set: AUG-CC-PVTZ
    Blend: AUG-CC-PVTZ
  Basis Set: (AUG-CC-PVTZ AUX)
    Blend: AUG-CC-PVTZ-JKFIT

    Orbital Energies [Eh]
    ---------------------

    Doubly Occupied:

       1A    -80.077528     2A    -20.595037     3A    -20.593493
       4A    -20.588110     5A    -20.577154     6A    -20.575031
       7A    -20.573107     8A    -20.571779     9A    -20.571038
      10A    -20.498719    11A    -11.332820    12A    -11.314261
      13A    -11.297578    14A    -11.295448    15A    -11.295319
      16A    -11.294232    17A    -11.288630    18A    -11.250956
      19A     -7.600707    20A     -5.500429    21A     -5.498091
      22A     -5.496782    23A     -1.484869    24A     -1.408806
      25A     -1.392975    26A     -1.390214    27A     -1.381929
      28A     -1.366604    29A     -1.361208    30A     -1.350736
      31A     -1.282299    32A     -1.114538    33A     -1.067598
      34A     -1.006785    35A     -0.999593    36A     -0.893231
      37A     -0.868891    38A     -0.855150    39A     -0.813454
      40A     -0.805226    41A     -0.748621    42A     -0.743953
      43A     -0.732880    44A     -0.729491    45A     -0.704317
      46A     -0.687029    47A     -0.676263    48A     -0.669418
      49A     -0.659445    50A     -0.657226    51A     -0.638772
      52A     -0.636901    53A     -0.631245    54A     -0.614781
      55A     -0.600808    56A     -0.595618    57A     -0.584526
      58A     -0.582514    59A     -0.572892    60A     -0.556938
      61A     -0.554823    62A     -0.551067    63A     -0.542348
      64A     -0.535179    65A     -0.531121    66A     -0.522653
      67A     -0.515227    68A     -0.510702    69A     -0.500376
      70A     -0.485397    71A     -0.473855    72A     -0.457098
      73A     -0.454885    74A     -0.453678    75A     -0.441850
      76A     -0.431040

  @DF-RHF Final Energy: -1327.83197088036059

   => Energetics <=

    Nuclear Repulsion Energy =           1779.8145294898122302
    One-Electron Energy =               -5372.2624182747558734
    Two-Electron Energy =                2264.6159179045830570
    Total Energy =                      -1327.8319708803605863
  Basis Set: (AUG-CC-PVTZ AUX)
    Blend: AUG-CC-PVTZ-RI
    Molecular point group: c1

    Geometry (in Angstrom), charge = 0, multiplicity = 1:

       Center              X                  Y                   Z               Mass
    ------------   -----------------  -----------------  -----------------  -----------------
         P           -2.293819216525    -0.933291098880     0.336685770105    30.973761998420
         O           -0.985876216525    -0.194810098880     0.930296770105    15.994914619570
         O            1.338526783475    -1.668731098880     1.222858770105    15.994914619570
         O            0.074981783475     2.366355901120     0.454175770105    15.994914619570
         O            3.064791783475    -2.180320098880    -0.816582229895    15.994914619570
         O            2.843611783475     2.509864901120     0.363542770105    15.994914619570
         O            4.191964783475     0.442148901120    -0.980866229895    15.994914619570
         O           -2.763532216525    -0.081495398880    -0.671587029895    15.994914619570
         O           -3.262844216525    -0.716530098880     1.613678770105    15.994914619570
         O           -2.122716216525    -2.336892098880    -0.107660229895    15.994914619570
         C            0.114438783475     0.036760901120     0.008326770105    12.000000000000
         C            0.949568783475    -1.237453098880    -0.083717229895    12.000000000000
         C            0.894865783475     1.209395901120     0.556858770105    12.000000000000
         C            2.255936783475    -1.007555098880    -0.826029229895    12.000000000000
         C            2.173351783475     1.403223901120    -0.236033229895    12.000000000000
         C            3.022118783475     0.155456901120    -0.218314229895    12.000000000000
         C           -3.127936216525     1.438349901120    -0.496878229895    12.000000000000
         C           -3.540040216525     2.091916901120    -1.792111229895    12.000000000000
         H           -0.286815216525     0.305552901120    -0.978230229895     1.007825032230
         H            0.366545783475    -2.022612098880    -0.580024229895     1.007825032230
         H            1.153396783475     1.004628901120     1.604163770105     1.007825032230
         H            2.057210783475    -0.781908098880    -1.880748229895     1.007825032230
         H            1.913263783475     1.643038901120    -1.281575229895     1.007825032230
         H            3.292131783475    -0.087780098880     0.819653770105     1.007825032230
         H            0.518051783475    -1.881280098880     1.703517770105     1.007825032230
         H            0.661816783475     3.116062901120     0.675191770105     1.007825032230
         H            2.969819783475    -2.540622098880     0.086661770105     1.007825032230
         H            3.717705783475     2.555937901120    -0.066861229895     1.007825032230
         H            4.636003783475    -0.417082098880    -1.105079229895     1.007825032230
         H           -3.812118216525    -1.515586098880     1.726735770105     1.007825032230
         H           -3.934269216525     1.452292901120     0.241393770105     1.007825032230
         H           -2.233485216525     1.899631901120    -0.067088229895     1.007825032230
         H           -3.804244216525     3.137633901120    -1.610663229895     1.007825032230
         H           -2.720919216525     2.060074901120    -2.512867229895     1.007825032230
         H           -4.404667216525     1.581074901120    -2.220716229895     1.007825032230

  Basis Set: AUG-CC-PVTZ
    Blend: AUG-CC-PVTZ
  Basis Set: (AUG-CC-PVTZ AUX)
    Blend: AUG-CC-PVTZ-JKFIT
	 Reference Energy          =   -1327.8319708803605863 [Eh]
	 Singles Energy            =      -0.0000000000000000 [Eh]
	 Same-Spin Energy          =      -1.0119245200330689 [Eh]
	 Opposite-Spin Energy      =      -3.0697049843641686 [Eh]
	 Correlation Energy        =      -4.0816295043972373 [Eh]
	 Total Energy              =   -1331.9136003847577285 [Eh]

	 ================> DF-SCS-MP2 Energies <==================
	-----------------------------------------------------------
	 SCS Same-Spin Scale       =       0.3333333333333333 [-]
	 SCS Opposite-Spin Scale   =       1.2000000000000000 [-]
	 SCS Same-Spin Energy      =      -0.3373081733443563 [Eh]
	 SCS Opposite-Spin Energy  =      -3.6836459812370022 [Eh]
	 SCS Correlation Energy    =      -4.0209541545813581 [Eh]
	 SCS Total Energy          =   -1331.8529250349420181 [Eh]
	-----------------------------------------------------------

  Dipole Moment: [D]
     X:    -1.9018      Y:     3.1689      Z:    -0.1410     Total:     3.6984

*** Psi4 exiting successfully. Buy a developer a beer!
