                               Psi4 1.3.2 release

  ==> Input File <==

--------------------------------------------------------------------------
#psi4
#
memory 32 gb

molecule  {
0 1
  P       -2.2900960    -0.9400430     0.3446780
  O       -0.9821530    -0.2015620     0.9382890
  O        1.3422500    -1.6754830     1.2308510
  O        0.0787050     2.3596040     0.4621680
  O        3.0685150    -2.1870720    -0.8085900
  O        2.8473350     2.5031130     0.3715350
  O        4.1956880     0.4353970    -0.9728740
  O       -2.8939170     0.1549493    -0.9514672
  O       -3.2591210    -0.7232820     1.6216710
  O       -2.1189930    -2.3436440    -0.0996680
  C        0.1181620     0.0300090     0.0163190
  C        0.9532920    -1.2442050    -0.0757250
  C        0.8985890     1.2026440     0.5648510
  C        2.2596600    -1.0143070    -0.8180370
  C        2.1770750     1.3964720    -0.2280410
  C        3.0258420     0.1487050    -0.2103220
  C       -3.1242130     1.4315980    -0.4888860
  C       -3.5363170     2.0851650    -1.7841190
  H       -0.2830920     0.2988010    -0.9702380
  H        0.3702690    -2.0293640    -0.5720320
  H        1.1571200     0.9978770     1.6121560
  H        2.0609340    -0.7886600    -1.8727560
  H        1.9169870     1.6362870    -1.2735830
  H        3.2958550    -0.0945320     0.8276460
  H        0.5217750    -1.8880320     1.7115100
  H        0.6655400     3.1093110     0.6831840
  H        2.9735430    -2.5473740     0.0946540
  H        3.7214290     2.5491860    -0.0588690
  H        4.6397270    -0.4238340    -1.0970870
  H       -3.8083950    -1.5223380     1.7347280
  H       -3.9305460     1.4455410     0.2493860
  H       -2.2297620     1.8928800    -0.0590960
  H       -3.8005210     3.1308820    -1.6026710
  H       -2.7171960     2.0533230    -2.5048750
  H       -4.4009440     1.5743230    -2.2127240
units angstrom
no_reorient  #important for SAPT in psi4, default
symmetry c1  #important for SAPT in psi4, default
}

set PROPERTIES_ORIGIN ["COM"]
properties('MP2/aug-cc-pvtz', properties = ['dipole'])
--------------------------------------------------------------------------

    Molecular point group: c1
  Charge       = 0
  Multiplicity = 1
  Basis Set: AUG-CC-PVTZ
    Blend: AUG-CC-PVTZ
  Basis Set: (AUG-CC-PVTZ AUX)
    Blend: AUG-CC-PVTZ-JKFIT

    Orbital Energies [Eh]
    ---------------------

    Doubly Occupied:

       1A    -80.138429     2A    -20.629574     3A    -20.621601
       4A    -20.596676     5A    -20.587768     6A    -20.578306
       7A    -20.577413     8A    -20.575978     9A    -20.574067
      10A    -20.540422    11A    -11.326109    12A    -11.308196
      13A    -11.302424    14A    -11.301435    15A    -11.298726
      16A    -11.293712    17A    -11.274910    18A    -11.213696
      19A     -7.651927    20A     -5.550301    21A     -5.549570
      22A     -5.548726    23A     -1.461516    24A     -1.415757
      25A     -1.401170    26A     -1.395861    27A     -1.383213
      28A     -1.376432    29A     -1.366195    30A     -1.356041
      31A     -1.318954    32A     -1.122742    33A     -1.018611
      34A     -1.011168    35A     -1.006535    36A     -0.883873
      37A     -0.862282    38A     -0.845930    39A     -0.830376
      40A     -0.814323    41A     -0.754937    42A     -0.748033
      43A     -0.734325    44A     -0.725681    45A     -0.710253
      46A     -0.689261    47A     -0.682217    48A     -0.676125
      49A     -0.667241    50A     -0.663326    51A     -0.646932
      52A     -0.639548    53A     -0.628247    54A     -0.611299
      55A     -0.607246    56A     -0.600927    57A     -0.588981
      58A     -0.577259    59A     -0.572208    60A     -0.564263
      61A     -0.559415    62A     -0.542614    63A     -0.539449
      64A     -0.532862    65A     -0.529800    66A     -0.522389
      67A     -0.508834    68A     -0.506353    69A     -0.502743
      70A     -0.490343    71A     -0.469954    72A     -0.461935
      73A     -0.460562    74A     -0.457332    75A     -0.453975
      76A     -0.439497

  @DF-RHF Final Energy: -1327.82336555743677

   => Energetics <=

    Nuclear Repulsion Energy =           1766.5480437542732943
    One-Electron Energy =               -5344.7882019631870207
    Two-Electron Energy =                2250.4167926514769533
    Total Energy =                      -1327.8233655574367731
  Basis Set: (AUG-CC-PVTZ AUX)
    Blend: AUG-CC-PVTZ-RI
    Molecular point group: c1

    Geometry (in Angstrom), charge = 0, multiplicity = 1:

       Center              X                  Y                   Z               Mass
    ------------   -----------------  -----------------  -----------------  -----------------
         P           -2.286372717807    -0.946794865772     0.352670211434    30.973761998420
         O           -0.978429717807    -0.208313865772     0.946281211434    15.994914619570
         O            1.345973282193    -1.682234865772     1.238843211434    15.994914619570
         O            0.082428282193     2.352852134228     0.470160211434    15.994914619570
         O            3.072238282193    -2.193823865772    -0.800597788566    15.994914619570
         O            2.851058282193     2.496361134228     0.379527211434    15.994914619570
         O            4.199411282193     0.428645134228    -0.964881788566    15.994914619570
         O           -2.890193717807     0.148197434228    -0.943474988566    15.994914619570
         O           -3.255397717807    -0.730033865772     1.629663211434    15.994914619570
         O           -2.115269717807    -2.350395865772    -0.091675788566    15.994914619570
         C            0.121885282193     0.023257134228     0.024311211434    12.000000000000
         C            0.957015282193    -1.250956865772    -0.067732788566    12.000000000000
         C            0.902312282193     1.195892134228     0.572843211434    12.000000000000
         C            2.263383282193    -1.021058865772    -0.810044788566    12.000000000000
         C            2.180798282193     1.389720134228    -0.220048788566    12.000000000000
         C            3.029565282193     0.141953134228    -0.202329788566    12.000000000000
         C           -3.120489717807     1.424846134228    -0.480893788566    12.000000000000
         C           -3.532593717807     2.078413134228    -1.776126788566    12.000000000000
         H           -0.279368717807     0.292049134228    -0.962245788566     1.007825032230
         H            0.373992282193    -2.036115865772    -0.564039788566     1.007825032230
         H            1.160843282193     0.991125134228     1.620148211434     1.007825032230
         H            2.064657282193    -0.795411865772    -1.864763788566     1.007825032230
         H            1.920710282193     1.629535134228    -1.265590788566     1.007825032230
         H            3.299578282193    -0.101283865772     0.835638211434     1.007825032230
         H            0.525498282193    -1.894783865772     1.719502211434     1.007825032230
         H            0.669263282193     3.102559134228     0.691176211434     1.007825032230
         H            2.977266282193    -2.554125865772     0.102646211434     1.007825032230
         H            3.725152282193     2.542434134228    -0.050876788566     1.007825032230
         H            4.643450282193    -0.430585865772    -1.089094788566     1.007825032230
         H           -3.804671717807    -1.529089865772     1.742720211434     1.007825032230
         H           -3.926822717807     1.438789134228     0.257378211434     1.007825032230
         H           -2.226038717807     1.886128134228    -0.051103788566     1.007825032230
         H           -3.796797717807     3.124130134228    -1.594678788566     1.007825032230
         H           -2.713472717807     2.046571134228    -2.496882788566     1.007825032230
         H           -4.397220717807     1.567571134228    -2.204731788566     1.007825032230

  Basis Set: AUG-CC-PVTZ
    Blend: AUG-CC-PVTZ
  Basis Set: (AUG-CC-PVTZ AUX)
    Blend: AUG-CC-PVTZ-JKFIT
	 Reference Energy          =   -1327.8233655574367731 [Eh]
	 Singles Energy            =      -0.0000000000000000 [Eh]
	 Same-Spin Energy          =      -1.0178324900158608 [Eh]
	 Opposite-Spin Energy      =      -3.0834565099471325 [Eh]
	 Correlation Energy        =      -4.1012889999629936 [Eh]
	 Total Energy              =   -1331.9246545573996627 [Eh]

	 ================> DF-SCS-MP2 Energies <==================
	-----------------------------------------------------------
	 SCS Same-Spin Scale       =       0.3333333333333333 [-]
	 SCS Opposite-Spin Scale   =       1.2000000000000000 [-]
	 SCS Same-Spin Energy      =      -0.3392774966719536 [Eh]
	 SCS Opposite-Spin Energy  =      -3.7001478119365587 [Eh]
	 SCS Correlation Energy    =      -4.0394253086085126 [Eh]
	 SCS Total Energy          =   -1331.8627908660453159 [Eh]
	-----------------------------------------------------------

  Dipole Moment: [D]
     X:    -0.4812      Y:     0.8504      Z:     1.3900     Total:     1.6991

*** Psi4 exiting successfully. Buy a developer a beer!
