                               Psi4 1.3.2 release

  ==> Input File <==

--------------------------------------------------------------------------
#psi4
#
memory 32 gb

molecule  {
0 1
  P       -2.2900960    -0.9400430     0.3446780
  O       -0.9821530    -0.2015620     0.9382890
  O        1.3422500    -1.6754830     1.2308510
  O        0.0787050     2.3596040     0.4621680
  O        3.0592540    -2.1934363    -0.8139098
  O        2.8473350     2.5031130     0.3715350
  O        4.1956880     0.4353970    -0.9728740
  O       -2.8268630     0.0333510    -0.8075310
  O       -3.2591210    -0.7232820     1.6216710
  O       -2.1189930    -2.3436440    -0.0996680
  C        0.1181620     0.0300090     0.0163190
  C        0.9532920    -1.2442050    -0.0757250
  C        0.8985890     1.2026440     0.5648510
  C        2.2596600    -1.0143070    -0.8180370
  C        2.1770750     1.3964720    -0.2280410
  C        3.0153778     0.1565897    -0.2123632
  C       -3.1242130     1.4315980    -0.4888860
  C       -3.5363170     2.0851650    -1.7841190
  H       -0.2830920     0.2988010    -0.9702380
  H        0.3702690    -2.0293640    -0.5720320
  H        1.1571200     0.9978770     1.6121560
  H        2.0609340    -0.7886600    -1.8727560
  H        1.9169870     1.6362870    -1.2735830
  H        3.2958550    -0.0945320     0.8276460
  H        0.5217750    -1.8880320     1.7115100
  H        0.6655400     3.1093110     0.6831840
  H        2.9735430    -2.5473740     0.0946540
  H        3.7214290     2.5491860    -0.0588690
  H        4.6397270    -0.4238340    -1.0970870
  H       -3.8083950    -1.5223380     1.7347280
  H       -3.9305460     1.4455410     0.2493860
  H       -2.2297620     1.8928800    -0.0590960
  H       -3.8005210     3.1308820    -1.6026710
  H       -2.7171960     2.0533230    -2.5048750
  H       -4.4009440     1.5743230    -2.2127240
units angstrom
no_reorient  #important for SAPT in psi4, default
symmetry c1  #important for SAPT in psi4, default
}

set PROPERTIES_ORIGIN ["COM"]
properties('MP2/aug-cc-pvtz', properties = ['dipole'])
--------------------------------------------------------------------------

    Molecular point group: c1
  Charge       = 0
  Multiplicity = 1
  Basis Set: AUG-CC-PVTZ
    Blend: AUG-CC-PVTZ
  Basis Set: (AUG-CC-PVTZ AUX)
    Blend: AUG-CC-PVTZ-JKFIT

    Orbital Energies [Eh]
    ---------------------

    Doubly Occupied:

       1A    -80.116960     2A    -20.614750     3A    -20.607073
       4A    -20.598967     5A    -20.583072     6A    -20.577335
       7A    -20.575340     8A    -20.573750     9A    -20.573493
      10A    -20.523420    11A    -11.320813    12A    -11.303286
      13A    -11.299670    14A    -11.299432    15A    -11.299045
      16A    -11.296920    17A    -11.292152    18A    -11.229903
      19A     -7.632409    20A     -5.530916    21A     -5.530543
      22A     -5.529340    23A     -1.460318    24A     -1.410722
      25A     -1.394548    26A     -1.392975    27A     -1.386841
      28A     -1.372032    29A     -1.364128    30A     -1.353251
      31A     -1.303818    32A     -1.120356    33A     -1.040522
      34A     -1.013341    35A     -1.003933    36A     -0.880106
      37A     -0.864884    38A     -0.859889    39A     -0.822241
      40A     -0.810700    41A     -0.751796    42A     -0.745308
      43A     -0.731565    44A     -0.728659    45A     -0.708194
      46A     -0.686943    47A     -0.677921    48A     -0.673560
      49A     -0.662473    50A     -0.661112    51A     -0.643309
      52A     -0.635092    53A     -0.627339    54A     -0.615557
      55A     -0.603819    56A     -0.598027    57A     -0.581359
      58A     -0.575552    59A     -0.570965    60A     -0.559590
      61A     -0.556119    62A     -0.548391    63A     -0.541150
      64A     -0.536920    65A     -0.529734    66A     -0.521865
      67A     -0.513391    68A     -0.503728    69A     -0.497223
      70A     -0.484726    71A     -0.479860    72A     -0.476606
      73A     -0.462539    74A     -0.457835    75A     -0.450209
      76A     -0.436555

  @DF-RHF Final Energy: -1327.86087473240173

   => Energetics <=

    Nuclear Repulsion Energy =           1772.5856490226119604
    One-Electron Energy =               -5357.2966815448908164
    Two-Electron Energy =                2256.8501577898769028
    Total Energy =                      -1327.8608747324019532
  Basis Set: (AUG-CC-PVTZ AUX)
    Blend: AUG-CC-PVTZ-RI
    Molecular point group: c1

    Geometry (in Angstrom), charge = 0, multiplicity = 1:

       Center              X                  Y                   Z               Mass
    ------------   -----------------  -----------------  -----------------  -----------------
         P           -2.289145823668    -0.940018056929     0.345058410679    30.973761998420
         O           -0.981202823668    -0.201537056929     0.938669410679    15.994914619570
         O            1.343200176332    -1.675458056929     1.231231410679    15.994914619570
         O            0.079655176332     2.359628943071     0.462548410679    15.994914619570
         O            3.060204176332    -2.193411356929    -0.813529389321    15.994914619570
         O            2.848285176332     2.503137943071     0.371915410679    15.994914619570
         O            4.196638176332     0.435421943071    -0.972493589321    15.994914619570
         O           -2.825912823668     0.033375943071    -0.807150589321    15.994914619570
         O           -3.258170823668    -0.723257056929     1.622051410679    15.994914619570
         O           -2.118042823668    -2.343619056929    -0.099287589321    15.994914619570
         C            0.119112176332     0.030033943071     0.016699410679    12.000000000000
         C            0.954242176332    -1.244180056929    -0.075344589321    12.000000000000
         C            0.899539176332     1.202668943071     0.565231410679    12.000000000000
         C            2.260610176332    -1.014282056929    -0.817656589321    12.000000000000
         C            2.178025176332     1.396496943071    -0.227660589321    12.000000000000
         C            3.016327976332     0.156614643071    -0.211982789321    12.000000000000
         C           -3.123262823668     1.431622943071    -0.488505589321    12.000000000000
         C           -3.535366823668     2.085189943071    -1.783738589321    12.000000000000
         H           -0.282141823668     0.298825943071    -0.969857589321     1.007825032230
         H            0.371219176332    -2.029339056929    -0.571651589321     1.007825032230
         H            1.158070176332     0.997901943071     1.612536410679     1.007825032230
         H            2.061884176332    -0.788635056929    -1.872375589321     1.007825032230
         H            1.917937176332     1.636311943071    -1.273202589321     1.007825032230
         H            3.296805176332    -0.094507056929     0.828026410679     1.007825032230
         H            0.522725176332    -1.888007056929     1.711890410679     1.007825032230
         H            0.666490176332     3.109335943071     0.683564410679     1.007825032230
         H            2.974493176332    -2.547349056929     0.095034410679     1.007825032230
         H            3.722379176332     2.549210943071    -0.058488589321     1.007825032230
         H            4.640677176332    -0.423809056929    -1.096706589321     1.007825032230
         H           -3.807444823668    -1.522313056929     1.735108410679     1.007825032230
         H           -3.929595823668     1.445565943071     0.249766410679     1.007825032230
         H           -2.228811823668     1.892904943071    -0.058715589321     1.007825032230
         H           -3.799570823668     3.130906943071    -1.602290589321     1.007825032230
         H           -2.716245823668     2.053347943071    -2.504494589321     1.007825032230
         H           -4.399993823668     1.574347943071    -2.212343589321     1.007825032230

  Basis Set: AUG-CC-PVTZ
    Blend: AUG-CC-PVTZ
  Basis Set: (AUG-CC-PVTZ AUX)
    Blend: AUG-CC-PVTZ-JKFIT
	 Reference Energy          =   -1327.8608747324017259 [Eh]
	 Singles Energy            =      -0.0000000000000000 [Eh]
	 Same-Spin Energy          =      -1.0147210406588996 [Eh]
	 Opposite-Spin Energy      =      -3.0763031771314511 [Eh]
	 Correlation Energy        =      -4.0910242177903502 [Eh]
	 Total Energy              =   -1331.9518989501921169 [Eh]

	 ================> DF-SCS-MP2 Energies <==================
	-----------------------------------------------------------
	 SCS Same-Spin Scale       =       0.3333333333333333 [-]
	 SCS Opposite-Spin Scale   =       1.2000000000000000 [-]
	 SCS Same-Spin Energy      =      -0.3382403468862998 [Eh]
	 SCS Opposite-Spin Energy  =      -3.6915638125577410 [Eh]
	 SCS Correlation Energy    =      -4.0298041594440406 [Eh]
	 SCS Total Energy          =   -1331.8906788918457096 [Eh]
	-----------------------------------------------------------

  Dipole Moment: [D]
     X:    -1.1164      Y:     1.8804      Z:     0.7356     Total:     2.3072

*** Psi4 exiting successfully. Buy a developer a beer!
