                               Psi4 1.3.2 release

  ==> Input File <==

--------------------------------------------------------------------------
#psi4
#
memory 32 gb

molecule  {
0 1
  P       -2.2900960    -0.9400430     0.3446780
  O       -0.9821530    -0.2015620     0.9382890
  O        1.3422500    -1.6754830     1.2308510
  O        0.0787050     2.3596040     0.4621680
  O        3.0685150    -2.1870720    -0.8085900
  O        2.8473350     2.5031130     0.3715350
  O        4.1956880     0.4353970    -0.9728740
  O       -2.8268630     0.0333510    -0.8075310
  O       -3.2591210    -0.7232820     1.6216710
  O       -2.1189930    -2.3436440    -0.0996680
  C        0.0994781     0.0165197     0.0296813
  C        0.9532920    -1.2442050    -0.0757250
  C        0.8985890     1.2026440     0.5648510
  C        2.2659302    -1.0398313    -0.8144333
  C        2.1770750     1.3964720    -0.2280410
  C        3.0258420     0.1487050    -0.2103220
  C       -3.1242130     1.4315980    -0.4888860
  C       -3.5363170     2.0851650    -1.7841190
  H       -0.2830920     0.2988010    -0.9702380
  H        0.3702690    -2.0293640    -0.5720320
  H        1.1571200     0.9978770     1.6121560
  H        2.0609340    -0.7886600    -1.8727560
  H        1.9169870     1.6362870    -1.2735830
  H        3.2958550    -0.0945320     0.8276460
  H        0.5217750    -1.8880320     1.7115100
  H        0.6655400     3.1093110     0.6831840
  H        2.9735430    -2.5473740     0.0946540
  H        3.7214290     2.5491860    -0.0588690
  H        4.6397270    -0.4238340    -1.0970870
  H       -3.8083950    -1.5223380     1.7347280
  H       -3.9305460     1.4455410     0.2493860
  H       -2.2297620     1.8928800    -0.0590960
  H       -3.8005210     3.1308820    -1.6026710
  H       -2.7171960     2.0533230    -2.5048750
  H       -4.4009440     1.5743230    -2.2127240
units angstrom
no_reorient  #important for SAPT in psi4, default
symmetry c1  #important for SAPT in psi4, default
}

set PROPERTIES_ORIGIN ["COM"]
properties('MP2/aug-cc-pvtz', properties = ['dipole'])
--------------------------------------------------------------------------

    Molecular point group: c1
  Charge       = 0
  Multiplicity = 1
  Basis Set: AUG-CC-PVTZ
    Blend: AUG-CC-PVTZ
  Basis Set: (AUG-CC-PVTZ AUX)
    Blend: AUG-CC-PVTZ-JKFIT

    Orbital Energies [Eh]
    ---------------------

    Doubly Occupied:

       1A    -80.118620     2A    -20.615898     3A    -20.610312
       4A    -20.599807     5A    -20.582217     6A    -20.577334
       7A    -20.575896     8A    -20.573013     9A    -20.572336
      10A    -20.524602    11A    -11.320141    12A    -11.301583
      13A    -11.299811    14A    -11.299391    15A    -11.297610
      16A    -11.295458    17A    -11.290089    18A    -11.230046
      19A     -7.634095    20A     -5.532607    21A     -5.532219
      22A     -5.531008    23A     -1.464430    24A     -1.413461
      25A     -1.399128    26A     -1.393638    27A     -1.387913
      28A     -1.373511    29A     -1.366757    30A     -1.354662
      31A     -1.305110    32A     -1.113924    33A     -1.040816
      34A     -1.009299    35A     -1.000720    36A     -0.881433
      37A     -0.865196    38A     -0.858507    39A     -0.823069
      40A     -0.809239    41A     -0.752444    42A     -0.745525
      43A     -0.732173    44A     -0.730754    45A     -0.707661
      46A     -0.686706    47A     -0.680517    48A     -0.674020
      49A     -0.662607    50A     -0.661395    51A     -0.644062
      52A     -0.635331    53A     -0.629910    54A     -0.616172
      55A     -0.605227    56A     -0.599004    57A     -0.581010
      58A     -0.576852    59A     -0.571999    60A     -0.559557
      61A     -0.555404    62A     -0.548576    63A     -0.541957
      64A     -0.537330    65A     -0.529502    66A     -0.520196
      67A     -0.513058    68A     -0.502974    69A     -0.496838
      70A     -0.483607    71A     -0.480373    72A     -0.477320
      73A     -0.461669    74A     -0.454870    75A     -0.448201
      76A     -0.430862

  @DF-RHF Final Energy: -1327.86100531772422

   => Energetics <=

    Nuclear Repulsion Energy =           1772.4823137544942711
    One-Electron Energy =               -5357.0655071092633079
    Two-Electron Energy =                2256.7221880370443614
    Total Energy =                      -1327.8610053177244481
  Basis Set: (AUG-CC-PVTZ AUX)
    Blend: AUG-CC-PVTZ-RI
    Molecular point group: c1

    Geometry (in Angstrom), charge = 0, multiplicity = 1:

       Center              X                  Y                   Z               Mass
    ------------   -----------------  -----------------  -----------------  -----------------
         P           -2.289578839231    -0.938417759998     0.343971223847    30.973761998420
         O           -0.981635839231    -0.199936759998     0.937582223847    15.994914619570
         O            1.342767160769    -1.673857759998     1.230144223847    15.994914619570
         O            0.079222160769     2.361229240002     0.461461223847    15.994914619570
         O            3.069032160769    -2.185446759998    -0.809296776153    15.994914619570
         O            2.847852160769     2.504738240002     0.370828223847    15.994914619570
         O            4.196205160769     0.437022240002    -0.973580776153    15.994914619570
         O           -2.826345839231     0.034976240002    -0.808237776153    15.994914619570
         O           -3.258603839231    -0.721656759998     1.620964223847    15.994914619570
         O           -2.118475839231    -2.342018759998    -0.100374776153    15.994914619570
         C            0.099995260769     0.018144940002     0.028974523847    12.000000000000
         C            0.953809160769    -1.242579759998    -0.076431776153    12.000000000000
         C            0.899106160769     1.204269240002     0.564144223847    12.000000000000
         C            2.266447360769    -1.038206059998    -0.815140076153    12.000000000000
         C            2.177592160769     1.398097240002    -0.228747776153    12.000000000000
         C            3.026359160769     0.150330240002    -0.211028776153    12.000000000000
         C           -3.123695839231     1.433223240002    -0.489592776153    12.000000000000
         C           -3.535799839231     2.086790240002    -1.784825776153    12.000000000000
         H           -0.282574839231     0.300426240002    -0.970944776153     1.007825032230
         H            0.370786160769    -2.027738759998    -0.572738776153     1.007825032230
         H            1.157637160769     0.999502240002     1.611449223847     1.007825032230
         H            2.061451160769    -0.787034759998    -1.873462776153     1.007825032230
         H            1.917504160769     1.637912240002    -1.274289776153     1.007825032230
         H            3.296372160769    -0.092906759998     0.826939223847     1.007825032230
         H            0.522292160769    -1.886406759998     1.710803223847     1.007825032230
         H            0.666057160769     3.110936240002     0.682477223847     1.007825032230
         H            2.974060160769    -2.545748759998     0.093947223847     1.007825032230
         H            3.721946160769     2.550811240002    -0.059575776153     1.007825032230
         H            4.640244160769    -0.422208759998    -1.097793776153     1.007825032230
         H           -3.807877839231    -1.520712759998     1.734021223847     1.007825032230
         H           -3.930028839231     1.447166240002     0.248679223847     1.007825032230
         H           -2.229244839231     1.894505240002    -0.059802776153     1.007825032230
         H           -3.800003839231     3.132507240002    -1.603377776153     1.007825032230
         H           -2.716678839231     2.054948240002    -2.505581776153     1.007825032230
         H           -4.400426839231     1.575948240002    -2.213430776153     1.007825032230

  Basis Set: AUG-CC-PVTZ
    Blend: AUG-CC-PVTZ
  Basis Set: (AUG-CC-PVTZ AUX)
    Blend: AUG-CC-PVTZ-JKFIT
	 Reference Energy          =   -1327.8610053177242207 [Eh]
	 Singles Energy            =      -0.0000000000000000 [Eh]
	 Same-Spin Energy          =      -1.0144708253361563 [Eh]
	 Opposite-Spin Energy      =      -3.0755260465867780 [Eh]
	 Correlation Energy        =      -4.0899968719229340 [Eh]
	 Total Energy              =   -1331.9510021896471699 [Eh]

	 ================> DF-SCS-MP2 Energies <==================
	-----------------------------------------------------------
	 SCS Same-Spin Scale       =       0.3333333333333333 [-]
	 SCS Opposite-Spin Scale   =       1.2000000000000000 [-]
	 SCS Same-Spin Energy      =      -0.3381569417787187 [Eh]
	 SCS Opposite-Spin Energy  =      -3.6906312559041332 [Eh]
	 SCS Correlation Energy    =      -4.0287881976828519 [Eh]
	 SCS Total Energy          =   -1331.8897935154070638 [Eh]
	-----------------------------------------------------------

  Dipole Moment: [D]
     X:    -1.1935      Y:     1.7465      Z:     0.7481     Total:     2.2437

*** Psi4 exiting successfully. Buy a developer a beer!
