                               Psi4 1.3.2 release

  ==> Input File <==

--------------------------------------------------------------------------
#psi4
#
memory 32 gb

molecule  {
0 1
  P       -2.2900960    -0.9400430     0.3446780
  O       -0.9821530    -0.2015620     0.9382890
  O        1.3422500    -1.6754830     1.2308510
  O        0.0787050     2.3596040     0.4621680
  O        3.0685150    -2.1870720    -0.8085900
  O        2.8473350     2.5031130     0.3715350
  O        4.1956880     0.4353970    -0.9728740
  O       -2.8268630     0.0333510    -0.8075310
  O       -3.2591210    -0.7232820     1.6216710
  O       -2.1189930    -2.3436440    -0.0996680
  C        0.1181620     0.0300090     0.0163190
  C        0.8985754    -1.1607201    -0.0696944
  C        0.8985890     1.2026440     0.5648510
  C        2.2596600    -1.0143070    -0.8180370
  C        2.1770750     1.3964720    -0.2280410
  C        3.0258420     0.1487050    -0.2103220
  C       -3.1242130     1.4315980    -0.4888860
  C       -3.5363170     2.0851650    -1.7841190
  H       -0.2830920     0.2988010    -0.9702380
  H        0.3702690    -2.0293640    -0.5720320
  H        1.1571200     0.9978770     1.6121560
  H        2.0609340    -0.7886600    -1.8727560
  H        1.9169870     1.6362870    -1.2735830
  H        3.2958550    -0.0945320     0.8276460
  H        0.5217750    -1.8880320     1.7115100
  H        0.6655400     3.1093110     0.6831840
  H        2.9735430    -2.5473740     0.0946540
  H        3.7214290     2.5491860    -0.0588690
  H        4.6397270    -0.4238340    -1.0970870
  H       -3.8083950    -1.5223380     1.7347280
  H       -3.9305460     1.4455410     0.2493860
  H       -2.2297620     1.8928800    -0.0590960
  H       -3.8005210     3.1308820    -1.6026710
  H       -2.7171960     2.0533230    -2.5048750
  H       -4.4009440     1.5743230    -2.2127240
units angstrom
no_reorient  #important for SAPT in psi4, default
symmetry c1  #important for SAPT in psi4, default
}

set PROPERTIES_ORIGIN ["COM"]
properties('MP2/aug-cc-pvtz', properties = ['dipole'])
--------------------------------------------------------------------------

    Molecular point group: c1
  Charge       = 0
  Multiplicity = 1
  Basis Set: AUG-CC-PVTZ
    Blend: AUG-CC-PVTZ
  Basis Set: (AUG-CC-PVTZ AUX)
    Blend: AUG-CC-PVTZ-JKFIT

    Orbital Energies [Eh]
    ---------------------

    Doubly Occupied:

       1A    -80.117482     2A    -20.615078     3A    -20.608128
       4A    -20.599726     5A    -20.580258     6A    -20.577366
       7A    -20.577057     8A    -20.574730     9A    -20.573032
      10A    -20.523268    11A    -11.319697    12A    -11.304563
      13A    -11.302534    14A    -11.300302    15A    -11.300091
      16A    -11.297407    17A    -11.290455    18A    -11.230446
      19A     -7.632936    20A     -5.531443    21A     -5.531074
      22A     -5.529852    23A     -1.461782    24A     -1.409367
      25A     -1.395431    26A     -1.390258    27A     -1.387516
      28A     -1.370227    29A     -1.361494    30A     -1.352573
      31A     -1.303811    32A     -1.128803    33A     -1.041230
      34A     -1.023018    35A     -0.999595    36A     -0.878500
      37A     -0.864946    38A     -0.863738    39A     -0.823533
      40A     -0.809292    41A     -0.754622    42A     -0.744997
      43A     -0.731082    44A     -0.727956    45A     -0.709838
      46A     -0.686890    47A     -0.674754    48A     -0.672280
      49A     -0.661658    50A     -0.660178    51A     -0.645598
      52A     -0.634983    53A     -0.626037    54A     -0.613717
      55A     -0.604746    56A     -0.597812    57A     -0.582651
      58A     -0.576353    59A     -0.570430    60A     -0.559630
      61A     -0.556798    62A     -0.548648    63A     -0.540914
      64A     -0.535275    65A     -0.527387    66A     -0.521413
      67A     -0.513415    68A     -0.503636    69A     -0.496181
      70A     -0.489470    71A     -0.480437    72A     -0.477067
      73A     -0.464778    74A     -0.456099    75A     -0.454274
      76A     -0.431209

  @DF-RHF Final Energy: -1327.84785836429091

   => Energetics <=

    Nuclear Repulsion Energy =           1773.8029750210796465
    One-Electron Energy =               -5359.6711586561687000
    Two-Electron Energy =                2258.0203252707979118
    Total Energy =                      -1327.8478583642909143
  Basis Set: (AUG-CC-PVTZ AUX)
    Blend: AUG-CC-PVTZ-RI
    Molecular point group: c1

    Geometry (in Angstrom), charge = 0, multiplicity = 1:

       Center              X                  Y                   Z               Mass
    ------------   -----------------  -----------------  -----------------  -----------------
         P           -2.287816591768    -0.943520782977     0.344426768997    30.973761998420
         O           -0.979873591768    -0.205039782977     0.938037768997    15.994914619570
         O            1.344529408232    -1.678960782977     1.230599768997    15.994914619570
         O            0.080984408232     2.356126217023     0.461916768997    15.994914619570
         O            3.070794408232    -2.190549782977    -0.808841231003    15.994914619570
         O            2.849614408232     2.499635217023     0.371283768997    15.994914619570
         O            4.197967408232     0.431919217023    -0.973125231003    15.994914619570
         O           -2.824583591768     0.029873217023    -0.807782231003    15.994914619570
         O           -3.256841591768    -0.726759782977     1.621419768997    15.994914619570
         O           -2.116713591768    -2.347121782977    -0.099919231003    15.994914619570
         C            0.120441408232     0.026531217023     0.016067768997    12.000000000000
         C            0.900854808232    -1.164197882977    -0.069945631003    12.000000000000
         C            0.900868408232     1.199166217023     0.564599768997    12.000000000000
         C            2.261939408232    -1.017784782977    -0.818288231003    12.000000000000
         C            2.179354408232     1.392994217023    -0.228292231003    12.000000000000
         C            3.028121408232     0.145227217023    -0.210573231003    12.000000000000
         C           -3.121933591768     1.428120217023    -0.489137231003    12.000000000000
         C           -3.534037591768     2.081687217023    -1.784370231003    12.000000000000
         H           -0.280812591768     0.295323217023    -0.970489231003     1.007825032230
         H            0.372548408232    -2.032841782977    -0.572283231003     1.007825032230
         H            1.159399408232     0.994399217023     1.611904768997     1.007825032230
         H            2.063213408232    -0.792137782977    -1.873007231003     1.007825032230
         H            1.919266408232     1.632809217023    -1.273834231003     1.007825032230
         H            3.298134408232    -0.098009782977     0.827394768997     1.007825032230
         H            0.524054408232    -1.891509782977     1.711258768997     1.007825032230
         H            0.667819408232     3.105833217023     0.682932768997     1.007825032230
         H            2.975822408232    -2.550851782977     0.094402768997     1.007825032230
         H            3.723708408232     2.545708217023    -0.059120231003     1.007825032230
         H            4.642006408232    -0.427311782977    -1.097338231003     1.007825032230
         H           -3.806115591768    -1.525815782977     1.734476768997     1.007825032230
         H           -3.928266591768     1.442063217023     0.249134768997     1.007825032230
         H           -2.227482591768     1.889402217023    -0.059347231003     1.007825032230
         H           -3.798241591768     3.127404217023    -1.602922231003     1.007825032230
         H           -2.714916591768     2.049845217023    -2.505126231003     1.007825032230
         H           -4.398664591768     1.570845217023    -2.212975231003     1.007825032230

  Basis Set: AUG-CC-PVTZ
    Blend: AUG-CC-PVTZ
  Basis Set: (AUG-CC-PVTZ AUX)
    Blend: AUG-CC-PVTZ-JKFIT
	 Reference Energy          =   -1327.8478583642909143 [Eh]
	 Singles Energy            =      -0.0000000000000000 [Eh]
	 Same-Spin Energy          =      -1.0158768957698403 [Eh]
	 Opposite-Spin Energy      =      -3.0783868196484070 [Eh]
	 Correlation Energy        =      -4.0942637154182471 [Eh]
	 Total Energy              =   -1331.9421220797091792 [Eh]

	 ================> DF-SCS-MP2 Energies <==================
	-----------------------------------------------------------
	 SCS Same-Spin Scale       =       0.3333333333333333 [-]
	 SCS Opposite-Spin Scale   =       1.2000000000000000 [-]
	 SCS Same-Spin Energy      =      -0.3386256319232801 [Eh]
	 SCS Opposite-Spin Energy  =      -3.6940641835780883 [Eh]
	 SCS Correlation Energy    =      -4.0326898155013682 [Eh]
	 SCS Total Energy          =   -1331.8805481797921857 [Eh]
	-----------------------------------------------------------

  Dipole Moment: [D]
     X:    -1.1518      Y:     1.9566      Z:     0.6711     Total:     2.3675

*** Psi4 exiting successfully. Buy a developer a beer!
