                               Psi4 1.3.2 release

  ==> Input File <==

--------------------------------------------------------------------------
#psi4
#
memory 32 gb

molecule  {
0 1
  P       -2.2900960    -0.9400430     0.3446780
  O       -0.9821530    -0.2015620     0.9382890
  O        1.3422500    -1.6754830     1.2308510
  O        0.0787050     2.3596040     0.4621680
  O        3.0685150    -2.1870720    -0.8085900
  O        2.8473350     2.5031130     0.3715350
  O        4.1956880     0.4353970    -0.9728740
  O       -2.8268630     0.0333510    -0.8075310
  O       -3.2591210    -0.7232820     1.6216710
  O       -2.1189930    -2.3436440    -0.0996680
  C        0.1181620     0.0300090     0.0163190
  C        0.8988860    -1.1838795    -0.2584839
  C        0.8985890     1.2026440     0.5648510
  C        2.2596600    -1.0143070    -0.8180370
  C        2.1770750     1.3964720    -0.2280410
  C        3.0258420     0.1487050    -0.2103220
  C       -3.1242130     1.4315980    -0.4888860
  C       -3.5363170     2.0851650    -1.7841190
  H       -0.2830920     0.2988010    -0.9702380
  H        0.3702690    -2.0293640    -0.5720320
  H        1.1571200     0.9978770     1.6121560
  H        2.0609340    -0.7886600    -1.8727560
  H        1.9169870     1.6362870    -1.2735830
  H        3.2958550    -0.0945320     0.8276460
  H        0.5217750    -1.8880320     1.7115100
  H        0.6655400     3.1093110     0.6831840
  H        2.9735430    -2.5473740     0.0946540
  H        3.7214290     2.5491860    -0.0588690
  H        4.6397270    -0.4238340    -1.0970870
  H       -3.8083950    -1.5223380     1.7347280
  H       -3.9305460     1.4455410     0.2493860
  H       -2.2297620     1.8928800    -0.0590960
  H       -3.8005210     3.1308820    -1.6026710
  H       -2.7171960     2.0533230    -2.5048750
  H       -4.4009440     1.5743230    -2.2127240
units angstrom
no_reorient  #important for SAPT in psi4, default
symmetry c1  #important for SAPT in psi4, default
}

set PROPERTIES_ORIGIN ["COM"]
properties('MP2/aug-cc-pvtz', properties = ['dipole'])
--------------------------------------------------------------------------

    Molecular point group: c1
  Charge       = 0
  Multiplicity = 1
  Basis Set: AUG-CC-PVTZ
    Blend: AUG-CC-PVTZ
  Basis Set: (AUG-CC-PVTZ AUX)
    Blend: AUG-CC-PVTZ-JKFIT

    Orbital Energies [Eh]
    ---------------------

    Doubly Occupied:

       1A    -80.119067     2A    -20.616027     3A    -20.611671
       4A    -20.600690     5A    -20.578523     6A    -20.578420
       7A    -20.576155     8A    -20.575642     9A    -20.557007
      10A    -20.525478    11A    -11.327872    12A    -11.312284
      13A    -11.305671    14A    -11.302499    15A    -11.300720
      16A    -11.298950    17A    -11.294997    18A    -11.231039
      19A     -7.634534    20A     -5.533038    21A     -5.532664
      22A     -5.531461    23A     -1.462312    24A     -1.407437
      25A     -1.396606    26A     -1.388651    27A     -1.387659
      28A     -1.370075    29A     -1.357857    30A     -1.315444
      31A     -1.305698    32A     -1.132517    33A     -1.041857
      34A     -1.023926    35A     -1.014398    36A     -0.884283
      37A     -0.869682    38A     -0.866652    39A     -0.826690
      40A     -0.804928    41A     -0.753795    42A     -0.740063
      43A     -0.736277    44A     -0.728635    45A     -0.710041
      46A     -0.689631    47A     -0.674196    48A     -0.668101
      49A     -0.663472    50A     -0.655988    51A     -0.647430
      52A     -0.636501    53A     -0.625765    54A     -0.610582
      55A     -0.604285    56A     -0.598426    57A     -0.587009
      58A     -0.577110    59A     -0.566429    60A     -0.561026
      61A     -0.556433    62A     -0.545347    63A     -0.540227
      64A     -0.538626    65A     -0.522164    66A     -0.515796
      67A     -0.509336    68A     -0.496944    69A     -0.492941
      70A     -0.482803    71A     -0.480520    72A     -0.478026
      73A     -0.470118    74A     -0.457773    75A     -0.455702
      76A     -0.445711

  @DF-RHF Final Energy: -1327.82713605423783

   => Energetics <=

    Nuclear Repulsion Energy =           1771.7532470000514877
    One-Electron Energy =               -5355.5121472516302674
    Two-Electron Energy =                2255.9317641973411810
    Total Energy =                      -1327.8271360542375987
  Basis Set: (AUG-CC-PVTZ AUX)
    Blend: AUG-CC-PVTZ-RI
    Molecular point group: c1

    Geometry (in Angstrom), charge = 0, multiplicity = 1:

       Center              X                  Y                   Z               Mass
    ------------   -----------------  -----------------  -----------------  -----------------
         P           -2.287829530694    -0.942556012385     0.352291331883    30.973761998420
         O           -0.979886530694    -0.204075012385     0.945902331883    15.994914619570
         O            1.344516469306    -1.677996012385     1.238464331883    15.994914619570
         O            0.080971469306     2.357090987615     0.469781331883    15.994914619570
         O            3.070781469306    -2.189585012385    -0.800976668117    15.994914619570
         O            2.849601469306     2.500599987615     0.379148331883    15.994914619570
         O            4.197954469306     0.432883987615    -0.965260668117    15.994914619570
         O           -2.824596530694     0.030837987615    -0.799917668117    15.994914619570
         O           -3.256854530694    -0.725795012385     1.629284331883    15.994914619570
         O           -2.116726530694    -2.346157012385    -0.092054668117    15.994914619570
         C            0.120428469306     0.027495987615     0.023932331883    12.000000000000
         C            0.901152469306    -1.186392512385    -0.250870568117    12.000000000000
         C            0.900855469306     1.200130987615     0.572464331883    12.000000000000
         C            2.261926469306    -1.016820012385    -0.810423668117    12.000000000000
         C            2.179341469306     1.393958987615    -0.220427668117    12.000000000000
         C            3.028108469306     0.146191987615    -0.202708668117    12.000000000000
         C           -3.121946530694     1.429084987615    -0.481272668117    12.000000000000
         C           -3.534050530694     2.082651987615    -1.776505668117    12.000000000000
         H           -0.280825530694     0.296287987615    -0.962624668117     1.007825032230
         H            0.372535469306    -2.031877012385    -0.564418668117     1.007825032230
         H            1.159386469306     0.995363987615     1.619769331883     1.007825032230
         H            2.063200469306    -0.791173012385    -1.865142668117     1.007825032230
         H            1.919253469306     1.633773987615    -1.265969668117     1.007825032230
         H            3.298121469306    -0.097045012385     0.835259331883     1.007825032230
         H            0.524041469306    -1.890545012385     1.719123331883     1.007825032230
         H            0.667806469306     3.106797987615     0.690797331883     1.007825032230
         H            2.975809469306    -2.549887012385     0.102267331883     1.007825032230
         H            3.723695469306     2.546672987615    -0.051255668117     1.007825032230
         H            4.641993469306    -0.426347012385    -1.089473668117     1.007825032230
         H           -3.806128530694    -1.524851012385     1.742341331883     1.007825032230
         H           -3.928279530694     1.443027987615     0.256999331883     1.007825032230
         H           -2.227495530694     1.890366987615    -0.051482668117     1.007825032230
         H           -3.798254530694     3.128368987615    -1.595057668117     1.007825032230
         H           -2.714929530694     2.050809987615    -2.497261668117     1.007825032230
         H           -4.398677530694     1.571809987615    -2.205110668117     1.007825032230

  Basis Set: AUG-CC-PVTZ
    Blend: AUG-CC-PVTZ
  Basis Set: (AUG-CC-PVTZ AUX)
    Blend: AUG-CC-PVTZ-JKFIT
	 Reference Energy          =   -1327.8271360542378261 [Eh]
	 Singles Energy            =      -0.0000000000000000 [Eh]
	 Same-Spin Energy          =      -1.0164836816279863 [Eh]
	 Opposite-Spin Energy      =      -3.0814830253100935 [Eh]
	 Correlation Energy        =      -4.0979667069380801 [Eh]
	 Total Energy              =   -1331.9251027611758218 [Eh]

	 ================> DF-SCS-MP2 Energies <==================
	-----------------------------------------------------------
	 SCS Same-Spin Scale       =       0.3333333333333333 [-]
	 SCS Opposite-Spin Scale   =       1.2000000000000000 [-]
	 SCS Same-Spin Energy      =      -0.3388278938759954 [Eh]
	 SCS Opposite-Spin Energy  =      -3.6977796303721120 [Eh]
	 SCS Correlation Energy    =      -4.0366075242481072 [Eh]
	 SCS Total Energy          =   -1331.8637435784860372 [Eh]
	-----------------------------------------------------------

  Dipole Moment: [D]
     X:    -1.2219      Y:     2.0971      Z:     0.2798     Total:     2.4432

*** Psi4 exiting successfully. Buy a developer a beer!
