                               Psi4 1.3.2 release

  ==> Input File <==

--------------------------------------------------------------------------
#psi4
#
memory 32 gb

molecule  {
0 1
  P       -2.2900960    -0.9400430     0.3446780
  O       -0.9821530    -0.2015620     0.9382890
  O        1.3422500    -1.6754830     1.2308510
  O        0.0787050     2.3596040     0.4621680
  O        3.0685150    -2.1870720    -0.8085900
  O        2.8473350     2.5031130     0.3715350
  O        4.1956880     0.4353970    -0.9728740
  O       -2.8268630     0.0333510    -0.8075310
  O       -3.2591210    -0.7232820     1.6216710
  O       -2.1189930    -2.3436440    -0.0996680
  C        0.1181620     0.0300090     0.0163190
  C        0.9532920    -1.2442050    -0.0757250
  C        0.8985890     1.2026440     0.5648510
  C        2.2596600    -1.0143070    -0.8180370
  C        2.1770750     1.3964720    -0.2280410
  C        2.9754195     0.0721670    -0.2503158
  C       -3.1242130     1.4315980    -0.4888860
  C       -3.5363170     2.0851650    -1.7841190
  H       -0.2830920     0.2988010    -0.9702380
  H        0.3702690    -2.0293640    -0.5720320
  H        1.1571200     0.9978770     1.6121560
  H        2.0609340    -0.7886600    -1.8727560
  H        1.9169870     1.6362870    -1.2735830
  H        3.2958550    -0.0945320     0.8276460
  H        0.5217750    -1.8880320     1.7115100
  H        0.6655400     3.1093110     0.6831840
  H        2.9735430    -2.5473740     0.0946540
  H        3.7214290     2.5491860    -0.0588690
  H        4.6397270    -0.4238340    -1.0970870
  H       -3.8083950    -1.5223380     1.7347280
  H       -3.9305460     1.4455410     0.2493860
  H       -2.2297620     1.8928800    -0.0590960
  H       -3.8005210     3.1308820    -1.6026710
  H       -2.7171960     2.0533230    -2.5048750
  H       -4.4009440     1.5743230    -2.2127240
units angstrom
no_reorient  #important for SAPT in psi4, default
symmetry c1  #important for SAPT in psi4, default
}

set PROPERTIES_ORIGIN ["COM"]
properties('MP2/aug-cc-pvtz', properties = ['dipole'])
--------------------------------------------------------------------------

    Molecular point group: c1
  Charge       = 0
  Multiplicity = 1
  Basis Set: AUG-CC-PVTZ
    Blend: AUG-CC-PVTZ
  Basis Set: (AUG-CC-PVTZ AUX)
    Blend: AUG-CC-PVTZ-JKFIT

    Orbital Energies [Eh]
    ---------------------

    Doubly Occupied:

       1A    -80.117467     2A    -20.615149     3A    -20.607758
       4A    -20.599314     5A    -20.584342     6A    -20.579819
       7A    -20.575346     8A    -20.572538     9A    -20.572023
      10A    -20.524042    11A    -11.321648    12A    -11.306318
      13A    -11.299749    14A    -11.299588    15A    -11.297602
      16A    -11.297471    17A    -11.293672    18A    -11.230027
      19A     -7.632919    20A     -5.531425    21A     -5.531052
      22A     -5.529851    23A     -1.460835    24A     -1.411794
      25A     -1.394327    26A     -1.392520    27A     -1.387145
      28A     -1.370420    29A     -1.364120    30A     -1.349095
      31A     -1.304428    32A     -1.126188    33A     -1.040853
      34A     -1.021836    35A     -1.003566    36A     -0.884441
      37A     -0.866422    38A     -0.857064    39A     -0.821718
      40A     -0.810958    41A     -0.751846    42A     -0.744799
      43A     -0.731409    44A     -0.728731    45A     -0.708568
      46A     -0.688885    47A     -0.680195    48A     -0.673720
      49A     -0.662565    50A     -0.656812    51A     -0.643574
      52A     -0.630818    53A     -0.628362    54A     -0.616716
      55A     -0.604246    56A     -0.596640    57A     -0.581929
      58A     -0.575895    59A     -0.571674    60A     -0.559991
      61A     -0.556460    62A     -0.548723    63A     -0.541961
      64A     -0.536931    65A     -0.529082    66A     -0.521875
      67A     -0.513353    68A     -0.501325    69A     -0.497175
      70A     -0.483328    71A     -0.480320    72A     -0.477166
      73A     -0.463351    74A     -0.455430    75A     -0.448171
      76A     -0.445431

  @DF-RHF Final Energy: -1327.84786190560180

   => Energetics <=

    Nuclear Repulsion Energy =           1773.4219950637648253
    One-Electron Energy =               -5358.8911092837824981
    Two-Electron Energy =                2257.6212523144158695
    Total Energy =                      -1327.8478619056018033
  Basis Set: (AUG-CC-PVTZ AUX)
    Blend: AUG-CC-PVTZ-RI
    Molecular point group: c1

    Geometry (in Angstrom), charge = 0, multiplicity = 1:

       Center              X                  Y                   Z               Mass
    ------------   -----------------  -----------------  -----------------  -----------------
         P           -2.287995474701    -0.936854574527     0.346344046113    30.973761998420
         O           -0.980052474701    -0.198373574527     0.939955046113    15.994914619570
         O            1.344350525299    -1.672294574527     1.232517046113    15.994914619570
         O            0.080805525299     2.362792425473     0.463834046113    15.994914619570
         O            3.070615525299    -2.183883574527    -0.806923953887    15.994914619570
         O            2.849435525299     2.506301425473     0.373201046113    15.994914619570
         O            4.197788525299     0.438585425473    -0.971207953887    15.994914619570
         O           -2.824762474701     0.036539425473    -0.805864953887    15.994914619570
         O           -3.257020474701    -0.720093574527     1.623337046113    15.994914619570
         O           -2.116892474701    -2.340455574527    -0.098001953887    15.994914619570
         C            0.120262525299     0.033197425473     0.017985046113    12.000000000000
         C            0.955392525299    -1.241016574527    -0.074058953887    12.000000000000
         C            0.900689525299     1.205832425473     0.566517046113    12.000000000000
         C            2.261760525299    -1.011118574527    -0.816370953887    12.000000000000
         C            2.179175525299     1.399660425473    -0.226374953887    12.000000000000
         C            2.977520025299     0.075355425473    -0.248649753887    12.000000000000
         C           -3.122112474701     1.434786425473    -0.487219953887    12.000000000000
         C           -3.534216474701     2.088353425473    -1.782452953887    12.000000000000
         H           -0.280991474701     0.301989425473    -0.968571953887     1.007825032230
         H            0.372369525299    -2.026175574527    -0.570365953887     1.007825032230
         H            1.159220525299     1.001065425473     1.613822046113     1.007825032230
         H            2.063034525299    -0.785471574527    -1.871089953887     1.007825032230
         H            1.919087525299     1.639475425473    -1.271916953887     1.007825032230
         H            3.297955525299    -0.091343574527     0.829312046113     1.007825032230
         H            0.523875525299    -1.884843574527     1.713176046113     1.007825032230
         H            0.667640525299     3.112499425473     0.684850046113     1.007825032230
         H            2.975643525299    -2.544185574527     0.096320046113     1.007825032230
         H            3.723529525299     2.552374425473    -0.057202953887     1.007825032230
         H            4.641827525299    -0.420645574527    -1.095420953887     1.007825032230
         H           -3.806294474701    -1.519149574527     1.736394046113     1.007825032230
         H           -3.928445474701     1.448729425473     0.251052046113     1.007825032230
         H           -2.227661474701     1.896068425473    -0.057429953887     1.007825032230
         H           -3.798420474701     3.134070425473    -1.601004953887     1.007825032230
         H           -2.715095474701     2.056511425473    -2.503208953887     1.007825032230
         H           -4.398843474701     1.577511425473    -2.211057953887     1.007825032230

  Basis Set: AUG-CC-PVTZ
    Blend: AUG-CC-PVTZ
  Basis Set: (AUG-CC-PVTZ AUX)
    Blend: AUG-CC-PVTZ-JKFIT
	 Reference Energy          =   -1327.8478619056018033 [Eh]
	 Singles Energy            =      -0.0000000000000000 [Eh]
	 Same-Spin Energy          =      -1.0158381991989087 [Eh]
	 Opposite-Spin Energy      =      -3.0783718803795481 [Eh]
	 Correlation Energy        =      -4.0942100795784571 [Eh]
	 Total Energy              =   -1331.9420719851802914 [Eh]

	 ================> DF-SCS-MP2 Energies <==================
	-----------------------------------------------------------
	 SCS Same-Spin Scale       =       0.3333333333333333 [-]
	 SCS Opposite-Spin Scale   =       1.2000000000000000 [-]
	 SCS Same-Spin Energy      =      -0.3386127330663029 [Eh]
	 SCS Opposite-Spin Energy  =      -3.6940462564554575 [Eh]
	 SCS Correlation Energy    =      -4.0326589895217602 [Eh]
	 SCS Total Energy          =   -1331.8805208951234818 [Eh]
	-----------------------------------------------------------

  Dipole Moment: [D]
     X:    -1.2302      Y:     1.8420      Z:     0.7350     Total:     2.3338

*** Psi4 exiting successfully. Buy a developer a beer!
