                               Psi4 1.3.2 release

  ==> Input File <==

--------------------------------------------------------------------------
#psi4
#
memory 32 gb

molecule  {
0 1
  P       -2.2900960    -0.9400430     0.3446780
  O       -0.9821530    -0.2015620     0.9382890
  O        1.3422500    -1.6754830     1.2308510
  O        0.0787050     2.3596040     0.4621680
  O        3.0685150    -2.1870720    -0.8085900
  O        2.8473350     2.5031130     0.3715350
  O        4.1956880     0.4353970    -0.9728740
  O       -2.8268630     0.0333510    -0.8075310
  O       -3.2591210    -0.7232820     1.6216710
  O       -2.1189930    -2.3436440    -0.0996680
  C        0.1181620     0.0300090     0.0163190
  C        0.9532920    -1.2442050    -0.0757250
  C        0.8594672     1.1748610     0.5521921
  C        2.2596600    -1.0143070    -0.8180370
  C        2.1770750     1.3964720    -0.2280410
  C        3.0258420     0.1487050    -0.2103220
  C       -3.1242130     1.4315980    -0.4888860
  C       -3.5363170     2.0851650    -1.7841190
  H       -0.2830920     0.2988010    -0.9702380
  H        0.3702690    -2.0293640    -0.5720320
  H        1.1571200     0.9978770     1.6121560
  H        2.0609340    -0.7886600    -1.8727560
  H        1.9169870     1.6362870    -1.2735830
  H        3.2958550    -0.0945320     0.8276460
  H        0.5217750    -1.8880320     1.7115100
  H        0.6392503     3.1305216     0.6784060
  H        2.9735430    -2.5473740     0.0946540
  H        3.7214290     2.5491860    -0.0588690
  H        4.6397270    -0.4238340    -1.0970870
  H       -3.8083950    -1.5223380     1.7347280
  H       -3.9305460     1.4455410     0.2493860
  H       -2.2297620     1.8928800    -0.0590960
  H       -3.8005210     3.1308820    -1.6026710
  H       -2.7171960     2.0533230    -2.5048750
  H       -4.4009440     1.5743230    -2.2127240
units angstrom
no_reorient  #important for SAPT in psi4, default
symmetry c1  #important for SAPT in psi4, default
}

set PROPERTIES_ORIGIN ["COM"]
properties('MP2/aug-cc-pvtz', properties = ['dipole'])
--------------------------------------------------------------------------

    Molecular point group: c1
  Charge       = 0
  Multiplicity = 1
  Basis Set: AUG-CC-PVTZ
    Blend: AUG-CC-PVTZ
  Basis Set: (AUG-CC-PVTZ AUX)
    Blend: AUG-CC-PVTZ-JKFIT

    Orbital Energies [Eh]
    ---------------------

    Doubly Occupied:

       1A    -80.117190     2A    -20.614949     3A    -20.607324
       4A    -20.599222     5A    -20.583643     6A    -20.576413
       7A    -20.574659     8A    -20.573267     9A    -20.571563
      10A    -20.523782    11A    -11.320171    12A    -11.305036
      13A    -11.299638    14A    -11.299508    15A    -11.299421
      16A    -11.297396    17A    -11.290413    18A    -11.230024
      19A     -7.632659    20A     -5.531166    21A     -5.530788
      22A     -5.529591    23A     -1.460995    24A     -1.410999
      25A     -1.394507    26A     -1.391898    27A     -1.387104
      28A     -1.371958    29A     -1.363241    30A     -1.353113
      31A     -1.304213    32A     -1.121662    33A     -1.040688
      34A     -1.016599    35A     -1.001395    36A     -0.879412
      37A     -0.864982    38A     -0.859987    39A     -0.822596
      40A     -0.810125    41A     -0.752243    42A     -0.744884
      43A     -0.732214    44A     -0.729780    45A     -0.708770
      46A     -0.687293    47A     -0.678558    48A     -0.673724
      49A     -0.661637    50A     -0.660288    51A     -0.642596
      52A     -0.636212    53A     -0.627304    54A     -0.615568
      55A     -0.602624    56A     -0.598042    57A     -0.583866
      58A     -0.575659    59A     -0.571124    60A     -0.557930
      61A     -0.557034    62A     -0.548343    63A     -0.541311
      64A     -0.537406    65A     -0.530097    66A     -0.521698
      67A     -0.512697    68A     -0.503902    69A     -0.497749
      70A     -0.484662    71A     -0.480279    72A     -0.476977
      73A     -0.460855    74A     -0.454294    75A     -0.446578
      76A     -0.436588

  @DF-RHF Final Energy: -1327.85852397464191

   => Energetics <=

    Nuclear Repulsion Energy =           1772.9523407231647525
    One-Electron Energy =               -5358.0335661244198491
    Two-Electron Energy =                2257.2227014266131846
    Total Energy =                      -1327.8585239746421394
  Basis Set: (AUG-CC-PVTZ AUX)
    Blend: AUG-CC-PVTZ-RI
    Molecular point group: c1

    Geometry (in Angstrom), charge = 0, multiplicity = 1:

       Center              X                  Y                   Z               Mass
    ------------   -----------------  -----------------  -----------------  -----------------
         P           -2.288374258969    -0.938959811033     0.345222049763    30.973761998420
         O           -0.980431258969    -0.200478811033     0.938833049763    15.994914619570
         O            1.343971741031    -1.674399811033     1.231395049763    15.994914619570
         O            0.080426741031     2.360687188967     0.462712049763    15.994914619570
         O            3.070236741031    -2.185988811033    -0.808045950237    15.994914619570
         O            2.849056741031     2.504196188967     0.372079049763    15.994914619570
         O            4.197409741031     0.436480188967    -0.972329950237    15.994914619570
         O           -2.825141258969     0.034434188967    -0.806986950237    15.994914619570
         O           -3.257399258969    -0.722198811033     1.622215049763    15.994914619570
         O           -2.117271258969    -2.342560811033    -0.099123950237    15.994914619570
         C            0.119883741031     0.031092188967     0.016863049763    12.000000000000
         C            0.955013741031    -1.243121811033    -0.075180950237    12.000000000000
         C            0.861188941031     1.175944188967     0.552736149763    12.000000000000
         C            2.261381741031    -1.013223811033    -0.817492950237    12.000000000000
         C            2.178796741031     1.397555188967    -0.227496950237    12.000000000000
         C            3.027563741031     0.149788188967    -0.209777950237    12.000000000000
         C           -3.122491258969     1.432681188967    -0.488341950237    12.000000000000
         C           -3.534595258969     2.086248188967    -1.783574950237    12.000000000000
         H           -0.281370258969     0.299884188967    -0.969693950237     1.007825032230
         H            0.371990741031    -2.028280811033    -0.571487950237     1.007825032230
         H            1.158841741031     0.998960188967     1.612700049763     1.007825032230
         H            2.062655741031    -0.787576811033    -1.872211950237     1.007825032230
         H            1.918708741031     1.637370188967    -1.273038950237     1.007825032230
         H            3.297576741031    -0.093448811033     0.828190049763     1.007825032230
         H            0.523496741031    -1.886948811033     1.712054049763     1.007825032230
         H            0.640972041031     3.131604788967     0.678950049763     1.007825032230
         H            2.975264741031    -2.546290811033     0.095198049763     1.007825032230
         H            3.723150741031     2.550269188967    -0.058324950237     1.007825032230
         H            4.641448741031    -0.422750811033    -1.096542950237     1.007825032230
         H           -3.806673258969    -1.521254811033     1.735272049763     1.007825032230
         H           -3.928824258969     1.446624188967     0.249930049763     1.007825032230
         H           -2.228040258969     1.893963188967    -0.058551950237     1.007825032230
         H           -3.798799258969     3.131965188967    -1.602126950237     1.007825032230
         H           -2.715474258969     2.054406188967    -2.504330950237     1.007825032230
         H           -4.399222258969     1.575406188967    -2.212179950237     1.007825032230

  Basis Set: AUG-CC-PVTZ
    Blend: AUG-CC-PVTZ
  Basis Set: (AUG-CC-PVTZ AUX)
    Blend: AUG-CC-PVTZ-JKFIT
	 Reference Energy          =   -1327.8585239746419120 [Eh]
	 Singles Energy            =      -0.0000000000000000 [Eh]
	 Same-Spin Energy          =      -1.0147370167951728 [Eh]
	 Opposite-Spin Energy      =      -3.0761016686283327 [Eh]
	 Correlation Energy        =      -4.0908386854235053 [Eh]
	 Total Energy              =   -1331.9493626600653897 [Eh]

	 ================> DF-SCS-MP2 Energies <==================
	-----------------------------------------------------------
	 SCS Same-Spin Scale       =       0.3333333333333333 [-]
	 SCS Opposite-Spin Scale   =       1.2000000000000000 [-]
	 SCS Same-Spin Energy      =      -0.3382456722650576 [Eh]
	 SCS Opposite-Spin Energy  =      -3.6913220023539992 [Eh]
	 SCS Correlation Energy    =      -4.0295676746190567 [Eh]
	 SCS Total Energy          =   -1331.8880916492610140 [Eh]
	-----------------------------------------------------------

  Dipole Moment: [D]
     X:    -1.1723      Y:     1.8644      Z:     0.7161     Total:     2.3158

*** Psi4 exiting successfully. Buy a developer a beer!
