                               Psi4 1.3.2 release

  ==> Input File <==

--------------------------------------------------------------------------
#psi4
#
memory 32 gb

molecule  {
0 1
  P       -2.3139627    -0.9365789     0.3956325
  O       -0.9821530    -0.2015620     0.9382890
  O        1.3422500    -1.6754830     1.2308510
  O        0.0787050     2.3596040     0.4621680
  O        3.0685150    -2.1870720    -0.8085900
  O        2.8473350     2.5031130     0.3715350
  O        4.1956880     0.4353970    -0.9728740
  O       -2.8268630     0.0333510    -0.8075310
  O       -3.2591210    -0.7232820     1.6216710
  O       -2.1189930    -2.3436440    -0.0996680
  C        0.1440887     0.0517873     0.0541280
  C        0.9532920    -1.2442050    -0.0757250
  C        0.8985890     1.2026440     0.5648510
  C        2.2596600    -1.0143070    -0.8180370
  C        2.1770750     1.3964720    -0.2280410
  C        3.0258420     0.1487050    -0.2103220
  C       -3.1242130     1.4315980    -0.4888860
  C       -3.5363170     2.0851650    -1.7841190
  H       -0.2830920     0.2988010    -0.9702380
  H        0.3702690    -2.0293640    -0.5720320
  H        1.1571200     0.9978770     1.6121560
  H        2.0609340    -0.7886600    -1.8727560
  H        1.9169870     1.6362870    -1.2735830
  H        3.2958550    -0.0945320     0.8276460
  H        0.5217750    -1.8880320     1.7115100
  H        0.6655400     3.1093110     0.6831840
  H        2.9735430    -2.5473740     0.0946540
  H        3.7214290     2.5491860    -0.0588690
  H        4.6397270    -0.4238340    -1.0970870
  H       -3.8083950    -1.5223380     1.7347280
  H       -3.9305460     1.4455410     0.2493860
  H       -2.2297620     1.8928800    -0.0590960
  H       -3.8005210     3.1308820    -1.6026710
  H       -2.7171960     2.0533230    -2.5048750
  H       -4.4009440     1.5743230    -2.2127240
units angstrom
no_reorient  #important for SAPT in psi4, default
symmetry c1  #important for SAPT in psi4, default
}

set PROPERTIES_ORIGIN ["COM"]
properties('MP2/aug-cc-pvtz', properties = ['dipole'])
--------------------------------------------------------------------------

    Molecular point group: c1
  Charge       = 0
  Multiplicity = 1
  Basis Set: AUG-CC-PVTZ
    Blend: AUG-CC-PVTZ
  Basis Set: (AUG-CC-PVTZ AUX)
    Blend: AUG-CC-PVTZ-JKFIT

    Orbital Energies [Eh]
    ---------------------

    Doubly Occupied:

       1A    -80.118869     2A    -20.630600     3A    -20.603435
       4A    -20.592821     5A    -20.581153     6A    -20.576848
       7A    -20.573833     8A    -20.573717     9A    -20.573415
      10A    -20.519517    11A    -11.321238    12A    -11.302808
      13A    -11.298132    14A    -11.297433    15A    -11.296311
      16A    -11.295236    17A    -11.291053    18A    -11.227223
      19A     -7.634023    20A     -5.532727    21A     -5.532161
      22A     -5.530782    23A     -1.469701    24A     -1.415678
      25A     -1.399754    26A     -1.393271    27A     -1.382924
      28A     -1.370402    29A     -1.363640    30A     -1.353385
      31A     -1.291109    32A     -1.121557    33A     -1.035508
      34A     -1.013794    35A     -1.003480    36A     -0.882930
      37A     -0.861019    38A     -0.859466    39A     -0.830413
      40A     -0.807189    41A     -0.752776    42A     -0.745374
      43A     -0.733188    44A     -0.727272    45A     -0.711150
      46A     -0.688506    47A     -0.681174    48A     -0.675417
      49A     -0.664760    50A     -0.660796    51A     -0.643931
      52A     -0.634041    53A     -0.626344    54A     -0.614314
      55A     -0.606260    56A     -0.598087    57A     -0.584631
      58A     -0.579247    59A     -0.567992    60A     -0.558263
      61A     -0.554965    62A     -0.545231    63A     -0.539235
      64A     -0.535943    65A     -0.525769    66A     -0.521298
      67A     -0.510179    68A     -0.501944    69A     -0.495431
      70A     -0.478584    71A     -0.473660    72A     -0.469803
      73A     -0.460590    74A     -0.455485    75A     -0.449092
      76A     -0.435886

  @DF-RHF Final Energy: -1327.85449229918913

   => Energetics <=

    Nuclear Repulsion Energy =           1771.8556251086481552
    One-Electron Energy =               -5355.8898900935037091
    Two-Electron Energy =                2256.1797726856661939
    Total Energy =                      -1327.8544922991891326
  Basis Set: (AUG-CC-PVTZ AUX)
    Blend: AUG-CC-PVTZ-RI
    Molecular point group: c1

    Geometry (in Angstrom), charge = 0, multiplicity = 1:

       Center              X                  Y                   Z               Mass
    ------------   -----------------  -----------------  -----------------  -----------------
         P           -2.312476450507    -0.937858596638     0.388578566702    30.973761998420
         O           -0.980666750507    -0.202841696638     0.931235066702    15.994914619570
         O            1.343736249493    -1.676762696638     1.223797066702    15.994914619570
         O            0.080191249493     2.358324303362     0.455114066702    15.994914619570
         O            3.070001249493    -2.188351696638    -0.815643933298    15.994914619570
         O            2.848821249493     2.501833303362     0.364481066702    15.994914619570
         O            4.197174249493     0.434117303362    -0.979927933298    15.994914619570
         O           -2.825376750507     0.032071303362    -0.814584933298    15.994914619570
         O           -3.257634750507    -0.724561696638     1.614617066702    15.994914619570
         O           -2.117506750507    -2.344923696638    -0.106721933298    15.994914619570
         C            0.145574949493     0.050507603362     0.047074066702    12.000000000000
         C            0.954778249493    -1.245484696638    -0.082778933298    12.000000000000
         C            0.900075249493     1.201364303362     0.557797066702    12.000000000000
         C            2.261146249493    -1.015586696638    -0.825090933298    12.000000000000
         C            2.178561249493     1.395192303362    -0.235094933298    12.000000000000
         C            3.027328249493     0.147425303362    -0.217375933298    12.000000000000
         C           -3.122726750507     1.430318303362    -0.495939933298    12.000000000000
         C           -3.534830750507     2.083885303362    -1.791172933298    12.000000000000
         H           -0.281605750507     0.297521303362    -0.977291933298     1.007825032230
         H            0.371755249493    -2.030643696638    -0.579085933298     1.007825032230
         H            1.158606249493     0.996597303362     1.605102066702     1.007825032230
         H            2.062420249493    -0.789939696638    -1.879809933298     1.007825032230
         H            1.918473249493     1.635007303362    -1.280636933298     1.007825032230
         H            3.297341249493    -0.095811696638     0.820592066702     1.007825032230
         H            0.523261249493    -1.889311696638     1.704456066702     1.007825032230
         H            0.667026249493     3.108031303362     0.676130066702     1.007825032230
         H            2.975029249493    -2.548653696638     0.087600066702     1.007825032230
         H            3.722915249493     2.547906303362    -0.065922933298     1.007825032230
         H            4.641213249493    -0.425113696638    -1.104140933298     1.007825032230
         H           -3.806908750507    -1.523617696638     1.727674066702     1.007825032230
         H           -3.929059750507     1.444261303362     0.242332066702     1.007825032230
         H           -2.228275750507     1.891600303362    -0.066149933298     1.007825032230
         H           -3.799034750507     3.129602303362    -1.609724933298     1.007825032230
         H           -2.715709750507     2.052043303362    -2.511928933298     1.007825032230
         H           -4.399457750507     1.573043303362    -2.219777933298     1.007825032230

  Basis Set: AUG-CC-PVTZ
    Blend: AUG-CC-PVTZ
  Basis Set: (AUG-CC-PVTZ AUX)
    Blend: AUG-CC-PVTZ-JKFIT
	 Reference Energy          =   -1327.8544922991891326 [Eh]
	 Singles Energy            =      -0.0000000000000000 [Eh]
	 Same-Spin Energy          =      -1.0151075666879061 [Eh]
	 Opposite-Spin Energy      =      -3.0765146104877230 [Eh]
	 Correlation Energy        =      -4.0916221771756289 [Eh]
	 Total Energy              =   -1331.9461144763647553 [Eh]

	 ================> DF-SCS-MP2 Energies <==================
	-----------------------------------------------------------
	 SCS Same-Spin Scale       =       0.3333333333333333 [-]
	 SCS Opposite-Spin Scale   =       1.2000000000000000 [-]
	 SCS Same-Spin Energy      =      -0.3383691888959687 [Eh]
	 SCS Opposite-Spin Energy  =      -3.6918175325852673 [Eh]
	 SCS Correlation Energy    =      -4.0301867214812361 [Eh]
	 SCS Total Energy          =   -1331.8846790206703190 [Eh]
	-----------------------------------------------------------

  Dipole Moment: [D]
     X:    -1.3018      Y:     1.8128      Z:     1.2255     Total:     2.5461

*** Psi4 exiting successfully. Buy a developer a beer!
