                               Psi4 1.3.2 release

  ==> Input File <==

--------------------------------------------------------------------------
#psi4
#
memory 32 gb

molecule  {
0 1
  P       -2.2900960    -0.9400430     0.3446780
  O       -0.9821530    -0.2015620     0.9382890
  O        1.3422500    -1.6754830     1.2308510
  O        0.0787050     2.3596040     0.4621680
  O        3.0685150    -2.1870720    -0.8085900
  O        2.8473350     2.5031130     0.3715350
  O        4.1956880     0.4353970    -0.9728740
  O       -2.8268630     0.0333510    -0.8075310
  O       -3.2591210    -0.7232820     1.6216710
  O       -2.1189930    -2.3436440    -0.0996680
  C        0.1181620     0.0300090     0.0163190
  C        0.9532920    -1.2442050    -0.0757250
  C        0.8395466     1.1615087     0.5458206
  C        2.2596600    -1.0143070    -0.8180370
  C        2.1770750     1.3964720    -0.2280410
  C        3.0258420     0.1487050    -0.2103220
  C       -3.1242130     1.4315980    -0.4888860
  C       -3.5363170     2.0851650    -1.7841190
  H       -0.2830920     0.2988010    -0.9702380
  H        0.3702690    -2.0293640    -0.5720320
  H        1.1571200     0.9978770     1.6121560
  H        2.0609340    -0.7886600    -1.8727560
  H        1.9169870     1.6362870    -1.2735830
  H        3.2958550    -0.0945320     0.8276460
  H        0.5217750    -1.8880320     1.7115100
  H        0.6258474     3.1407763     0.6759179
  H        2.9735430    -2.5473740     0.0946540
  H        3.7214290     2.5491860    -0.0588690
  H        4.6397270    -0.4238340    -1.0970870
  H       -3.8083950    -1.5223380     1.7347280
  H       -3.9305460     1.4455410     0.2493860
  H       -2.2297620     1.8928800    -0.0590960
  H       -3.8005210     3.1308820    -1.6026710
  H       -2.7171960     2.0533230    -2.5048750
  H       -4.4009440     1.5743230    -2.2127240
units angstrom
no_reorient  #important for SAPT in psi4, default
symmetry c1  #important for SAPT in psi4, default
}

set PROPERTIES_ORIGIN ["COM"]
properties('MP2/aug-cc-pvtz', properties = ['dipole'])
--------------------------------------------------------------------------

    Molecular point group: c1
  Charge       = 0
  Multiplicity = 1
  Basis Set: AUG-CC-PVTZ
    Blend: AUG-CC-PVTZ
  Basis Set: (AUG-CC-PVTZ AUX)
    Blend: AUG-CC-PVTZ-JKFIT

    Orbital Energies [Eh]
    ---------------------

    Doubly Occupied:

       1A    -80.117282     2A    -20.615035     3A    -20.607422
       4A    -20.599350     5A    -20.583873     6A    -20.576226
       7A    -20.574670     8A    -20.572860     9A    -20.570602
      10A    -20.523934    11A    -11.319704    12A    -11.305798
      13A    -11.300379    14A    -11.299569    15A    -11.299438
      16A    -11.297799    17A    -11.289914    18A    -11.230102
      19A     -7.632762    20A     -5.531269    21A     -5.530887
      22A     -5.529694    23A     -1.461349    24A     -1.411153
      25A     -1.394600    26A     -1.391222    27A     -1.387214
      28A     -1.371561    29A     -1.362877    30A     -1.352737
      31A     -1.304384    32A     -1.123270    33A     -1.040811
      34A     -1.019256    35A     -1.000128    36A     -0.879063
      37A     -0.865198    38A     -0.860167    39A     -0.822714
      40A     -0.809846    41A     -0.752677    42A     -0.744653
      43A     -0.732680    44A     -0.730339    45A     -0.709147
      46A     -0.687347    47A     -0.678725    48A     -0.673763
      49A     -0.661687    50A     -0.659625    51A     -0.642212
      52A     -0.637254    53A     -0.627277    54A     -0.615703
      55A     -0.602741    56A     -0.597350    57A     -0.584894
      58A     -0.575690    59A     -0.571141    60A     -0.557809
      61A     -0.556749    62A     -0.548192    63A     -0.541350
      64A     -0.537935    65A     -0.530151    66A     -0.521116
      67A     -0.512484    68A     -0.503640    69A     -0.497872
      70A     -0.484298    71A     -0.480469    72A     -0.477140
      73A     -0.461054    74A     -0.453810    75A     -0.443009
      76A     -0.436615

  @DF-RHF Final Energy: -1327.85452865564343

   => Energetics <=

    Nuclear Repulsion Energy =           1773.2112459020045208
    One-Electron Energy =               -5358.5421110878469335
    Two-Electron Energy =                2257.4763365301987506
    Total Energy =                      -1327.8545286556436622
  Basis Set: (AUG-CC-PVTZ AUX)
    Blend: AUG-CC-PVTZ-RI
    Molecular point group: c1

    Geometry (in Angstrom), charge = 0, multiplicity = 1:

       Center              X                  Y                   Z               Mass
    ------------   -----------------  -----------------  -----------------  -----------------
         P           -2.287497517719    -0.938439460668     0.345496177688    30.973761998420
         O           -0.979554517719    -0.199958460668     0.939107177688    15.994914619570
         O            1.344848482281    -1.673879460668     1.231669177688    15.994914619570
         O            0.081303482281     2.361207539332     0.462986177688    15.994914619570
         O            3.071113482281    -2.185468460668    -0.807771822312    15.994914619570
         O            2.849933482281     2.504716539332     0.372353177688    15.994914619570
         O            4.198286482281     0.437000539332    -0.972055822312    15.994914619570
         O           -2.824264517719     0.034954539332    -0.806712822312    15.994914619570
         O           -3.256522517719    -0.721678460668     1.622489177688    15.994914619570
         O           -2.116394517719    -2.342040460668    -0.098849822312    15.994914619570
         C            0.120760482281     0.031612539332     0.017137177688    12.000000000000
         C            0.955890482281    -1.242601460668    -0.074906822312    12.000000000000
         C            0.842145082281     1.163112239332     0.546638777688    12.000000000000
         C            2.262258482281    -1.012703460668    -0.817218822312    12.000000000000
         C            2.179673482281     1.398075539332    -0.227222822312    12.000000000000
         C            3.028440482281     0.150308539332    -0.209503822312    12.000000000000
         C           -3.121614517719     1.433201539332    -0.488067822312    12.000000000000
         C           -3.533718517719     2.086768539332    -1.783300822312    12.000000000000
         H           -0.280493517719     0.300404539332    -0.969419822312     1.007825032230
         H            0.372867482281    -2.027760460668    -0.571213822312     1.007825032230
         H            1.159718482281     0.999480539332     1.612974177688     1.007825032230
         H            2.063532482281    -0.787056460668    -1.871937822312     1.007825032230
         H            1.919585482281     1.637890539332    -1.272764822312     1.007825032230
         H            3.298453482281    -0.092928460668     0.828464177688     1.007825032230
         H            0.524373482281    -1.886428460668     1.712328177688     1.007825032230
         H            0.628445882281     3.142379839332     0.676736077688     1.007825032230
         H            2.976141482281    -2.545770460668     0.095472177688     1.007825032230
         H            3.724027482281     2.550789539332    -0.058050822312     1.007825032230
         H            4.642325482281    -0.422230460668    -1.096268822312     1.007825032230
         H           -3.805796517719    -1.520734460668     1.735546177688     1.007825032230
         H           -3.927947517719     1.447144539332     0.250204177688     1.007825032230
         H           -2.227163517719     1.894483539332    -0.058277822312     1.007825032230
         H           -3.797922517719     3.132485539332    -1.601852822312     1.007825032230
         H           -2.714597517719     2.054926539332    -2.504056822312     1.007825032230
         H           -4.398345517719     1.575926539332    -2.211905822312     1.007825032230

  Basis Set: AUG-CC-PVTZ
    Blend: AUG-CC-PVTZ
  Basis Set: (AUG-CC-PVTZ AUX)
    Blend: AUG-CC-PVTZ-JKFIT
	 Reference Energy          =   -1327.8545286556434348 [Eh]
	 Singles Energy            =      -0.0000000000000000 [Eh]
	 Same-Spin Energy          =      -1.0149247045294476 [Eh]
	 Opposite-Spin Energy      =      -3.0763105981042655 [Eh]
	 Correlation Energy        =      -4.0912353026337129 [Eh]
	 Total Energy              =   -1331.9457639582772117 [Eh]

	 ================> DF-SCS-MP2 Energies <==================
	-----------------------------------------------------------
	 SCS Same-Spin Scale       =       0.3333333333333333 [-]
	 SCS Opposite-Spin Scale   =       1.2000000000000000 [-]
	 SCS Same-Spin Energy      =      -0.3383082348431492 [Eh]
	 SCS Opposite-Spin Energy  =      -3.6915727177251183 [Eh]
	 SCS Correlation Energy    =      -4.0298809525682673 [Eh]
	 SCS Total Energy          =   -1331.8844096082116266 [Eh]
	-----------------------------------------------------------

  Dipole Moment: [D]
     X:    -1.2008      Y:     1.8664      Z:     0.7123     Total:     2.3309

*** Psi4 exiting successfully. Buy a developer a beer!
