                               Psi4 1.4a3.dev225

  ==> Input File <==

--------------------------------------------------------------------------
#psi4
#
memory 32 gb

molecule  {
0 1
  P       -2.3219140    -1.0563120    -0.0968450
  O       -1.0683665    -0.5775354     0.7287422
  O        1.3695440    -1.8069540     1.2202350
  O       -0.1592450     2.1412630     0.5207450
  O        3.3269040    -2.0858120    -0.6453880
  O        2.5724350     2.5270130     0.6374560
  O        4.2203020     0.6406430    -0.6358120
  O       -2.8737010     0.2643620    -0.8096810
  O       -3.3065970    -1.3497020     1.1531960
  O       -2.1044560    -2.1814480    -1.0350500
  C        0.1200290    -0.1583450    -0.0432010
  C        1.0698050    -1.3527180    -0.1046720
  C        0.7441670     1.0454510     0.6308160
  C        2.4193320    -0.9866070    -0.7068450
  C        2.0603010     1.3853380    -0.0470020
  C        3.0180900     0.2181970     0.0056710
  C       -3.2473180     1.4231610     0.0025120
  C       -3.2076300     2.6262440    -0.9075720
  H       -0.2047330     0.1313700    -1.0514980
  H        0.5965010    -2.1549610    -0.6866410
  H        0.9371260     0.8063110     1.6860210
  H        2.3054700    -0.7437210    -1.7704410
  H        1.8633300     1.6367370    -1.1028410
  H        3.2142070    -0.0417910     1.0561650
  H        0.5126160    -2.0057500     1.6426110
  H        0.3598300     2.9232990     0.7925780
  H        3.1793900    -2.4823080     0.2360710
  H        3.4672560     2.6739710     0.2770410
  H        4.7639490    -0.1654590    -0.7244900
  H       -3.7873380    -2.1826420     0.9908450
  H       -4.2474700     1.2335250     0.4005830
  H       -2.5352900     1.5309660     0.8217280
  H       -3.5402110     3.5125760    -0.3587690
  H       -2.1856630     2.7912820    -1.2511950
  H       -3.8637180     2.4807570    -1.7684970
units angstrom
no_reorient  #important for SAPT in psi4, default
symmetry c1  #important for SAPT in psi4, default
}

set PROPERTIES_ORIGIN ["COM"]
properties('MP2/aug-cc-pvtz', properties = ['dipole'])
--------------------------------------------------------------------------

    Molecular point group: c1
  Charge       = 0
  Multiplicity = 1
  Basis Set: AUG-CC-PVTZ
    Blend: AUG-CC-PVTZ
  Basis Set: (AUG-CC-PVTZ AUX)
    Blend: AUG-CC-PVTZ-JKFIT

    Orbital Energies [Eh]
    ---------------------

    Doubly Occupied:

       1A    -80.109026     2A    -20.610478     3A    -20.607806
       4A    -20.591305     5A    -20.586532     6A    -20.580627
       7A    -20.577117     8A    -20.577020     9A    -20.576573
      10A    -20.517095    11A    -11.327595    12A    -11.308398
      13A    -11.304386    14A    -11.302617    15A    -11.301208
      16A    -11.295043    17A    -11.294268    18A    -11.221759
      19A     -7.625346    20A     -5.523902    21A     -5.523473
      22A     -5.522271    23A     -1.462387    24A     -1.411463
      25A     -1.397063    26A     -1.393465    27A     -1.381754
      28A     -1.375355    29A     -1.366282    30A     -1.356394
      31A     -1.298050    32A     -1.122761    33A     -1.033886
      34A     -1.015911    35A     -1.006090    36A     -0.880228
      37A     -0.861752    38A     -0.861091    39A     -0.821895
      40A     -0.811196    41A     -0.755825    42A     -0.747652
      43A     -0.730423    44A     -0.726668    45A     -0.706835
      46A     -0.688019    47A     -0.679546    48A     -0.675735
      49A     -0.663720    50A     -0.658422    51A     -0.643376
      52A     -0.639190    53A     -0.624498    54A     -0.612874
      55A     -0.605636    56A     -0.599039    57A     -0.581283
      58A     -0.579819    59A     -0.567389    60A     -0.561588
      61A     -0.555467    62A     -0.548147    63A     -0.540246
      64A     -0.536800    65A     -0.530330    66A     -0.520159
      67A     -0.509453    68A     -0.503789    69A     -0.494595
      70A     -0.488196    71A     -0.476963    72A     -0.471923
      73A     -0.464069    74A     -0.459242    75A     -0.452991
      76A     -0.438674

  @DF-RHF Final Energy: -1327.86246610589046

   => Energetics <=

    Nuclear Repulsion Energy =           1775.4819556227755584
    One-Electron Energy =               -5363.1299345713314324
    Two-Electron Energy =                2259.7855128426649571
    Total Energy =                      -1327.8624661058906895
  Basis Set: (AUG-CC-PVTZ AUX)
    Blend: AUG-CC-PVTZ-RI
    Molecular point group: c1

    Geometry (in Angstrom), charge = 0, multiplicity = 1:

       Center              X                  Y                   Z               Mass
    ------------   -----------------  -----------------  -----------------  -----------------
         P           -2.308943648671    -1.017689254862    -0.097834648528    30.973761998420
         O           -1.055396148671    -0.538912654862     0.727752551472    15.994914619570
         O            1.382514351329    -1.768331254862     1.219245351472    15.994914619570
         O           -0.146274648671     2.179885745138     0.519755351472    15.994914619570
         O            3.339874351329    -2.047189254862    -0.646377648528    15.994914619570
         O            2.585405351329     2.565635745138     0.636466351472    15.994914619570
         O            4.233272351329     0.679265745138    -0.636801648528    15.994914619570
         O           -2.860730648671     0.302984745138    -0.810670648528    15.994914619570
         O           -3.293626648671    -1.311079254862     1.152206351472    15.994914619570
         O           -2.091485648671    -2.142825254862    -1.036039648528    15.994914619570
         C            0.132999351329    -0.119722254862    -0.044190648528    12.000000000000
         C            1.082775351329    -1.314095254862    -0.105661648528    12.000000000000
         C            0.757137351329     1.084073745138     0.629826351472    12.000000000000
         C            2.432302351329    -0.947984254862    -0.707834648528    12.000000000000
         C            2.073271351329     1.423960745138    -0.047991648528    12.000000000000
         C            3.031060351329     0.256819745138     0.004681351472    12.000000000000
         C           -3.234347648671     1.461783745138     0.001522351472    12.000000000000
         C           -3.194659648671     2.664866745138    -0.908561648528    12.000000000000
         H           -0.191762648671     0.169992745138    -1.052487648528     1.007825032230
         H            0.609471351329    -2.116338254862    -0.687630648528     1.007825032230
         H            0.950096351329     0.844933745138     1.685031351472     1.007825032230
         H            2.318440351329    -0.705098254862    -1.771430648528     1.007825032230
         H            1.876300351329     1.675359745138    -1.103830648528     1.007825032230
         H            3.227177351329    -0.003168254862     1.055175351472     1.007825032230
         H            0.525586351329    -1.967127254862     1.641621351472     1.007825032230
         H            0.372800351329     2.961921745138     0.791588351472     1.007825032230
         H            3.192360351329    -2.443685254862     0.235081351472     1.007825032230
         H            3.480226351329     2.712593745138     0.276051351472     1.007825032230
         H            4.776919351329    -0.126836254862    -0.725479648528     1.007825032230
         H           -3.774367648671    -2.144019254862     0.989855351472     1.007825032230
         H           -4.234499648671     1.272147745138     0.399593351472     1.007825032230
         H           -2.522319648671     1.569588745138     0.820738351472     1.007825032230
         H           -3.527240648671     3.551198745138    -0.359758648528     1.007825032230
         H           -2.172692648671     2.829904745138    -1.252184648528     1.007825032230
         H           -3.850747648671     2.519379745138    -1.769486648528     1.007825032230

  Basis Set: AUG-CC-PVTZ
    Blend: AUG-CC-PVTZ
  Basis Set: (AUG-CC-PVTZ AUX)
    Blend: AUG-CC-PVTZ-JKFIT
	 Reference Energy          =   -1327.8624661058904621 [Eh]
	 Singles Energy            =      -0.0000000000000000 [Eh]
	 Same-Spin Energy          =      -1.0139516228339529 [Eh]
	 Opposite-Spin Energy      =      -3.0748846824598135 [Eh]
	 Correlation Energy        =      -4.0888363052937660 [Eh]
	 Total Energy              =   -1331.9513024111843151 [Eh]

	 ================> DF-SCS-MP2 Energies <==================
	-----------------------------------------------------------
	 SCS Same-Spin Scale       =       0.3333333333333333 [-]
	 SCS Opposite-Spin Scale   =       1.2000000000000000 [-]
	 SCS Same-Spin Energy      =      -0.3379838742779843 [Eh]
	 SCS Opposite-Spin Energy  =      -3.6898616189517761 [Eh]
	 SCS Correlation Energy    =      -4.0278454932297603 [Eh]
	 SCS Total Energy          =   -1331.8903115991201958 [Eh]
	-----------------------------------------------------------

  Dipole Moment: [D]
     X:    -0.4496      Y:     1.5115      Z:     1.9631     Total:     2.5180

*** Psi4 exiting successfully. Buy a developer a beer!
