                               Psi4 1.4a3.dev225

  ==> Input File <==

--------------------------------------------------------------------------
#psi4
#
memory 32 gb

molecule  {
0 1
 Cl       -1.7567080    -0.4154380    -0.1305090
  F        1.9766030    -0.6809970     0.5656630
  C        0.5776700     1.0154460    -0.3119420
  C       -0.5615090     0.6773460     0.6335920
  C        1.4510090    -0.1773130    -0.6330730
  H        0.1778852     1.4503383    -1.2580145
  H        1.1971120     1.7808660     0.1700550
  H       -0.1807600     0.1709150     1.5201680
  H       -1.1015300     1.5754630     0.9351100
  H        0.8822500    -0.9779220    -1.1123470
  H        2.2894640     0.1066980    -1.2757100
units angstrom
no_reorient  #important for SAPT in psi4, default
symmetry c1  #important for SAPT in psi4, default
}

set PROPERTIES_ORIGIN ["COM"]
properties('MP2/aug-cc-pvtz', properties = ['dipole'])
--------------------------------------------------------------------------

    Molecular point group: c1
  Charge       = 0
  Multiplicity = 1
  Basis Set: AUG-CC-PVTZ
    Blend: AUG-CC-PVTZ
  Basis Set: (AUG-CC-PVTZ AUX)
    Blend: AUG-CC-PVTZ-JKFIT

    Orbital Energies [Eh]
    ---------------------

    Doubly Occupied:

       1A   -104.826567     2A    -26.280652     3A    -11.315540
       4A    -11.297893     5A    -11.253758     6A    -10.551072
       7A     -8.017897     8A     -8.016156     9A     -8.016114
      10A     -1.587081    11A     -1.147846    12A     -1.049790
      13A     -0.930586    14A     -0.821151    15A     -0.711366
      16A     -0.706241    17A     -0.666347    18A     -0.620304
      19A     -0.614921    20A     -0.561814    21A     -0.528144
      22A     -0.515533    23A     -0.500515    24A     -0.437524
      25A     -0.435618

  @DF-RHF Final Energy:  -676.13759353900434

   => Energetics <=

    Nuclear Repulsion Energy =            228.5896307301644299
    One-Electron Energy =               -1386.6335842383298314
    Two-Electron Energy =                 481.9063599691610875
    Total Energy =                       -676.1375935390044560
  Basis Set: (AUG-CC-PVTZ AUX)
    Blend: AUG-CC-PVTZ-RI
    Molecular point group: c1

    Geometry (in Angstrom), charge = 0, multiplicity = 1:

       Center              X                  Y                   Z               Mass
    ------------   -----------------  -----------------  -----------------  -----------------
         CL          -1.725652625045    -0.361893766233    -0.145268710884    34.968852682000
         F            2.007658374955    -0.627452766233     0.550903289116    18.998403162730
         C            0.608725374955     1.068990233767    -0.326701710884    12.000000000000
         C           -0.530453625045     0.730890233767     0.618832289116    12.000000000000
         C            1.482064374955    -0.123768766233    -0.647832710884    12.000000000000
         H            0.208940574955     1.503882533767    -1.272774210884     1.007825032230
         H            1.228167374955     1.834410233767     0.155295289116     1.007825032230
         H           -0.149704625045     0.224459233767     1.505408289116     1.007825032230
         H           -1.070474625045     1.629007233767     0.920350289116     1.007825032230
         H            0.913305374955    -0.924377766233    -1.127106710884     1.007825032230
         H            2.320519374955     0.160242233767    -1.290469710884     1.007825032230

  Basis Set: AUG-CC-PVTZ
    Blend: AUG-CC-PVTZ
  Basis Set: (AUG-CC-PVTZ AUX)
    Blend: AUG-CC-PVTZ-JKFIT
	 Reference Energy          =    -676.1375935390043423 [Eh]
	 Singles Energy            =      -0.0000000000000000 [Eh]
	 Same-Spin Energy          =      -0.2569379044287060 [Eh]
	 Opposite-Spin Energy      =      -0.8318868571867166 [Eh]
	 Correlation Energy        =      -1.0888247616154225 [Eh]
	 Total Energy              =    -677.2264183006197982 [Eh]

	 ================> DF-SCS-MP2 Energies <==================
	-----------------------------------------------------------
	 SCS Same-Spin Scale       =       0.3333333333333333 [-]
	 SCS Opposite-Spin Scale   =       1.2000000000000000 [-]
	 SCS Same-Spin Energy      =      -0.0856459681429020 [Eh]
	 SCS Opposite-Spin Energy  =      -0.9982642286240599 [Eh]
	 SCS Correlation Energy    =      -1.0839101967669620 [Eh]
	 SCS Total Energy          =    -677.2215037357713072 [Eh]
	-----------------------------------------------------------

  Dipole Moment: [D]
     X:     0.6286      Y:     1.9678      Z:    -0.7747     Total:     2.2062

*** Psi4 exiting successfully. Buy a developer a beer!
