                               Psi4 1.4a3.dev225

  ==> Input File <==

--------------------------------------------------------------------------
#psi4
#
memory 32 gb

molecule  {
0 1
 Cl       -1.7567080    -0.4154380    -0.1305090
  F        1.9766030    -0.6809970     0.5656630
  C        0.5776700     1.0154460    -0.3119420
  C       -0.5615090     0.6773460     0.6335920
  C        1.4510090    -0.1773130    -0.6330730
  H        0.1850540     1.4425400    -1.2410500
  H        1.2536144     1.8506838     0.2140204
  H       -0.1807600     0.1709150     1.5201680
  H       -1.1015300     1.5754630     0.9351100
  H        0.8822500    -0.9779220    -1.1123470
  H        2.2894640     0.1066980    -1.2757100
units angstrom
no_reorient  #important for SAPT in psi4, default
symmetry c1  #important for SAPT in psi4, default
}

set PROPERTIES_ORIGIN ["COM"]
properties('MP2/aug-cc-pvtz', properties = ['dipole'])
--------------------------------------------------------------------------

    Molecular point group: c1
  Charge       = 0
  Multiplicity = 1
  Basis Set: AUG-CC-PVTZ
    Blend: AUG-CC-PVTZ
  Basis Set: (AUG-CC-PVTZ AUX)
    Blend: AUG-CC-PVTZ-JKFIT

    Orbital Energies [Eh]
    ---------------------

    Doubly Occupied:

       1A   -104.827435     2A    -26.280624     3A    -11.316483
       4A    -11.298551     5A    -11.262962     6A    -10.551939
       7A     -8.018762     8A     -8.017019     9A     -8.016974
      10A     -1.587025    11A     -1.148043    12A     -1.047410
      13A     -0.930576    14A     -0.817424    15A     -0.711089
      16A     -0.706400    17A     -0.665451    18A     -0.616357
      19A     -0.609631    20A     -0.563704    21A     -0.529779
      22A     -0.516769    23A     -0.492045    24A     -0.438120
      25A     -0.436124

  @DF-RHF Final Energy:  -676.13173209359036

   => Energetics <=

    Nuclear Repulsion Energy =            228.2210515557453903
    One-Electron Energy =               -1385.8921755244505221
    Two-Electron Energy =                 481.5393918751148021
    Total Energy =                       -676.1317320935903581
  Basis Set: (AUG-CC-PVTZ AUX)
    Blend: AUG-CC-PVTZ-RI
    Molecular point group: c1

    Geometry (in Angstrom), charge = 0, multiplicity = 1:

       Center              X                  Y                   Z               Mass
    ------------   -----------------  -----------------  -----------------  -----------------
         CL          -1.726320957699    -0.362544761613    -0.145908269143    34.968852682000
         F            2.006990042301    -0.628103761613     0.550263730857    18.998403162730
         C            0.608057042301     1.068339238387    -0.327341269143    12.000000000000
         C           -0.531121957699     0.730239238387     0.618192730857    12.000000000000
         C            1.481396042301    -0.124419761613    -0.648472269143    12.000000000000
         H            0.215441042301     1.495433238387    -1.256449269143     1.007825032230
         H            1.284001442301     1.903577038387     0.198621130857     1.007825032230
         H           -0.150372957699     0.223808238387     1.504768730857     1.007825032230
         H           -1.071142957699     1.628356238387     0.919710730857     1.007825032230
         H            0.912637042301    -0.925028761613    -1.127746269143     1.007825032230
         H            2.319851042301     0.159591238387    -1.291109269143     1.007825032230

  Basis Set: AUG-CC-PVTZ
    Blend: AUG-CC-PVTZ
  Basis Set: (AUG-CC-PVTZ AUX)
    Blend: AUG-CC-PVTZ-JKFIT
	 Reference Energy          =    -676.1317320935903581 [Eh]
	 Singles Energy            =      -0.0000000000000000 [Eh]
	 Same-Spin Energy          =      -0.2569642950913567 [Eh]
	 Opposite-Spin Energy      =      -0.8324571823894180 [Eh]
	 Correlation Energy        =      -1.0894214774807747 [Eh]
	 Total Energy              =    -677.2211535710711132 [Eh]

	 ================> DF-SCS-MP2 Energies <==================
	-----------------------------------------------------------
	 SCS Same-Spin Scale       =       0.3333333333333333 [-]
	 SCS Opposite-Spin Scale   =       1.2000000000000000 [-]
	 SCS Same-Spin Energy      =      -0.0856547650304522 [Eh]
	 SCS Opposite-Spin Energy  =      -0.9989486188673016 [Eh]
	 SCS Correlation Energy    =      -1.0846033838977538 [Eh]
	 SCS Total Energy          =    -677.2163354774880872 [Eh]
	-----------------------------------------------------------

  Dipole Moment: [D]
     X:     0.5961      Y:     1.9222      Z:    -0.7974     Total:     2.1647

*** Psi4 exiting successfully. Buy a developer a beer!
