                               Psi4 1.4a3.dev225

  ==> Input File <==

--------------------------------------------------------------------------
#psi4
#
memory 32 gb

molecule  {
0 1
 Cl       -1.7567080    -0.4154380    -0.1305090
  F        1.9766030    -0.6809970     0.5656630
  C        0.5776700     1.0154460    -0.3119420
  C       -0.5615090     0.6773460     0.6335920
  C        1.4510090    -0.1773130    -0.6330730
  H        0.1850540     1.4425400    -1.2410500
  H        1.1858115     1.7669024     0.1612619
  H       -0.1807600     0.1709150     1.5201680
  H       -1.1015300     1.5754630     0.9351100
  H        0.8822500    -0.9779220    -1.1123470
  H        2.2894640     0.1066980    -1.2757100
units angstrom
no_reorient  #important for SAPT in psi4, default
symmetry c1  #important for SAPT in psi4, default
}

set PROPERTIES_ORIGIN ["COM"]
properties('MP2/aug-cc-pvtz', properties = ['dipole'])
--------------------------------------------------------------------------

    Molecular point group: c1
  Charge       = 0
  Multiplicity = 1
  Basis Set: AUG-CC-PVTZ
    Blend: AUG-CC-PVTZ
  Basis Set: (AUG-CC-PVTZ AUX)
    Blend: AUG-CC-PVTZ-JKFIT

    Orbital Energies [Eh]
    ---------------------

    Doubly Occupied:

       1A   -104.826400     2A    -26.280449     3A    -11.315189
       4A    -11.297557     5A    -11.249002     6A    -10.550905
       7A     -8.017731     8A     -8.015990     9A     -8.015950
      10A     -1.586892    11A     -1.148092    12A     -1.051297
      13A     -0.930534    14A     -0.823890    15A     -0.711399
      16A     -0.706972    17A     -0.666599    18A     -0.622320
      19A     -0.614842    20A     -0.563096    21A     -0.529543
      22A     -0.515534    23A     -0.501858    24A     -0.437356
      25A     -0.435488

  @DF-RHF Final Energy:  -676.13815536850007

   => Energetics <=

    Nuclear Repulsion Energy =            228.7819607382284346
    One-Electron Energy =               -1387.0104660040851741
    Two-Electron Energy =                 482.0903498973567025
    Total Energy =                       -676.1381553685000654
  Basis Set: (AUG-CC-PVTZ AUX)
    Blend: AUG-CC-PVTZ-RI
    Molecular point group: c1

    Geometry (in Angstrom), charge = 0, multiplicity = 1:

       Center              X                  Y                   Z               Mass
    ------------   -----------------  -----------------  -----------------  -----------------
         CL          -1.725609256143    -0.361665339748    -0.145354482999    34.968852682000
         F            2.007701743857    -0.627224339748     0.550817517001    18.998403162730
         C            0.608768743857     1.069218660252    -0.326787482999    12.000000000000
         C           -0.530410256143     0.731118660252     0.618746517001    12.000000000000
         C            1.482107743857    -0.123540339748    -0.647918482999    12.000000000000
         H            0.216152743857     1.496312660252    -1.255895482999     1.007825032230
         H            1.216910243857     1.820675060252     0.146416417001     1.007825032230
         H           -0.149661256143     0.224687660252     1.505322517001     1.007825032230
         H           -1.070431256143     1.629235660252     0.920264517001     1.007825032230
         H            0.913348743857    -0.924149339748    -1.127192482999     1.007825032230
         H            2.320562743857     0.160470660252    -1.290555482999     1.007825032230

  Basis Set: AUG-CC-PVTZ
    Blend: AUG-CC-PVTZ
  Basis Set: (AUG-CC-PVTZ AUX)
    Blend: AUG-CC-PVTZ-JKFIT
	 Reference Energy          =    -676.1381553685000654 [Eh]
	 Singles Energy            =      -0.0000000000000000 [Eh]
	 Same-Spin Energy          =      -0.2569213511005896 [Eh]
	 Opposite-Spin Energy      =      -0.8316364874589750 [Eh]
	 Correlation Energy        =      -1.0885578385595647 [Eh]
	 Total Energy              =    -677.2267132070596745 [Eh]

	 ================> DF-SCS-MP2 Energies <==================
	-----------------------------------------------------------
	 SCS Same-Spin Scale       =       0.3333333333333333 [-]
	 SCS Opposite-Spin Scale   =       1.2000000000000000 [-]
	 SCS Same-Spin Energy      =      -0.0856404503668632 [Eh]
	 SCS Opposite-Spin Energy  =      -0.9979637849507700 [Eh]
	 SCS Correlation Energy    =      -1.0836042353176332 [Eh]
	 SCS Total Energy          =    -677.2217596038176453 [Eh]
	-----------------------------------------------------------

  Dipole Moment: [D]
     X:     0.6333      Y:     1.9805      Z:    -0.7789     Total:     2.2204

*** Psi4 exiting successfully. Buy a developer a beer!
