                               Psi4 1.4a3.dev225

  ==> Input File <==

--------------------------------------------------------------------------
#psi4
#
memory 32 gb

molecule  {
0 1
 Cl       -1.7567080    -0.4154380    -0.1305090
  F        1.9336429    -0.7664024     0.5446166
  C        0.5776700     1.0154460    -0.3119420
  C       -0.5615090     0.6773460     0.6335920
  C        1.4510090    -0.1773130    -0.6330730
  H        0.1850540     1.4425400    -1.2410500
  H        1.1971120     1.7808660     0.1700550
  H       -0.1807600     0.1709150     1.5201680
  H       -1.1015300     1.5754630     0.9351100
  H        0.8822500    -0.9779220    -1.1123470
  H        2.2894640     0.1066980    -1.2757100
units angstrom
no_reorient  #important for SAPT in psi4, default
symmetry c1  #important for SAPT in psi4, default
}

set PROPERTIES_ORIGIN ["COM"]
properties('MP2/aug-cc-pvtz', properties = ['dipole'])
--------------------------------------------------------------------------

    Molecular point group: c1
  Charge       = 0
  Multiplicity = 1
  Basis Set: AUG-CC-PVTZ
    Blend: AUG-CC-PVTZ
  Basis Set: (AUG-CC-PVTZ AUX)
    Blend: AUG-CC-PVTZ-JKFIT

    Orbital Energies [Eh]
    ---------------------

    Doubly Occupied:

       1A   -104.826386     2A    -26.280131     3A    -11.315028
       4A    -11.297898     5A    -11.252592     6A    -10.550882
       7A     -8.017708     8A     -8.015964     9A     -8.015923
      10A     -1.586429    11A     -1.148074    12A     -1.050785
      13A     -0.930383    14A     -0.823245    15A     -0.710911
      16A     -0.704966    17A     -0.666994    18A     -0.622024
      19A     -0.614798    20A     -0.561319    21A     -0.531181
      22A     -0.516741    23A     -0.498460    24A     -0.437322
      25A     -0.435455

  @DF-RHF Final Energy:  -676.13734401153749

   => Energetics <=

    Nuclear Repulsion Energy =            228.7108307137754366
    One-Electron Energy =               -1386.8731467301915927
    Two-Electron Energy =                 482.0249720048785775
    Total Energy =                       -676.1373440115374933
  Basis Set: (AUG-CC-PVTZ AUX)
    Blend: AUG-CC-PVTZ-RI
    Molecular point group: c1

    Geometry (in Angstrom), charge = 0, multiplicity = 1:

       Center              X                  Y                   Z               Mass
    ------------   -----------------  -----------------  -----------------  -----------------
         CL          -1.717227325946    -0.344912679676    -0.141282313867    34.968852682000
         F            1.973123574054    -0.695877079676     0.533843286133    18.998403162730
         C            0.617150674054     1.085971320324    -0.322715313867    12.000000000000
         C           -0.522028325946     0.747871320324     0.622818686133    12.000000000000
         C            1.490489674054    -0.106787679676    -0.643846313867    12.000000000000
         H            0.224534674054     1.513065320324    -1.251823313867     1.007825032230
         H            1.236592674054     1.851391320324     0.159281686133     1.007825032230
         H           -0.141279325946     0.241440320324     1.509394686133     1.007825032230
         H           -1.062049325946     1.645988320324     0.924336686133     1.007825032230
         H            0.921730674054    -0.907396679676    -1.123120313867     1.007825032230
         H            2.328944674054     0.177223320324    -1.286483313867     1.007825032230

  Basis Set: AUG-CC-PVTZ
    Blend: AUG-CC-PVTZ
  Basis Set: (AUG-CC-PVTZ AUX)
    Blend: AUG-CC-PVTZ-JKFIT
	 Reference Energy          =    -676.1373440115374933 [Eh]
	 Singles Energy            =      -0.0000000000000000 [Eh]
	 Same-Spin Energy          =      -0.2569350745751459 [Eh]
	 Opposite-Spin Energy      =      -0.8317849396400004 [Eh]
	 Correlation Energy        =      -1.0887200142151463 [Eh]
	 Total Energy              =    -677.2260640257526347 [Eh]

	 ================> DF-SCS-MP2 Energies <==================
	-----------------------------------------------------------
	 SCS Same-Spin Scale       =       0.3333333333333333 [-]
	 SCS Opposite-Spin Scale   =       1.2000000000000000 [-]
	 SCS Same-Spin Energy      =      -0.0856450248583820 [Eh]
	 SCS Opposite-Spin Energy  =      -0.9981419275680005 [Eh]
	 SCS Correlation Energy    =      -1.0837869524263823 [Eh]
	 SCS Total Energy          =    -677.2211309639639012 [Eh]
	-----------------------------------------------------------

  Dipole Moment: [D]
     X:     0.6725      Y:     2.0854      Z:    -0.7545     Total:     2.3174

*** Psi4 exiting successfully. Buy a developer a beer!
