                               Psi4 1.4a3.dev225

  ==> Input File <==

--------------------------------------------------------------------------
#psi4
#
memory 32 gb

molecule  {
0 1
 Cl       -1.7567080    -0.4154380    -0.1305090
  F        1.9766030    -0.6809970     0.5656630
  C        0.5776700     1.0154460    -0.3119420
  C       -0.5615090     0.6773460     0.6335920
  C        1.4510090    -0.1773130    -0.6330730
  H        0.2567416     1.3645571    -1.0714046
  H        1.1971120     1.7808660     0.1700550
  H       -0.1807600     0.1709150     1.5201680
  H       -1.1015300     1.5754630     0.9351100
  H        0.8822500    -0.9779220    -1.1123470
  H        2.2894640     0.1066980    -1.2757100
units angstrom
no_reorient  #important for SAPT in psi4, default
symmetry c1  #important for SAPT in psi4, default
}

set PROPERTIES_ORIGIN ["COM"]
properties('MP2/aug-cc-pvtz', properties = ['dipole'])
--------------------------------------------------------------------------

    Molecular point group: c1
  Charge       = 0
  Multiplicity = 1
  Basis Set: AUG-CC-PVTZ
    Blend: AUG-CC-PVTZ
  Basis Set: (AUG-CC-PVTZ AUX)
    Blend: AUG-CC-PVTZ-JKFIT

    Orbital Energies [Eh]
    ---------------------

    Doubly Occupied:

       1A   -104.826529     2A    -26.279149     3A    -11.314267
       4A    -11.296308     5A    -11.227164     6A    -10.551031
       7A     -8.017857     8A     -8.016123     9A     -8.016081
      10A     -1.585603    11A     -1.151541    12A     -1.061416
      13A     -0.930335    14A     -0.843195    15A     -0.715797
      16A     -0.709623    17A     -0.666663    18A     -0.623165
      19A     -0.613676    20A     -0.580441    21A     -0.537911
      22A     -0.515740    23A     -0.499760    24A     -0.437163
      25A     -0.435362

  @DF-RHF Final Energy:  -676.10463003686129

   => Energetics <=

    Nuclear Repulsion Energy =            229.7580495864530405
    One-Electron Energy =               -1388.8215565284240256
    Two-Electron Energy =                 482.9588769051096051
    Total Energy =                       -676.1046300368612947
  Basis Set: (AUG-CC-PVTZ AUX)
    Blend: AUG-CC-PVTZ-RI
    Molecular point group: c1

    Geometry (in Angstrom), charge = 0, multiplicity = 1:

       Center              X                  Y                   Z               Mass
    ------------   -----------------  -----------------  -----------------  -----------------
         CL          -1.726480351036    -0.360993353219    -0.147227484864    34.968852682000
         F            2.006830648964    -0.626552353219     0.548944515136    18.998403162730
         C            0.607897648964     1.069890646781    -0.328660484864    12.000000000000
         C           -0.531281351036     0.731790646781     0.616873515136    12.000000000000
         C            1.481236648964    -0.122868353219    -0.649791484864    12.000000000000
         H            0.286969248964     1.419001746781    -1.088123084864     1.007825032230
         H            1.227339648964     1.835310646781     0.153336515136     1.007825032230
         H           -0.150532351036     0.225359646781     1.503449515136     1.007825032230
         H           -1.071302351036     1.629907646781     0.918391515136     1.007825032230
         H            0.912477648964    -0.923477353219    -1.129065484864     1.007825032230
         H            2.319691648964     0.161142646781    -1.292428484864     1.007825032230

  Basis Set: AUG-CC-PVTZ
    Blend: AUG-CC-PVTZ
  Basis Set: (AUG-CC-PVTZ AUX)
    Blend: AUG-CC-PVTZ-JKFIT
	 Reference Energy          =    -676.1046300368612947 [Eh]
	 Singles Energy            =      -0.0000000000000000 [Eh]
	 Same-Spin Energy          =      -0.2569267280947551 [Eh]
	 Opposite-Spin Energy      =      -0.8311386597616428 [Eh]
	 Correlation Energy        =      -1.0880653878563979 [Eh]
	 Total Energy              =    -677.1926954247177264 [Eh]

	 ================> DF-SCS-MP2 Energies <==================
	-----------------------------------------------------------
	 SCS Same-Spin Scale       =       0.3333333333333333 [-]
	 SCS Opposite-Spin Scale   =       1.2000000000000000 [-]
	 SCS Same-Spin Energy      =      -0.0856422426982517 [Eh]
	 SCS Opposite-Spin Energy  =      -0.9973663917139713 [Eh]
	 SCS Correlation Energy    =      -1.0830086344122229 [Eh]
	 SCS Total Energy          =    -677.1876386712734757 [Eh]
	-----------------------------------------------------------

  Dipole Moment: [D]
     X:     0.6275      Y:     2.0000      Z:    -0.8245     Total:     2.2525

*** Psi4 exiting successfully. Buy a developer a beer!
