                               Psi4 1.4a3.dev225

  ==> Input File <==

--------------------------------------------------------------------------
#psi4
#
memory 32 gb

molecule  {
0 1
 Cl       -1.7567080    -0.4154380    -0.1305090
  F        1.9766030    -0.6809970     0.5656630
  C        0.5776700     1.0154460    -0.3119420
  C       -0.5615090     0.6773460     0.6335920
  C        1.4510090    -0.1773130    -0.6330730
  H        0.1850540     1.4425400    -1.2410500
  H        1.1688608     1.7459571     0.1480723
  H       -0.1807600     0.1709150     1.5201680
  H       -1.1015300     1.5754630     0.9351100
  H        0.8822500    -0.9779220    -1.1123470
  H        2.2894640     0.1066980    -1.2757100
units angstrom
no_reorient  #important for SAPT in psi4, default
symmetry c1  #important for SAPT in psi4, default
}

set PROPERTIES_ORIGIN ["COM"]
properties('MP2/aug-cc-pvtz', properties = ['dipole'])
--------------------------------------------------------------------------

    Molecular point group: c1
  Charge       = 0
  Multiplicity = 1
  Basis Set: AUG-CC-PVTZ
    Blend: AUG-CC-PVTZ
  Basis Set: (AUG-CC-PVTZ AUX)
    Blend: AUG-CC-PVTZ-JKFIT

    Orbital Energies [Eh]
    ---------------------

    Doubly Occupied:

       1A   -104.826197     2A    -26.280431     3A    -11.314923
       4A    -11.297355     5A    -11.245357     6A    -10.550701
       7A     -8.017527     8A     -8.015787     9A     -8.015747
      10A     -1.586882    11A     -1.148254    12A     -1.052665
      13A     -0.930613    14A     -0.826015    15A     -0.711638
      16A     -0.707120    17A     -0.667103    18A     -0.625244
      19A     -0.614849    20A     -0.562991    21A     -0.529575
      22A     -0.515300    23A     -0.503860    24A     -0.437196
      25A     -0.435354

  @DF-RHF Final Energy:  -676.13715893674726

   => Energetics <=

    Nuclear Repulsion Energy =            228.9342200813058525
    One-Electron Energy =               -1387.3053942232818372
    Two-Electron Energy =                 482.2340152052289000
    Total Energy =                       -676.1371589367472552
  Basis Set: (AUG-CC-PVTZ AUX)
    Blend: AUG-CC-PVTZ-RI
    Molecular point group: c1

    Geometry (in Angstrom), charge = 0, multiplicity = 1:

       Center              X                  Y                   Z               Mass
    ------------   -----------------  -----------------  -----------------  -----------------
         CL          -1.725431331016    -0.361445484807    -0.145216036725    34.968852682000
         F            2.007879668984    -0.627004484807     0.550955963275    18.998403162730
         C            0.608946668984     1.069438515193    -0.326649036725    12.000000000000
         C           -0.530232331016     0.731338515193     0.618884963275    12.000000000000
         C            1.482285668984    -0.123320484807    -0.647780036725    12.000000000000
         H            0.216330668984     1.496532515193    -1.255757036725     1.007825032230
         H            1.200137468984     1.799949615193     0.133365263275     1.007825032230
         H           -0.149483331016     0.224907515193     1.505460963275     1.007825032230
         H           -1.070253331016     1.629455515193     0.920402963275     1.007825032230
         H            0.913526668984    -0.923929484807    -1.127054036725     1.007825032230
         H            2.320740668984     0.160690515193    -1.290417036725     1.007825032230

  Basis Set: AUG-CC-PVTZ
    Blend: AUG-CC-PVTZ
  Basis Set: (AUG-CC-PVTZ AUX)
    Blend: AUG-CC-PVTZ-JKFIT
	 Reference Energy          =    -676.1371589367472552 [Eh]
	 Singles Energy            =      -0.0000000000000000 [Eh]
	 Same-Spin Energy          =      -0.2569164901690590 [Eh]
	 Opposite-Spin Energy      =      -0.8314857328326907 [Eh]
	 Correlation Energy        =      -1.0884022230017496 [Eh]
	 Total Energy              =    -677.2255611597489633 [Eh]

	 ================> DF-SCS-MP2 Energies <==================
	-----------------------------------------------------------
	 SCS Same-Spin Scale       =       0.3333333333333333 [-]
	 SCS Opposite-Spin Scale   =       1.2000000000000000 [-]
	 SCS Same-Spin Energy      =      -0.0856388300563530 [Eh]
	 SCS Opposite-Spin Energy  =      -0.9977828793992287 [Eh]
	 SCS Correlation Energy    =      -1.0834217094555818 [Eh]
	 SCS Total Energy          =    -677.2205806462028477 [Eh]
	-----------------------------------------------------------

  Dipole Moment: [D]
     X:     0.6405      Y:     1.9921      Z:    -0.7754     Total:     2.2315

*** Psi4 exiting successfully. Buy a developer a beer!
