                               Psi4 1.4a3.dev225

  ==> Input File <==

--------------------------------------------------------------------------
#psi4
#
memory 32 gb

molecule  {
0 1
 Cl       -1.7567080    -0.4154380    -0.1305090
  F        1.9766030    -0.6809970     0.5656630
  C        0.5776700     1.0154460    -0.3119420
  C       -0.5615090     0.6773460     0.6335920
  C        1.4510090    -0.1773130    -0.6330730
  H        0.1850540     1.4425400    -1.2410500
  H        1.3101168     1.9205016     0.2579857
  H       -0.1807600     0.1709150     1.5201680
  H       -1.1015300     1.5754630     0.9351100
  H        0.8822500    -0.9779220    -1.1123470
  H        2.2894640     0.1066980    -1.2757100
units angstrom
no_reorient  #important for SAPT in psi4, default
symmetry c1  #important for SAPT in psi4, default
}

set PROPERTIES_ORIGIN ["COM"]
properties('MP2/aug-cc-pvtz', properties = ['dipole'])
--------------------------------------------------------------------------

    Molecular point group: c1
  Charge       = 0
  Multiplicity = 1
  Basis Set: AUG-CC-PVTZ
    Blend: AUG-CC-PVTZ
  Basis Set: (AUG-CC-PVTZ AUX)
    Blend: AUG-CC-PVTZ-JKFIT

    Orbital Energies [Eh]
    ---------------------

    Doubly Occupied:

       1A   -104.828567     2A    -26.280914     3A    -11.317839
       4A    -11.299607     5A    -11.273680     6A    -10.553063
       7A     -8.019884     8A     -8.018138     9A     -8.018088
      10A     -1.587272    11A     -1.148590    12A     -1.045756
      13A     -0.931014    14A     -0.814147    15A     -0.711406
      16A     -0.706109    17A     -0.665281    18A     -0.616781
      19A     -0.601704    20A     -0.564422    21A     -0.530391
      22A     -0.518108    23A     -0.481892    24A     -0.438865
      25A     -0.436659

  @DF-RHF Final Energy:  -676.11842432759909

   => Energetics <=

    Nuclear Repulsion Energy =            227.8027369306259686
    One-Electron Energy =               -1385.0259696540445020
    Two-Electron Energy =                 481.1048083958193615
    Total Energy =                       -676.1184243275990866
  Basis Set: (AUG-CC-PVTZ AUX)
    Blend: AUG-CC-PVTZ-RI
    Molecular point group: c1

    Geometry (in Angstrom), charge = 0, multiplicity = 1:

       Center              X                  Y                   Z               Mass
    ------------   -----------------  -----------------  -----------------  -----------------
         CL          -1.726914042155    -0.363277612818    -0.146369756372    34.968852682000
         F            2.006396957845    -0.628836612818     0.549802243628    18.998403162730
         C            0.607463957845     1.067606387182    -0.327802756372    12.000000000000
         C           -0.531715042155     0.729506387182     0.617731243628    12.000000000000
         C            1.480802957845    -0.125152612818    -0.648933756372    12.000000000000
         H            0.214847957845     1.494700387182    -1.256910756372     1.007825032230
         H            1.339910757845     1.972661987182     0.242124943628     1.007825032230
         H           -0.150966042155     0.223075387182     1.504307243628     1.007825032230
         H           -1.071736042155     1.627623387182     0.919249243628     1.007825032230
         H            0.912043957845    -0.925761612818    -1.128207756372     1.007825032230
         H            2.319257957845     0.158858387182    -1.291570756372     1.007825032230

  Basis Set: AUG-CC-PVTZ
    Blend: AUG-CC-PVTZ
  Basis Set: (AUG-CC-PVTZ AUX)
    Blend: AUG-CC-PVTZ-JKFIT
	 Reference Energy          =    -676.1184243275990866 [Eh]
	 Singles Energy            =      -0.0000000000000000 [Eh]
	 Same-Spin Energy          =      -0.2570055120943671 [Eh]
	 Opposite-Spin Energy      =      -0.8333257474882330 [Eh]
	 Correlation Energy        =      -1.0903312595826000 [Eh]
	 Total Energy              =    -677.2087555871817131 [Eh]

	 ================> DF-SCS-MP2 Energies <==================
	-----------------------------------------------------------
	 SCS Same-Spin Scale       =       0.3333333333333333 [-]
	 SCS Opposite-Spin Scale   =       1.2000000000000000 [-]
	 SCS Same-Spin Energy      =      -0.0856685040314557 [Eh]
	 SCS Opposite-Spin Energy  =      -0.9999908969858795 [Eh]
	 SCS Correlation Energy    =      -1.0856594010173353 [Eh]
	 SCS Total Energy          =    -677.2040837286164106 [Eh]
	-----------------------------------------------------------

  Dipole Moment: [D]
     X:     0.5553      Y:     1.8596      Z:    -0.8180     Total:     2.1060

*** Psi4 exiting successfully. Buy a developer a beer!
