                               Psi4 1.4a3.dev225

  ==> Input File <==

--------------------------------------------------------------------------
#psi4
#
memory 32 gb

molecule  {
0 1
 Cl       -1.7567080    -0.4154380    -0.1305090
  F        1.9766030    -0.6809970     0.5656630
  C        0.5776700     1.0154460    -0.3119420
  C       -0.5615090     0.6773460     0.6335920
  C        1.4510090    -0.1773130    -0.6330730
  H        0.1850540     1.4425400    -1.2410500
  H        1.1406096     1.7110482     0.1260896
  H       -0.1807600     0.1709150     1.5201680
  H       -1.1015300     1.5754630     0.9351100
  H        0.8822500    -0.9779220    -1.1123470
  H        2.2894640     0.1066980    -1.2757100
units angstrom
no_reorient  #important for SAPT in psi4, default
symmetry c1  #important for SAPT in psi4, default
}

set PROPERTIES_ORIGIN ["COM"]
properties('MP2/aug-cc-pvtz', properties = ['dipole'])
--------------------------------------------------------------------------

    Molecular point group: c1
  Charge       = 0
  Multiplicity = 1
  Basis Set: AUG-CC-PVTZ
    Blend: AUG-CC-PVTZ
  Basis Set: (AUG-CC-PVTZ AUX)
    Blend: AUG-CC-PVTZ-JKFIT

    Orbital Energies [Eh]
    ---------------------

    Doubly Occupied:

       1A   -104.825906     2A    -26.280419     3A    -11.314533
       4A    -11.297060     5A    -11.239197     6A    -10.550408
       7A     -8.017235     8A     -8.015495     9A     -8.015457
      10A     -1.586883    11A     -1.148689    12A     -1.055349
      13A     -0.930832    14A     -0.830045    15A     -0.712210
      16A     -0.707345    17A     -0.668184    18A     -0.630099
      19A     -0.614775    20A     -0.562860    21A     -0.529714
      22A     -0.514989    23A     -0.506800    24A     -0.436964
      25A     -0.435160

  @DF-RHF Final Energy:  -676.13217279367552

   => Energetics <=

    Nuclear Repulsion Energy =            229.2005171658485381
    One-Electron Energy =               -1387.8121677984129292
    Two-Electron Energy =                 482.4794778388887835
    Total Energy =                       -676.1321727936755224
  Basis Set: (AUG-CC-PVTZ AUX)
    Blend: AUG-CC-PVTZ-RI
    Molecular point group: c1

    Geometry (in Angstrom), charge = 0, multiplicity = 1:

       Center              X                  Y                   Z               Mass
    ------------   -----------------  -----------------  -----------------  -----------------
         CL          -1.725134788789    -0.361079059204    -0.144985292586    34.968852682000
         F            2.008176211211    -0.626638059204     0.551186707414    18.998403162730
         C            0.609243211211     1.069804940796    -0.326418292586    12.000000000000
         C           -0.529935788789     0.731704940796     0.619115707414    12.000000000000
         C            1.482582211211    -0.122954059204    -0.647549292586    12.000000000000
         H            0.216627211211     1.496898940796    -1.255526292586     1.007825032230
         H            1.172182811211     1.765407140796     0.111613307414     1.007825032230
         H           -0.149186788789     0.225273940796     1.505691707414     1.007825032230
         H           -1.069956788789     1.629821940796     0.920633707414     1.007825032230
         H            0.913823211211    -0.923563059204    -1.126823292586     1.007825032230
         H            2.321037211211     0.161056940796    -1.290186292586     1.007825032230

  Basis Set: AUG-CC-PVTZ
    Blend: AUG-CC-PVTZ
  Basis Set: (AUG-CC-PVTZ AUX)
    Blend: AUG-CC-PVTZ-JKFIT
	 Reference Energy          =    -676.1321727936755224 [Eh]
	 Singles Energy            =      -0.0000000000000000 [Eh]
	 Same-Spin Energy          =      -0.2569181623953478 [Eh]
	 Opposite-Spin Energy      =      -0.8312998355176211 [Eh]
	 Correlation Energy        =      -1.0882179979129689 [Eh]
	 Total Energy              =    -677.2203907915884429 [Eh]

	 ================> DF-SCS-MP2 Energies <==================
	-----------------------------------------------------------
	 SCS Same-Spin Scale       =       0.3333333333333333 [-]
	 SCS Opposite-Spin Scale   =       1.2000000000000000 [-]
	 SCS Same-Spin Energy      =      -0.0856393874651159 [Eh]
	 SCS Opposite-Spin Energy  =      -0.9975598026211453 [Eh]
	 SCS Correlation Energy    =      -1.0831991900862612 [Eh]
	 SCS Total Energy          =    -677.2153719837617700 [Eh]
	-----------------------------------------------------------

  Dipole Moment: [D]
     X:     0.6505      Y:     2.0084      Z:    -0.7707     Total:     2.2475

*** Psi4 exiting successfully. Buy a developer a beer!
