                               Psi4 1.4a3.dev225

  ==> Input File <==

--------------------------------------------------------------------------
#psi4
#
memory 32 gb

molecule  {
0 1
 Cl       -1.7567080    -0.4154380    -0.1305090
  F        1.9766030    -0.6809970     0.5656630
  C        0.5776700     1.0154460    -0.3119420
  C       -0.5615090     0.6773460     0.6335920
  C        1.4510090    -0.1773130    -0.6330730
  H        0.1850540     1.4425400    -1.2410500
  H        1.0841072     1.6412304     0.0821243
  H       -0.1807600     0.1709150     1.5201680
  H       -1.1015300     1.5754630     0.9351100
  H        0.8822500    -0.9779220    -1.1123470
  H        2.2894640     0.1066980    -1.2757100
units angstrom
no_reorient  #important for SAPT in psi4, default
symmetry c1  #important for SAPT in psi4, default
}

set PROPERTIES_ORIGIN ["COM"]
properties('MP2/aug-cc-pvtz', properties = ['dipole'])
--------------------------------------------------------------------------

    Molecular point group: c1
  Charge       = 0
  Multiplicity = 1
  Basis Set: AUG-CC-PVTZ
    Blend: AUG-CC-PVTZ
  Basis Set: (AUG-CC-PVTZ AUX)
    Blend: AUG-CC-PVTZ-JKFIT

    Orbital Energies [Eh]
    ---------------------

    Doubly Occupied:

       1A   -104.825500     2A    -26.280453     3A    -11.313949
       4A    -11.296631     5A    -11.226979     6A    -10.549994
       7A     -8.016822     8A     -8.015083     9A     -8.015048
      10A     -1.586935    11A     -1.150327    12A     -1.062390
      13A     -0.931616    14A     -0.839920    15A     -0.714026
      16A     -0.707702    17A     -0.671346    18A     -0.638689
      19A     -0.614604    20A     -0.562768    21A     -0.530306
      22A     -0.514812    23A     -0.511192    24A     -0.436639
      25A     -0.434884

  @DF-RHF Final Energy:  -676.10463804042445

   => Energetics <=

    Nuclear Repulsion Energy =            229.7883737444904853
    One-Electron Energy =               -1388.8887917402100811
    Two-Electron Energy =                 482.9957799552952906
    Total Energy =                       -676.1046380404243337
  Basis Set: (AUG-CC-PVTZ AUX)
    Blend: AUG-CC-PVTZ-RI
    Molecular point group: c1

    Geometry (in Angstrom), charge = 0, multiplicity = 1:

       Center              X                  Y                   Z               Mass
    ------------   -----------------  -----------------  -----------------  -----------------
         CL          -1.724541704333    -0.360346208000    -0.144523805357    34.968852682000
         F            2.008769295667    -0.625905208000     0.551648194643    18.998403162730
         C            0.609836295667     1.070537792000    -0.325956805357    12.000000000000
         C           -0.529342704333     0.732437792000     0.619577194643    12.000000000000
         C            1.483175295667    -0.122221208000    -0.647087805357    12.000000000000
         H            0.217220295667     1.497631792000    -1.255064805357     1.007825032230
         H            1.116273495667     1.696322192000     0.068109494643     1.007825032230
         H           -0.148593704333     0.226006792000     1.506153194643     1.007825032230
         H           -1.069363704333     1.630554792000     0.921095194643     1.007825032230
         H            0.914416295667    -0.922830208000    -1.126361805357     1.007825032230
         H            2.321630295667     0.161789792000    -1.289724805357     1.007825032230

  Basis Set: AUG-CC-PVTZ
    Blend: AUG-CC-PVTZ
  Basis Set: (AUG-CC-PVTZ AUX)
    Blend: AUG-CC-PVTZ-JKFIT
	 Reference Energy          =    -676.1046380404244474 [Eh]
	 Singles Energy            =      -0.0000000000000000 [Eh]
	 Same-Spin Energy          =      -0.2569709004980657 [Eh]
	 Opposite-Spin Energy      =      -0.8312223607575738 [Eh]
	 Correlation Energy        =      -1.0881932612556395 [Eh]
	 Total Energy              =    -677.1928313016800303 [Eh]

	 ================> DF-SCS-MP2 Energies <==================
	-----------------------------------------------------------
	 SCS Same-Spin Scale       =       0.3333333333333333 [-]
	 SCS Opposite-Spin Scale   =       1.2000000000000000 [-]
	 SCS Same-Spin Energy      =      -0.0856569668326886 [Eh]
	 SCS Opposite-Spin Energy  =      -0.9974668329090886 [Eh]
	 SCS Correlation Energy    =      -1.0831237997417771 [Eh]
	 SCS Total Energy          =    -677.1877618401662176 [Eh]
	-----------------------------------------------------------

  Dipole Moment: [D]
     X:     0.6633      Y:     2.0309      Z:    -0.7653     Total:     2.2694

*** Psi4 exiting successfully. Buy a developer a beer!
