                               Psi4 1.4a3.dev225

  ==> Input File <==

--------------------------------------------------------------------------
#psi4
#
memory 32 gb

molecule  {
0 1
 Cl       -1.7567080    -0.4154380    -0.1305090
  F        1.9526326    -0.6458826     0.5899278
  C        0.5776700     1.0154460    -0.3119420
  C       -0.5615090     0.6773460     0.6335920
  C        1.4510090    -0.1773130    -0.6330730
  H        0.1850540     1.4425400    -1.2410500
  H        1.1971120     1.7808660     0.1700550
  H       -0.1807600     0.1709150     1.5201680
  H       -1.1015300     1.5754630     0.9351100
  H        0.8822500    -0.9779220    -1.1123470
  H        2.2894640     0.1066980    -1.2757100
units angstrom
no_reorient  #important for SAPT in psi4, default
symmetry c1  #important for SAPT in psi4, default
}

set PROPERTIES_ORIGIN ["COM"]
properties('MP2/aug-cc-pvtz', properties = ['dipole'])
--------------------------------------------------------------------------

    Molecular point group: c1
  Charge       = 0
  Multiplicity = 1
  Basis Set: AUG-CC-PVTZ
    Blend: AUG-CC-PVTZ
  Basis Set: (AUG-CC-PVTZ AUX)
    Blend: AUG-CC-PVTZ-JKFIT

    Orbital Energies [Eh]
    ---------------------

    Doubly Occupied:

       1A   -104.826125     2A    -26.280795     3A    -11.315755
       4A    -11.296971     5A    -11.250249     6A    -10.550635
       7A     -8.017460     8A     -8.015723     9A     -8.015681
      10A     -1.587627    11A     -1.147424    12A     -1.050008
      13A     -0.930529    14A     -0.821743    15A     -0.712035
      16A     -0.708264    17A     -0.666679    18A     -0.619184
      19A     -0.613603    20A     -0.563351    21A     -0.528939
      22A     -0.515141    23A     -0.500697    24A     -0.437119
      25A     -0.435135

  @DF-RHF Final Energy:  -676.13759954604188

   => Energetics <=

    Nuclear Repulsion Energy =            229.1426249342052586
    One-Electron Energy =               -1387.7467025268745147
    Two-Electron Energy =                 482.4664780466273442
    Total Energy =                       -676.1375995460418835
  Basis Set: (AUG-CC-PVTZ AUX)
    Blend: AUG-CC-PVTZ-RI
    Molecular point group: c1

    Geometry (in Angstrom), charge = 0, multiplicity = 1:

       Center              X                  Y                   Z               Mass
    ------------   -----------------  -----------------  -----------------  -----------------
         CL          -1.720984832167    -0.368760023147    -0.150248075090    34.968852682000
         F            1.988355767833    -0.599204623147     0.570188724910    18.998403162730
         C            0.613393167833     1.062123976853    -0.331681075090    12.000000000000
         C           -0.525785832167     0.724023976853     0.613852924910    12.000000000000
         C            1.486732167833    -0.130635023147    -0.652812075090    12.000000000000
         H            0.220777167833     1.489217976853    -1.260789075090     1.007825032230
         H            1.232835167833     1.827543976853     0.150315924910     1.007825032230
         H           -0.145036832167     0.217592976853     1.500428924910     1.007825032230
         H           -1.065806832167     1.622140976853     0.915370924910     1.007825032230
         H            0.917973167833    -0.931244023147    -1.132086075090     1.007825032230
         H            2.325187167833     0.153375976853    -1.295449075090     1.007825032230

  Basis Set: AUG-CC-PVTZ
    Blend: AUG-CC-PVTZ
  Basis Set: (AUG-CC-PVTZ AUX)
    Blend: AUG-CC-PVTZ-JKFIT
	 Reference Energy          =    -676.1375995460418835 [Eh]
	 Singles Energy            =      -0.0000000000000000 [Eh]
	 Same-Spin Energy          =      -0.2570016478005140 [Eh]
	 Opposite-Spin Energy      =      -0.8318392957930030 [Eh]
	 Correlation Energy        =      -1.0888409435935169 [Eh]
	 Total Energy              =    -677.2264404896353653 [Eh]

	 ================> DF-SCS-MP2 Energies <==================
	-----------------------------------------------------------
	 SCS Same-Spin Scale       =       0.3333333333333333 [-]
	 SCS Opposite-Spin Scale   =       1.2000000000000000 [-]
	 SCS Same-Spin Energy      =      -0.0856672159335047 [Eh]
	 SCS Opposite-Spin Energy  =      -0.9982071549516035 [Eh]
	 SCS Correlation Energy    =      -1.0838743708851082 [Eh]
	 SCS Total Energy          =    -677.2214739169270388 [Eh]
	-----------------------------------------------------------

  Dipole Moment: [D]
     X:     0.6794      Y:     1.9151      Z:    -0.8099     Total:     2.1875

*** Psi4 exiting successfully. Buy a developer a beer!
