                               Psi4 1.4a3.dev225

  ==> Input File <==

--------------------------------------------------------------------------
#psi4
#
memory 32 gb

molecule  {
0 1
 Cl       -1.7567080    -0.4154380    -0.1305090
  F        1.9766030    -0.6809970     0.5656630
  C        0.5776700     1.0154460    -0.3119420
  C       -0.5615090     0.6773460     0.6335920
  C        1.4510090    -0.1773130    -0.6330730
  H        0.1850540     1.4425400    -1.2410500
  H        1.2084125     1.7948296     0.1788481
  H       -0.1807600     0.1709150     1.5201680
  H       -1.1015300     1.5754630     0.9351100
  H        0.8822500    -0.9779220    -1.1123470
  H        2.2894640     0.1066980    -1.2757100
units angstrom
no_reorient  #important for SAPT in psi4, default
symmetry c1  #important for SAPT in psi4, default
}

set PROPERTIES_ORIGIN ["COM"]
properties('MP2/aug-cc-pvtz', properties = ['dipole'])
--------------------------------------------------------------------------

    Molecular point group: c1
  Charge       = 0
  Multiplicity = 1
  Basis Set: AUG-CC-PVTZ
    Blend: AUG-CC-PVTZ
  Basis Set: (AUG-CC-PVTZ AUX)
    Blend: AUG-CC-PVTZ-JKFIT

    Orbital Energies [Eh]
    ---------------------

    Doubly Occupied:

       1A   -104.826705     2A    -26.280489     3A    -11.315579
       4A    -11.297855     5A    -11.253777     6A    -10.551211
       7A     -8.018036     8A     -8.016295     9A     -8.016253
      10A     -1.586918    11A     -1.147976    12A     -1.049735
      13A     -0.930485    14A     -0.821387    15A     -0.711190
      16A     -0.706771    17A     -0.666075    18A     -0.618738
      19A     -0.614544    20A     -0.563265    21A     -0.529557
      22A     -0.515896    23A     -0.498906    24A     -0.437590
      25A     -0.435684

  @DF-RHF Final Energy:  -676.13762413179745

   => Energetics <=

    Nuclear Repulsion Energy =            228.5868931662521391
    One-Electron Energy =               -1386.6271996776811193
    Two-Electron Energy =                 481.9026823796315284
    Total Energy =                       -676.1376241317974518
  Basis Set: (AUG-CC-PVTZ AUX)
    Blend: AUG-CC-PVTZ-RI
    Molecular point group: c1

    Geometry (in Angstrom), charge = 0, multiplicity = 1:

       Center              X                  Y                   Z               Mass
    ------------   -----------------  -----------------  -----------------  -----------------
         CL          -1.725846490345    -0.361958481070    -0.145539078730    34.968852682000
         F            2.007464509655    -0.627517481070     0.550632921270    18.998403162730
         C            0.608531509655     1.068925518930    -0.326972078730    12.000000000000
         C           -0.530647490345     0.730825518930     0.618561921270    12.000000000000
         C            1.481870509655    -0.123833481070    -0.648103078730    12.000000000000
         H            0.215915509655     1.496019518930    -1.256080078730     1.007825032230
         H            1.239274009655     1.848309118930     0.163818021270     1.007825032230
         H           -0.149898490345     0.224394518930     1.505137921270     1.007825032230
         H           -1.070668490345     1.628942518930     0.920079921270     1.007825032230
         H            0.913111509655    -0.924442481070    -1.127377078730     1.007825032230
         H            2.320325509655     0.160177518930    -1.290740078730     1.007825032230

  Basis Set: AUG-CC-PVTZ
    Blend: AUG-CC-PVTZ
  Basis Set: (AUG-CC-PVTZ AUX)
    Blend: AUG-CC-PVTZ-JKFIT
	 Reference Energy          =    -676.1376241317974518 [Eh]
	 Singles Energy            =      -0.0000000000000000 [Eh]
	 Same-Spin Energy          =      -0.2569327210943300 [Eh]
	 Opposite-Spin Energy      =      -0.8318758399888223 [Eh]
	 Correlation Energy        =      -1.0888085610831522 [Eh]
	 Total Energy              =    -677.2264326928806213 [Eh]

	 ================> DF-SCS-MP2 Energies <==================
	-----------------------------------------------------------
	 SCS Same-Spin Scale       =       0.3333333333333333 [-]
	 SCS Opposite-Spin Scale   =       1.2000000000000000 [-]
	 SCS Same-Spin Energy      =      -0.0856442403647766 [Eh]
	 SCS Opposite-Spin Energy  =      -0.9982510079865867 [Eh]
	 SCS Correlation Energy    =      -1.0838952483513633 [Eh]
	 SCS Total Energy          =    -677.2215193801488340 [Eh]
	-----------------------------------------------------------

  Dipole Moment: [D]
     X:     0.6224      Y:     1.9633      Z:    -0.7842     Total:     2.2038

*** Psi4 exiting successfully. Buy a developer a beer!
