                               Psi4 1.4a3.dev225

  ==> Input File <==

--------------------------------------------------------------------------
#psi4
#
memory 32 gb

molecule  {
0 1
 Cl       -1.7567080    -0.4154380    -0.1305090
  F        2.0225943    -0.7493428     0.5127833
  C        0.5776700     1.0154460    -0.3119420
  C       -0.5615090     0.6773460     0.6335920
  C        1.4510090    -0.1773130    -0.6330730
  H        0.1850540     1.4425400    -1.2410500
  H        1.1971120     1.7808660     0.1700550
  H       -0.1807600     0.1709150     1.5201680
  H       -1.1015300     1.5754630     0.9351100
  H        0.8822500    -0.9779220    -1.1123470
  H        2.2894640     0.1066980    -1.2757100
units angstrom
no_reorient  #important for SAPT in psi4, default
symmetry c1  #important for SAPT in psi4, default
}

set PROPERTIES_ORIGIN ["COM"]
properties('MP2/aug-cc-pvtz', properties = ['dipole'])
--------------------------------------------------------------------------

    Molecular point group: c1
  Charge       = 0
  Multiplicity = 1
  Basis Set: AUG-CC-PVTZ
    Blend: AUG-CC-PVTZ
  Basis Set: (AUG-CC-PVTZ AUX)
    Blend: AUG-CC-PVTZ-JKFIT

    Orbital Energies [Eh]
    ---------------------

    Doubly Occupied:

       1A   -104.827337     2A    -26.279722     3A    -11.314623
       4A    -11.299060     5A    -11.253697     6A    -10.551834
       7A     -8.018660     8A     -8.016913     9A     -8.016873
      10A     -1.585678    11A     -1.149141    12A     -1.051366
      13A     -0.930500    14A     -0.824246    15A     -0.710567
      16A     -0.703731    17A     -0.665745    18A     -0.623040
      19A     -0.616533    20A     -0.562948    21A     -0.531106
      22A     -0.515756    23A     -0.499627    24A     -0.438117
      25A     -0.436396

  @DF-RHF Final Energy:  -676.13763155272068

   => Energetics <=

    Nuclear Repulsion Energy =            227.8259024028688202
    One-Electron Energy =               -1385.0806402993885058
    Two-Electron Energy =                 481.1171063437988664
    Total Energy =                       -676.1376315527206771
  Basis Set: (AUG-CC-PVTZ AUX)
    Blend: AUG-CC-PVTZ-RI
    Molecular point group: c1

    Geometry (in Angstrom), charge = 0, multiplicity = 1:

       Center              X                  Y                   Z               Mass
    ------------   -----------------  -----------------  -----------------  -----------------
         CL          -1.734828206366    -0.348288275559    -0.134983434854    34.968852682000
         F            2.044474093634    -0.682193075559     0.508308865146    18.998403162730
         C            0.599549793634     1.082595724441    -0.316416434854    12.000000000000
         C           -0.539629206366     0.744495724441     0.629117565146    12.000000000000
         C            1.472888793634    -0.110163275559    -0.637547434854    12.000000000000
         H            0.206933793634     1.509689724441    -1.245524434854     1.007825032230
         H            1.218991793634     1.848015724441     0.165580565146     1.007825032230
         H           -0.158880206366     0.238064724441     1.515693565146     1.007825032230
         H           -1.079650206366     1.642612724441     0.930635565146     1.007825032230
         H            0.904129793634    -0.910772275559    -1.116821434854     1.007825032230
         H            2.311343793634     0.173847724441    -1.280184434854     1.007825032230

  Basis Set: AUG-CC-PVTZ
    Blend: AUG-CC-PVTZ
  Basis Set: (AUG-CC-PVTZ AUX)
    Blend: AUG-CC-PVTZ-JKFIT
	 Reference Energy          =    -676.1376315527206771 [Eh]
	 Singles Energy            =      -0.0000000000000000 [Eh]
	 Same-Spin Energy          =      -0.2568320103470001 [Eh]
	 Opposite-Spin Energy      =      -0.8316743802123785 [Eh]
	 Correlation Energy        =      -1.0885063905593786 [Eh]
	 Total Energy              =    -677.2261379432800368 [Eh]

	 ================> DF-SCS-MP2 Energies <==================
	-----------------------------------------------------------
	 SCS Same-Spin Scale       =       0.3333333333333333 [-]
	 SCS Opposite-Spin Scale   =       1.2000000000000000 [-]
	 SCS Same-Spin Energy      =      -0.0856106701156667 [Eh]
	 SCS Opposite-Spin Energy  =      -0.9980092562548541 [Eh]
	 SCS Correlation Energy    =      -1.0836199263705208 [Eh]
	 SCS Total Energy          =    -677.2212514790911655 [Eh]
	-----------------------------------------------------------

  Dipole Moment: [D]
     X:     0.5317      Y:     2.0819      Z:    -0.7155     Total:     2.2647

*** Psi4 exiting successfully. Buy a developer a beer!
