                               Psi4 1.4a3.dev225

  ==> Input File <==

--------------------------------------------------------------------------
#psi4
#
memory 32 gb

molecule  {
0 1
 Cl       -1.7567080    -0.4154380    -0.1305090
  F        1.9883499    -0.6983267     0.5529810
  C        0.5776700     1.0154460    -0.3119420
  C       -0.5615090     0.6773460     0.6335920
  C        1.4510090    -0.1773130    -0.6330730
  H        0.1850540     1.4425400    -1.2410500
  H        1.1971120     1.7808660     0.1700550
  H       -0.1807600     0.1709150     1.5201680
  H       -1.1015300     1.5754630     0.9351100
  H        0.8822500    -0.9779220    -1.1123470
  H        2.2894640     0.1066980    -1.2757100
units angstrom
no_reorient  #important for SAPT in psi4, default
symmetry c1  #important for SAPT in psi4, default
}

set PROPERTIES_ORIGIN ["COM"]
properties('MP2/aug-cc-pvtz', properties = ['dipole'])
--------------------------------------------------------------------------

    Molecular point group: c1
  Charge       = 0
  Multiplicity = 1
  Basis Set: AUG-CC-PVTZ
    Blend: AUG-CC-PVTZ
  Basis Set: (AUG-CC-PVTZ AUX)
    Blend: AUG-CC-PVTZ-JKFIT

    Orbital Energies [Eh]
    ---------------------

    Doubly Occupied:

       1A   -104.826752     2A    -26.280292     3A    -11.315190
       4A    -11.298054     5A    -11.251979     6A    -10.551255
       7A     -8.018081     8A     -8.016338     9A     -8.016297
      10A     -1.586570    11A     -1.148309    12A     -1.050709
      13A     -0.930495    14A     -0.823012    15A     -0.711024
      16A     -0.706108    17A     -0.666157    18A     -0.621090
      19A     -0.615273    20A     -0.563103    21A     -0.529901
      22A     -0.515845    23A     -0.500253    24A     -0.437638
      25A     -0.435797

  @DF-RHF Final Energy:  -676.13819711901147

   => Energetics <=

    Nuclear Repulsion Energy =            228.4614458256597231
    One-Electron Energy =               -1386.3682384649866890
    Two-Electron Energy =                 481.7685955203155004
    Total Energy =                       -676.1381971190114655
  Basis Set: (AUG-CC-PVTZ AUX)
    Blend: AUG-CC-PVTZ-RI
    Molecular point group: c1

    Geometry (in Angstrom), charge = 0, multiplicity = 1:

       Center              X                  Y                   Z               Mass
    ------------   -----------------  -----------------  -----------------  -----------------
         CL          -1.728052241182    -0.358382869636    -0.142937383986    34.968852682000
         F            2.017005658818    -0.641271569636     0.540552616014    18.998403162730
         C            0.606325758818     1.072501130364    -0.324370383986    12.000000000000
         C           -0.532853241182     0.734401130364     0.621163616014    12.000000000000
         C            1.479664758818    -0.120257869636    -0.645501383986    12.000000000000
         H            0.213709758818     1.499595130364    -1.253478383986     1.007825032230
         H            1.225767758818     1.837921130364     0.157626616014     1.007825032230
         H           -0.152104241182     0.227970130364     1.507739616014     1.007825032230
         H           -1.072874241182     1.632518130364     0.922681616014     1.007825032230
         H            0.910905758818    -0.920866869636    -1.124775383986     1.007825032230
         H            2.318119758818     0.163753130364    -1.288138383986     1.007825032230

  Basis Set: AUG-CC-PVTZ
    Blend: AUG-CC-PVTZ
  Basis Set: (AUG-CC-PVTZ AUX)
    Blend: AUG-CC-PVTZ-JKFIT
	 Reference Energy          =    -676.1381971190114655 [Eh]
	 Singles Energy            =      -0.0000000000000000 [Eh]
	 Same-Spin Energy          =      -0.2568960345445986 [Eh]
	 Opposite-Spin Energy      =      -0.8317198118014839 [Eh]
	 Correlation Energy        =      -1.0886158463460824 [Eh]
	 Total Energy              =    -677.2268129653575670 [Eh]

	 ================> DF-SCS-MP2 Energies <==================
	-----------------------------------------------------------
	 SCS Same-Spin Scale       =       0.3333333333333333 [-]
	 SCS Opposite-Spin Scale   =       1.2000000000000000 [-]
	 SCS Same-Spin Energy      =      -0.0856320115148662 [Eh]
	 SCS Opposite-Spin Energy  =      -0.9980637741617806 [Eh]
	 SCS Correlation Energy    =      -1.0836957856766467 [Eh]
	 SCS Total Energy          =    -677.2218929046881613 [Eh]
	-----------------------------------------------------------

  Dipole Moment: [D]
     X:     0.6032      Y:     2.0002      Z:    -0.7661     Total:     2.2252

*** Psi4 exiting successfully. Buy a developer a beer!
