                               Psi4 1.4a3.dev225

  ==> Input File <==

--------------------------------------------------------------------------
#psi4
#
memory 32 gb

molecule  {
0 1
 Cl       -1.7567080    -0.4154380    -0.1305090
  F        1.9646960    -0.6635138     0.5779798
  C        0.5776700     1.0154460    -0.3119420
  C       -0.5615090     0.6773460     0.6335920
  C        1.4510090    -0.1773130    -0.6330730
  H        0.1850540     1.4425400    -1.2410500
  H        1.1971120     1.7808660     0.1700550
  H       -0.1807600     0.1709150     1.5201680
  H       -1.1015300     1.5754630     0.9351100
  H        0.8822500    -0.9779220    -1.1123470
  H        2.2894640     0.1066980    -1.2757100
units angstrom
no_reorient  #important for SAPT in psi4, default
symmetry c1  #important for SAPT in psi4, default
}

set PROPERTIES_ORIGIN ["COM"]
properties('MP2/aug-cc-pvtz', properties = ['dipole'])
--------------------------------------------------------------------------

    Molecular point group: c1
  Charge       = 0
  Multiplicity = 1
  Basis Set: AUG-CC-PVTZ
    Blend: AUG-CC-PVTZ
  Basis Set: (AUG-CC-PVTZ AUX)
    Blend: AUG-CC-PVTZ-JKFIT

    Orbital Energies [Eh]
    ---------------------

    Doubly Occupied:

       1A   -104.826339     2A    -26.280635     3A    -11.315567
       4A    -11.297341     5A    -11.250826     6A    -10.550847
       7A     -8.017672     8A     -8.015933     9A     -8.015891
      10A     -1.587255    11A     -1.147725    12A     -1.050247
      13A     -0.930513    14A     -0.822169    15A     -0.711611
      16A     -0.707597    17A     -0.666490    18A     -0.619808
      19A     -0.614213    20A     -0.563259    21A     -0.529219
      22A     -0.515476    23A     -0.500571    24A     -0.437297
      25A     -0.435363

  @DF-RHF Final Energy:  -676.13793302844192

   => Energetics <=

    Nuclear Repulsion Energy =            228.9103728423021664
    One-Electron Energy =               -1387.2768922992788703
    Two-Electron Energy =                 482.2285864285347543
    Total Energy =                       -676.1379330284419211
  Basis Set: (AUG-CC-PVTZ AUX)
    Blend: AUG-CC-PVTZ-RI
    Molecular point group: c1

    Geometry (in Angstrom), charge = 0, multiplicity = 1:

       Center              X                  Y                   Z               Mass
    ------------   -----------------  -----------------  -----------------  -----------------
         CL          -1.723371826199    -0.365271324342    -0.147883915344    34.968852682000
         F            1.998032173801    -0.613347124342     0.560604884656    18.998403162730
         C            0.611006173801     1.065612675658    -0.329316915344    12.000000000000
         C           -0.528172826199     0.727512675658     0.616217084656    12.000000000000
         C            1.484345173801    -0.127146324342    -0.650447915344    12.000000000000
         H            0.218390173801     1.492706675658    -1.258424915344     1.007825032230
         H            1.230448173801     1.831032675658     0.152680084656     1.007825032230
         H           -0.147423826199     0.221081675658     1.502793084656     1.007825032230
         H           -1.068193826199     1.625629675658     0.917735084656     1.007825032230
         H            0.915586173801    -0.927755324342    -1.129721915344     1.007825032230
         H            2.322800173801     0.156864675658    -1.293084915344     1.007825032230

  Basis Set: AUG-CC-PVTZ
    Blend: AUG-CC-PVTZ
  Basis Set: (AUG-CC-PVTZ AUX)
    Blend: AUG-CC-PVTZ-JKFIT
	 Reference Energy          =    -676.1379330284419211 [Eh]
	 Singles Energy            =      -0.0000000000000000 [Eh]
	 Same-Spin Energy          =      -0.2569616162028919 [Eh]
	 Opposite-Spin Energy      =      -0.8317908692592801 [Eh]
	 Correlation Energy        =      -1.0887524854621722 [Eh]
	 Total Energy              =    -677.2266855139040445 [Eh]

	 ================> DF-SCS-MP2 Energies <==================
	-----------------------------------------------------------
	 SCS Same-Spin Scale       =       0.3333333333333333 [-]
	 SCS Opposite-Spin Scale   =       1.2000000000000000 [-]
	 SCS Same-Spin Energy      =      -0.0856538720676306 [Eh]
	 SCS Opposite-Spin Energy  =      -0.9981490431111362 [Eh]
	 SCS Correlation Energy    =      -1.0838029151787667 [Eh]
	 SCS Total Energy          =    -677.2217359436207289 [Eh]
	-----------------------------------------------------------

  Dipole Moment: [D]
     X:     0.6535      Y:     1.9438      Z:    -0.7961     Total:     2.1998

*** Psi4 exiting successfully. Buy a developer a beer!
