                               Psi4 1.4a3.dev225

  ==> Input File <==

--------------------------------------------------------------------------
#psi4
#
memory 32 gb

molecule  {
0 1
 Cl       -1.7567080    -0.4154380    -0.1305090
  F        1.9766030    -0.6809970     0.5656630
  C        0.5776700     1.0154460    -0.3119420
  C       -0.5615090     0.6773460     0.6335920
  C        1.4322708    -0.1593559    -0.6758097
  H        0.1850540     1.4425400    -1.2410500
  H        1.1971120     1.7808660     0.1700550
  H       -0.1807600     0.1709150     1.5201680
  H       -1.1015300     1.5754630     0.9351100
  H        0.8822500    -0.9779220    -1.1123470
  H        2.2894640     0.1066980    -1.2757100
units angstrom
no_reorient  #important for SAPT in psi4, default
symmetry c1  #important for SAPT in psi4, default
}

set PROPERTIES_ORIGIN ["COM"]
properties('MP2/aug-cc-pvtz', properties = ['dipole'])
--------------------------------------------------------------------------

    Molecular point group: c1
  Charge       = 0
  Multiplicity = 1
  Basis Set: AUG-CC-PVTZ
    Blend: AUG-CC-PVTZ
  Basis Set: (AUG-CC-PVTZ AUX)
    Blend: AUG-CC-PVTZ-JKFIT

    Orbital Energies [Eh]
    ---------------------

    Doubly Occupied:

       1A   -104.827437     2A    -26.268498     3A    -11.316054
       4A    -11.298805     5A    -11.253114     6A    -10.551937
       7A     -8.018763     8A     -8.017022     9A     -8.016978
      10A     -1.563086    11A     -1.149622    12A     -1.054986
      13A     -0.932713    14A     -0.822731    15A     -0.704974
      16A     -0.696661    17A     -0.650776    18A     -0.617273
      19A     -0.610197    20A     -0.565179    21A     -0.532807
      22A     -0.522389    23A     -0.505856    24A     -0.438866
      25A     -0.436502

  @DF-RHF Final Energy:  -676.13514407112359

   => Energetics <=

    Nuclear Repulsion Energy =            228.2548744767092330
    One-Electron Energy =               -1386.0335864573787603
    Two-Electron Energy =                 481.6435679095458795
    Total Energy =                       -676.1351440711234773
  Basis Set: (AUG-CC-PVTZ AUX)
    Blend: AUG-CC-PVTZ-RI
    Molecular point group: c1

    Geometry (in Angstrom), charge = 0, multiplicity = 1:

       Center              X                  Y                   Z               Mass
    ------------   -----------------  -----------------  -----------------  -----------------
         CL          -1.723385944802    -0.364056215798    -0.140105483767    34.968852682000
         F            2.009925055198    -0.629615215798     0.556066516233    18.998403162730
         C            0.610992055198     1.066827784202    -0.321538483767    12.000000000000
         C           -0.528186944802     0.728727784202     0.623995516233    12.000000000000
         C            1.465592855198    -0.107974115798    -0.685406183767    12.000000000000
         H            0.218376055198     1.493921784202    -1.250646483767     1.007825032230
         H            1.230434055198     1.832247784202     0.160458516233     1.007825032230
         H           -0.147437944802     0.222296784202     1.510571516233     1.007825032230
         H           -1.068207944802     1.626844784202     0.925513516233     1.007825032230
         H            0.915572055198    -0.926540215798    -1.121943483767     1.007825032230
         H            2.322786055198     0.158079784202    -1.285306483767     1.007825032230

  Basis Set: AUG-CC-PVTZ
    Blend: AUG-CC-PVTZ
  Basis Set: (AUG-CC-PVTZ AUX)
    Blend: AUG-CC-PVTZ-JKFIT
	 Reference Energy          =    -676.1351440711235909 [Eh]
	 Singles Energy            =      -0.0000000000000000 [Eh]
	 Same-Spin Energy          =      -0.2571390141268829 [Eh]
	 Opposite-Spin Energy      =      -0.8327292672960740 [Eh]
	 Correlation Energy        =      -1.0898682814229570 [Eh]
	 Total Energy              =    -677.2250123525465142 [Eh]

	 ================> DF-SCS-MP2 Energies <==================
	-----------------------------------------------------------
	 SCS Same-Spin Scale       =       0.3333333333333333 [-]
	 SCS Opposite-Spin Scale   =       1.2000000000000000 [-]
	 SCS Same-Spin Energy      =      -0.0857130047089610 [Eh]
	 SCS Opposite-Spin Energy  =      -0.9992751207552888 [Eh]
	 SCS Correlation Energy    =      -1.0849881254642497 [Eh]
	 SCS Total Energy          =    -677.2201321965878833 [Eh]
	-----------------------------------------------------------

  Dipole Moment: [D]
     X:     0.5233      Y:     2.0618      Z:    -0.9422     Total:     2.3265

*** Psi4 exiting successfully. Buy a developer a beer!
