                               Psi4 1.4a3.dev225

  ==> Input File <==

--------------------------------------------------------------------------
#psi4
#
memory 32 gb

molecule  {
0 1
 Cl       -1.7567080    -0.4154380    -0.1305090
  F        1.9766030    -0.6809970     0.5656630
  C        0.5776700     1.0154460    -0.3119420
  C       -0.5615090     0.6773460     0.6335920
  C        1.4510090    -0.1773130    -0.6330730
  H        0.1492102     1.4815314    -1.3258727
  H        1.1971120     1.7808660     0.1700550
  H       -0.1807600     0.1709150     1.5201680
  H       -1.1015300     1.5754630     0.9351100
  H        0.8822500    -0.9779220    -1.1123470
  H        2.2894640     0.1066980    -1.2757100
units angstrom
no_reorient  #important for SAPT in psi4, default
symmetry c1  #important for SAPT in psi4, default
}

set PROPERTIES_ORIGIN ["COM"]
properties('MP2/aug-cc-pvtz', properties = ['dipole'])
--------------------------------------------------------------------------

    Molecular point group: c1
  Charge       = 0
  Multiplicity = 1
  Basis Set: AUG-CC-PVTZ
    Blend: AUG-CC-PVTZ
  Basis Set: (AUG-CC-PVTZ AUX)
    Blend: AUG-CC-PVTZ-JKFIT

    Orbital Energies [Eh]
    ---------------------

    Doubly Occupied:

       1A   -104.826685     2A    -26.281488     3A    -11.316273
       4A    -11.298749     5A    -11.262864     6A    -10.551186
       7A     -8.018011     8A     -8.016265     9A     -8.016224
      10A     -1.587880    11A     -1.147379    12A     -1.047617
      13A     -0.931034    14A     -0.816397    15A     -0.711923
      16A     -0.703939    17A     -0.666598    18A     -0.619972
      19A     -0.615601    20A     -0.557660    21A     -0.522923
      22A     -0.512944    23A     -0.500777    24A     -0.437786
      25A     -0.435782

  @DF-RHF Final Energy:  -676.13154013148119

   => Energetics <=

    Nuclear Repulsion Energy =            228.2341697974138981
    One-Electron Energy =               -1385.9235082124025666
    Two-Electron Energy =                 481.5577982835075659
    Total Energy =                       -676.1315401314811879
  Basis Set: (AUG-CC-PVTZ AUX)
    Blend: AUG-CC-PVTZ-RI
    Molecular point group: c1

    Geometry (in Angstrom), charge = 0, multiplicity = 1:

       Center              X                  Y                   Z               Mass
    ------------   -----------------  -----------------  -----------------  -----------------
         CL          -1.725351634348    -0.362221188479    -0.144556428864    34.968852682000
         F            2.007959365652    -0.627780188479     0.551615571136    18.998403162730
         C            0.609026365652     1.068662811521    -0.325989428864    12.000000000000
         C           -0.530152634348     0.730562811521     0.619544571136    12.000000000000
         C            1.482365365652    -0.124096188479    -0.647120428864    12.000000000000
         H            0.180566565652     1.534748211521    -1.339920128864     1.007825032230
         H            1.228468365652     1.834082811521     0.156007571136     1.007825032230
         H           -0.149403634348     0.224131811521     1.506120571136     1.007825032230
         H           -1.070173634348     1.628679811521     0.921062571136     1.007825032230
         H            0.913606365652    -0.924705188479    -1.126394428864     1.007825032230
         H            2.320820365652     0.159914811521    -1.289757428864     1.007825032230

  Basis Set: AUG-CC-PVTZ
    Blend: AUG-CC-PVTZ
  Basis Set: (AUG-CC-PVTZ AUX)
    Blend: AUG-CC-PVTZ-JKFIT
	 Reference Energy          =    -676.1315401314811879 [Eh]
	 Singles Energy            =      -0.0000000000000000 [Eh]
	 Same-Spin Energy          =      -0.2569913526582355 [Eh]
	 Opposite-Spin Energy      =      -0.8325170982735726 [Eh]
	 Correlation Energy        =      -1.0895084509318080 [Eh]
	 Total Energy              =    -677.2210485824130046 [Eh]

	 ================> DF-SCS-MP2 Energies <==================
	-----------------------------------------------------------
	 SCS Same-Spin Scale       =       0.3333333333333333 [-]
	 SCS Opposite-Spin Scale   =       1.2000000000000000 [-]
	 SCS Same-Spin Energy      =      -0.0856637842194118 [Eh]
	 SCS Opposite-Spin Energy  =      -0.9990205179282871 [Eh]
	 SCS Correlation Energy    =      -1.0846843021476988 [Eh]
	 SCS Total Energy          =    -677.2162244336288950 [Eh]
	-----------------------------------------------------------

  Dipole Moment: [D]
     X:     0.6318      Y:     1.9471      Z:    -0.7434     Total:     2.1778

*** Psi4 exiting successfully. Buy a developer a beer!
