                               Psi4 1.4a3.dev225

  ==> Input File <==

--------------------------------------------------------------------------
#psi4
#
memory 32 gb

molecule  {
0 1
 Cl       -1.7567080    -0.4154380    -0.1305090
  F        1.9766030    -0.6809970     0.5656630
  C        0.5776700     1.0154460    -0.3119420
  C       -0.5615090     0.6773460     0.6335920
  C        1.4697472    -0.1952701    -0.5903363
  H        0.1850540     1.4425400    -1.2410500
  H        1.1971120     1.7808660     0.1700550
  H       -0.1807600     0.1709150     1.5201680
  H       -1.1015300     1.5754630     0.9351100
  H        0.8822500    -0.9779220    -1.1123470
  H        2.2894640     0.1066980    -1.2757100
units angstrom
no_reorient  #important for SAPT in psi4, default
symmetry c1  #important for SAPT in psi4, default
}

set PROPERTIES_ORIGIN ["COM"]
properties('MP2/aug-cc-pvtz', properties = ['dipole'])
--------------------------------------------------------------------------

    Molecular point group: c1
  Charge       = 0
  Multiplicity = 1
  Basis Set: AUG-CC-PVTZ
    Blend: AUG-CC-PVTZ
  Basis Set: (AUG-CC-PVTZ AUX)
    Blend: AUG-CC-PVTZ-JKFIT

    Orbital Energies [Eh]
    ---------------------

    Doubly Occupied:

       1A   -104.825678     2A    -26.292384     3A    -11.315881
       4A    -11.296658     5A    -11.249858     6A    -10.550189
       7A     -8.017014     8A     -8.015273     9A     -8.015234
      10A     -1.613308    11A     -1.146497    12A     -1.046057
      13A     -0.928795    14A     -0.823785    15A     -0.721292
      16A     -0.719358    17A     -0.682187    18A     -0.622948
      19A     -0.617538    20A     -0.561207    21A     -0.526980
      22A     -0.506008    23A     -0.493358    24A     -0.436031
      25A     -0.434512

  @DF-RHF Final Energy:  -676.13688807822325

   => Energetics <=

    Nuclear Repulsion Energy =            229.1383438661463856
    One-Electron Energy =               -1387.6344041889506116
    Two-Electron Energy =                 482.3591722445809182
    Total Energy =                       -676.1368880782232509
  Basis Set: (AUG-CC-PVTZ AUX)
    Blend: AUG-CC-PVTZ-RI
    Molecular point group: c1

    Geometry (in Angstrom), charge = 0, multiplicity = 1:

       Center              X                  Y                   Z               Mass
    ------------   -----------------  -----------------  -----------------  -----------------
         CL          -1.728069801686    -0.359567605020    -0.150788077962    34.968852682000
         F            2.005241198314    -0.625126605020     0.545383922038    18.998403162730
         C            0.606308198314     1.071316394980    -0.332221077962    12.000000000000
         C           -0.532870801686     0.733216394980     0.613312922038    12.000000000000
         C            1.498385398314    -0.139399705020    -0.610615377962    12.000000000000
         H            0.213692198314     1.498410394980    -1.261329077962     1.007825032230
         H            1.225750198314     1.836736394980     0.149775922038     1.007825032230
         H           -0.152121801686     0.226785394980     1.499888922038     1.007825032230
         H           -1.072891801686     1.631333394980     0.914830922038     1.007825032230
         H            0.910888198314    -0.922051605020    -1.132626077962     1.007825032230
         H            2.318102198314     0.162568394980    -1.295989077962     1.007825032230

  Basis Set: AUG-CC-PVTZ
    Blend: AUG-CC-PVTZ
  Basis Set: (AUG-CC-PVTZ AUX)
    Blend: AUG-CC-PVTZ-JKFIT
	 Reference Energy          =    -676.1368880782232509 [Eh]
	 Singles Energy            =      -0.0000000000000000 [Eh]
	 Same-Spin Energy          =      -0.2568015392559134 [Eh]
	 Opposite-Spin Energy      =      -0.8309013632348692 [Eh]
	 Correlation Energy        =      -1.0877029024907825 [Eh]
	 Total Energy              =    -677.2245909807140833 [Eh]

	 ================> DF-SCS-MP2 Energies <==================
	-----------------------------------------------------------
	 SCS Same-Spin Scale       =       0.3333333333333333 [-]
	 SCS Opposite-Spin Scale   =       1.2000000000000000 [-]
	 SCS Same-Spin Energy      =      -0.0856005130853044 [Eh]
	 SCS Opposite-Spin Energy  =      -0.9970816358818430 [Eh]
	 SCS Correlation Energy    =      -1.0826821489671474 [Eh]
	 SCS Total Energy          =    -677.2195702271903883 [Eh]
	-----------------------------------------------------------

  Dipole Moment: [D]
     X:     0.7331      Y:     1.8817      Z:    -0.6110     Total:     2.1099

*** Psi4 exiting successfully. Buy a developer a beer!
