                               Psi4 1.4a3.dev225

  ==> Input File <==

--------------------------------------------------------------------------
#psi4
#
memory 32 gb

molecule  {
0 1
 Cl       -1.7567080    -0.4154380    -0.1305090
  F        1.9766030    -0.6809970     0.5656630
  C        0.5776700     1.0154460    -0.3119420
  C       -0.5615090     0.6773460     0.6335920
  C        1.4625551    -0.1930820    -0.6373186
  H        0.1850540     1.4425400    -1.2410500
  H        1.1971120     1.7808660     0.1700550
  H       -0.1807600     0.1709150     1.5201680
  H       -1.1015300     1.5754630     0.9351100
  H        0.8822500    -0.9779220    -1.1123470
  H        2.2894640     0.1066980    -1.2757100
units angstrom
no_reorient  #important for SAPT in psi4, default
symmetry c1  #important for SAPT in psi4, default
}

set PROPERTIES_ORIGIN ["COM"]
properties('MP2/aug-cc-pvtz', properties = ['dipole'])
--------------------------------------------------------------------------

    Molecular point group: c1
  Charge       = 0
  Multiplicity = 1
  Basis Set: AUG-CC-PVTZ
    Blend: AUG-CC-PVTZ
  Basis Set: (AUG-CC-PVTZ AUX)
    Blend: AUG-CC-PVTZ-JKFIT

    Orbital Energies [Eh]
    ---------------------

    Doubly Occupied:

       1A   -104.826252     2A    -26.282077     3A    -11.314989
       4A    -11.297293     5A    -11.251459     6A    -10.550762
       7A     -8.017587     8A     -8.015848     9A     -8.015807
      10A     -1.590072    11A     -1.146884    12A     -1.047083
      13A     -0.931195    14A     -0.822566    15A     -0.713080
      16A     -0.707857    17A     -0.668423    18A     -0.620371
      19A     -0.614983    20A     -0.563287    21A     -0.530225
      22A     -0.512589    23A     -0.499720    24A     -0.437061
      25A     -0.435273

  @DF-RHF Final Energy:  -676.13806993376318

   => Energetics <=

    Nuclear Repulsion Energy =            228.5092146920394214
    One-Electron Energy =               -1386.4690884782498870
    Two-Electron Energy =                 481.8218038524472604
    Total Energy =                       -676.1380699337631768
  Basis Set: (AUG-CC-PVTZ AUX)
    Blend: AUG-CC-PVTZ-RI
    Molecular point group: c1

    Geometry (in Angstrom), charge = 0, multiplicity = 1:

       Center              X                  Y                   Z               Mass
    ------------   -----------------  -----------------  -----------------  -----------------
         CL          -1.727170922202    -0.359841077052    -0.144916159385    34.968852682000
         F            2.006140077798    -0.625400077052     0.551255840615    18.998403162730
         C            0.607207077798     1.071042922948    -0.326349159385    12.000000000000
         C           -0.531971922202     0.732942922948     0.619184840615    12.000000000000
         C            1.492092177798    -0.137485077052    -0.651725759385    12.000000000000
         H            0.214591077798     1.498136922948    -1.255457159385     1.007825032230
         H            1.226649077798     1.836462922948     0.155647840615     1.007825032230
         H           -0.151222922202     0.226511922948     1.505760840615     1.007825032230
         H           -1.071992922202     1.631059922948     0.920702840615     1.007825032230
         H            0.911787077798    -0.922325077052    -1.126754159385     1.007825032230
         H            2.319001077798     0.162294922948    -1.290117159385     1.007825032230

  Basis Set: AUG-CC-PVTZ
    Blend: AUG-CC-PVTZ
  Basis Set: (AUG-CC-PVTZ AUX)
    Blend: AUG-CC-PVTZ-JKFIT
	 Reference Energy          =    -676.1380699337631768 [Eh]
	 Singles Energy            =      -0.0000000000000000 [Eh]
	 Same-Spin Energy          =      -0.2567729777455097 [Eh]
	 Opposite-Spin Energy      =      -0.8315341283395830 [Eh]
	 Correlation Energy        =      -1.0883071060850926 [Eh]
	 Total Energy              =    -677.2263770398482166 [Eh]

	 ================> DF-SCS-MP2 Energies <==================
	-----------------------------------------------------------
	 SCS Same-Spin Scale       =       0.3333333333333333 [-]
	 SCS Opposite-Spin Scale   =       1.2000000000000000 [-]
	 SCS Same-Spin Energy      =      -0.0855909925818366 [Eh]
	 SCS Opposite-Spin Energy  =      -0.9978409540074995 [Eh]
	 SCS Correlation Energy    =      -1.0834319465893361 [Eh]
	 SCS Total Energy          =    -677.2215018803525481 [Eh]
	-----------------------------------------------------------

  Dipole Moment: [D]
     X:     0.6650      Y:     1.9355      Z:    -0.7727     Total:     2.1875

*** Psi4 exiting successfully. Buy a developer a beer!
