                               Psi4 1.4a3.dev225

  ==> Input File <==

--------------------------------------------------------------------------
#psi4
#
memory 32 gb

molecule  {
0 1
 Cl       -1.7567080    -0.4154380    -0.1305090
  F        1.9766030    -0.6809970     0.5656630
  C        0.5776700     1.0154460    -0.3119420
  C       -0.5615090     0.6773460     0.6335920
  C        1.4510090    -0.1773130    -0.6330730
  H        0.1922228     1.4347417    -1.2240855
  H        1.1971120     1.7808660     0.1700550
  H       -0.1807600     0.1709150     1.5201680
  H       -1.1015300     1.5754630     0.9351100
  H        0.8822500    -0.9779220    -1.1123470
  H        2.2894640     0.1066980    -1.2757100
units angstrom
no_reorient  #important for SAPT in psi4, default
symmetry c1  #important for SAPT in psi4, default
}

set PROPERTIES_ORIGIN ["COM"]
properties('MP2/aug-cc-pvtz', properties = ['dipole'])
--------------------------------------------------------------------------

    Molecular point group: c1
  Charge       = 0
  Multiplicity = 1
  Basis Set: AUG-CC-PVTZ
    Blend: AUG-CC-PVTZ
  Basis Set: (AUG-CC-PVTZ AUX)
    Blend: AUG-CC-PVTZ-JKFIT

    Orbital Energies [Eh]
    ---------------------

    Doubly Occupied:

       1A   -104.826532     2A    -26.280291     3A    -11.315227
       4A    -11.297520     5A    -11.249021     6A    -10.551038
       7A     -8.017863     8A     -8.016123     9A     -8.016082
      10A     -1.586734    11A     -1.148220    12A     -1.051235
      13A     -0.930428    14A     -0.824141    15A     -0.711230
      16A     -0.707505    17A     -0.666299    18A     -0.620608
      19A     -0.614623    20A     -0.564658    21A     -0.530851
      22A     -0.515807    23A     -0.500330    24A     -0.437420
      25A     -0.435551

  @DF-RHF Final Energy:  -676.13818149999361

   => Energetics <=

    Nuclear Repulsion Energy =            228.7791672294094099
    One-Electron Energy =               -1387.0040215214064574
    Two-Electron Energy =                 482.0866727920033554
    Total Energy =                       -676.1381814999936068
  Basis Set: (AUG-CC-PVTZ AUX)
    Blend: AUG-CC-PVTZ-RI
    Molecular point group: c1

    Geometry (in Angstrom), charge = 0, multiplicity = 1:

       Center              X                  Y                   Z               Mass
    ------------   -----------------  -----------------  -----------------  -----------------
         CL          -1.725803121443    -0.361730054585    -0.145624850844    34.968852682000
         F            2.007507878557    -0.627289054585     0.550547149156    18.998403162730
         C            0.608574878557     1.069153945415    -0.327057850844    12.000000000000
         C           -0.530604121443     0.731053945415     0.618476149156    12.000000000000
         C            1.481913878557    -0.123605054585    -0.648188850844    12.000000000000
         H            0.223127678557     1.488449645415    -1.239201350844     1.007825032230
         H            1.228016878557     1.834573945415     0.154939149156     1.007825032230
         H           -0.149855121443     0.224622945415     1.505052149156     1.007825032230
         H           -1.070625121443     1.629170945415     0.919994149156     1.007825032230
         H            0.913154878557    -0.924214054585    -1.127462850844     1.007825032230
         H            2.320368878557     0.160405945415    -1.290825850844     1.007825032230

  Basis Set: AUG-CC-PVTZ
    Blend: AUG-CC-PVTZ
  Basis Set: (AUG-CC-PVTZ AUX)
    Blend: AUG-CC-PVTZ-JKFIT
	 Reference Energy          =    -676.1381814999936068 [Eh]
	 Singles Energy            =      -0.0000000000000000 [Eh]
	 Same-Spin Energy          =      -0.2569162896295717 [Eh]
	 Opposite-Spin Energy      =      -0.8316259800305696 [Eh]
	 Correlation Energy        =      -1.0885422696601412 [Eh]
	 Total Energy              =    -677.2267237696537450 [Eh]

	 ================> DF-SCS-MP2 Energies <==================
	-----------------------------------------------------------
	 SCS Same-Spin Scale       =       0.3333333333333333 [-]
	 SCS Opposite-Spin Scale   =       1.2000000000000000 [-]
	 SCS Same-Spin Energy      =      -0.0856387632098572 [Eh]
	 SCS Opposite-Spin Energy  =      -0.9979511760366835 [Eh]
	 SCS Correlation Energy    =      -1.0835899392465407 [Eh]
	 SCS Total Energy          =    -677.2217714392401149 [Eh]
	-----------------------------------------------------------

  Dipole Moment: [D]
     X:     0.6276      Y:     1.9763      Z:    -0.7878     Total:     2.2182

*** Psi4 exiting successfully. Buy a developer a beer!
