                               Psi4 1.4a3.dev225

  ==> Input File <==

--------------------------------------------------------------------------
#psi4
#
memory 32 gb

molecule  {
0 1
 Cl       -1.7567080    -0.4154380    -0.1305090
  F        1.9766030    -0.6809970     0.5656630
  C        0.5776700     1.0154460    -0.3119420
  C       -0.5615090     0.6773460     0.6335920
  C        1.3760562    -0.1054847    -0.8040197
  H        0.1850540     1.4425400    -1.2410500
  H        1.1971120     1.7808660     0.1700550
  H       -0.1807600     0.1709150     1.5201680
  H       -1.1015300     1.5754630     0.9351100
  H        0.8822500    -0.9779220    -1.1123470
  H        2.2894640     0.1066980    -1.2757100
units angstrom
no_reorient  #important for SAPT in psi4, default
symmetry c1  #important for SAPT in psi4, default
}

set PROPERTIES_ORIGIN ["COM"]
properties('MP2/aug-cc-pvtz', properties = ['dipole'])
--------------------------------------------------------------------------

    Molecular point group: c1
  Charge       = 0
  Multiplicity = 1
  Basis Set: AUG-CC-PVTZ
    Blend: AUG-CC-PVTZ
  Basis Set: (AUG-CC-PVTZ AUX)
    Blend: AUG-CC-PVTZ-JKFIT

    Orbital Energies [Eh]
    ---------------------

    Doubly Occupied:

       1A   -104.830266     2A    -26.231075     3A    -11.324228
       4A    -11.302447     5A    -11.259627     6A    -10.554748
       7A     -8.021575     8A     -8.019833     9A     -8.019781
      10A     -1.502767    11A     -1.154935    12A     -1.068518
      13A     -0.940279    14A     -0.827742    15A     -0.702474
      16A     -0.678756    17A     -0.623151    18A     -0.600792
      19A     -0.593336    20A     -0.560479    21A     -0.542949
      22A     -0.521299    23A     -0.513792    24A     -0.442790
      25A     -0.439064

  @DF-RHF Final Energy:  -676.10895521256452

   => Energetics <=

    Nuclear Repulsion Energy =            227.0566638594461324
    One-Electron Energy =               -1383.7778329251061677
    Two-Electron Energy =                 480.6122138530955112
    Total Energy =                       -676.1089552125645241
  Basis Set: (AUG-CC-PVTZ AUX)
    Blend: AUG-CC-PVTZ-RI
    Molecular point group: c1

    Geometry (in Angstrom), charge = 0, multiplicity = 1:

       Center              X                  Y                   Z               Mass
    ------------   -----------------  -----------------  -----------------  -----------------
         CL          -1.716360159474    -0.370789119465    -0.124081604974    34.968852682000
         F            2.016950840526    -0.636348119465     0.572090395026    18.998403162730
         C            0.618017840526     1.060094880535    -0.305514604974    12.000000000000
         C           -0.521161159474     0.721994880535     0.640019395026    12.000000000000
         C            1.416404040526    -0.060835819465    -0.797592304974    12.000000000000
         H            0.225401840526     1.487188880535    -1.234622604974     1.007825032230
         H            1.237459840526     1.825514880535     0.176482395026     1.007825032230
         H           -0.140412159474     0.215563880535     1.526595395026     1.007825032230
         H           -1.061182159474     1.620111880535     0.941537395026     1.007825032230
         H            0.922597840526    -0.933273119465    -1.105919604974     1.007825032230
         H            2.329811840526     0.151346880535    -1.269282604974     1.007825032230

  Basis Set: AUG-CC-PVTZ
    Blend: AUG-CC-PVTZ
  Basis Set: (AUG-CC-PVTZ AUX)
    Blend: AUG-CC-PVTZ-JKFIT
	 Reference Energy          =    -676.1089552125645241 [Eh]
	 Singles Energy            =      -0.0000000000000000 [Eh]
	 Same-Spin Energy          =      -0.2581416202539228 [Eh]
	 Opposite-Spin Energy      =      -0.8359385433401743 [Eh]
	 Correlation Energy        =      -1.0940801635940971 [Eh]
	 Total Energy              =    -677.2030353761585957 [Eh]

	 ================> DF-SCS-MP2 Energies <==================
	-----------------------------------------------------------
	 SCS Same-Spin Scale       =       0.3333333333333333 [-]
	 SCS Opposite-Spin Scale   =       1.2000000000000000 [-]
	 SCS Same-Spin Energy      =      -0.0860472067513076 [Eh]
	 SCS Opposite-Spin Energy  =      -1.0031262520082092 [Eh]
	 SCS Correlation Energy    =      -1.0891734587595168 [Eh]
	 SCS Total Energy          =    -677.1981286713240706 [Eh]
	-----------------------------------------------------------

  Dipole Moment: [D]
     X:     0.2034      Y:     2.3325      Z:    -1.3849     Total:     2.7203

*** Psi4 exiting successfully. Buy a developer a beer!
