                               Psi4 1.4a3.dev225

  ==> Input File <==

--------------------------------------------------------------------------
#psi4
#
memory 32 gb

molecule  {
0 1
 Cl       -1.7567080    -0.4154380    -0.1305090
  F        1.9999331    -0.7154978     0.5399377
  C        0.5776700     1.0154460    -0.3119420
  C       -0.5615090     0.6773460     0.6335920
  C        1.4510090    -0.1773130    -0.6330730
  H        0.1850540     1.4425400    -1.2410500
  H        1.1971120     1.7808660     0.1700550
  H       -0.1807600     0.1709150     1.5201680
  H       -1.1015300     1.5754630     0.9351100
  H        0.8822500    -0.9779220    -1.1123470
  H        2.2894640     0.1066980    -1.2757100
units angstrom
no_reorient  #important for SAPT in psi4, default
symmetry c1  #important for SAPT in psi4, default
}

set PROPERTIES_ORIGIN ["COM"]
properties('MP2/aug-cc-pvtz', properties = ['dipole'])
--------------------------------------------------------------------------

    Molecular point group: c1
  Charge       = 0
  Multiplicity = 1
  Basis Set: AUG-CC-PVTZ
    Blend: AUG-CC-PVTZ
  Basis Set: (AUG-CC-PVTZ AUX)
    Blend: AUG-CC-PVTZ-JKFIT

    Orbital Energies [Eh]
    ---------------------

    Doubly Occupied:

       1A   -104.826952     2A    -26.280109     3A    -11.315001
       4A    -11.298398     5A    -11.252554     6A    -10.551453
       7A     -8.018278     8A     -8.016535     9A     -8.016494
      10A     -1.586256    11A     -1.148592    12A     -1.050933
      13A     -0.930493    14A     -0.823427    15A     -0.710828
      16A     -0.705321    17A     -0.666010    18A     -0.621740
      19A     -0.615733    20A     -0.563040    21A     -0.530287
      22A     -0.515893    23A     -0.500063    24A     -0.437802
      25A     -0.436004

  @DF-RHF Final Energy:  -676.13813404682037

   => Energetics <=

    Nuclear Repulsion Energy =            228.2446237000620215
    One-Electron Energy =               -1385.9291226608495435
    Two-Electron Energy =                 481.5463649139671247
    Total Energy =                       -676.1381340468203689
  Basis Set: (AUG-CC-PVTZ AUX)
    Blend: AUG-CC-PVTZ-RI
    Molecular point group: c1

    Geometry (in Angstrom), charge = 0, multiplicity = 1:

       Center              X                  Y                   Z               Mass
    ------------   -----------------  -----------------  -----------------  -----------------
         CL          -1.730344217678    -0.354985211164    -0.140356496405    34.968852682000
         F            2.026296882322    -0.655045011164     0.530090203595    18.998403162730
         C            0.604033782322     1.075898788836    -0.321789496405    12.000000000000
         C           -0.535145217678     0.737798788836     0.623744503595    12.000000000000
         C            1.477372782322    -0.116860211164    -0.642920496405    12.000000000000
         H            0.211417782322     1.502992788836    -1.250897496405     1.007825032230
         H            1.223475782322     1.841318788836     0.160207503595     1.007825032230
         H           -0.154396217678     0.231367788836     1.510320503595     1.007825032230
         H           -1.075166217678     1.635915788836     0.925262503595     1.007825032230
         H            0.908613782322    -0.917469211164    -1.122194496405     1.007825032230
         H            2.315827782322     0.167150788836    -1.285557496405     1.007825032230

  Basis Set: AUG-CC-PVTZ
    Blend: AUG-CC-PVTZ
  Basis Set: (AUG-CC-PVTZ AUX)
    Blend: AUG-CC-PVTZ-JKFIT
	 Reference Energy          =    -676.1381340468203689 [Eh]
	 Singles Energy            =      -0.0000000000000000 [Eh]
	 Same-Spin Energy          =      -0.2568702286710470 [Eh]
	 Opposite-Spin Energy      =      -0.8316967094536590 [Eh]
	 Correlation Energy        =      -1.0885669381247061 [Eh]
	 Total Energy              =    -677.2267009849450687 [Eh]

	 ================> DF-SCS-MP2 Energies <==================
	-----------------------------------------------------------
	 SCS Same-Spin Scale       =       0.3333333333333333 [-]
	 SCS Opposite-Spin Scale   =       1.2000000000000000 [-]
	 SCS Same-Spin Energy      =      -0.0856234095570157 [Eh]
	 SCS Opposite-Spin Energy  =      -0.9980360513443908 [Eh]
	 SCS Correlation Energy    =      -1.0836594609014065 [Eh]
	 SCS Total Energy          =    -677.2217935077218272 [Eh]
	-----------------------------------------------------------

  Dipole Moment: [D]
     X:     0.5788      Y:     2.0278      Z:    -0.7500     Total:     2.2382

*** Psi4 exiting successfully. Buy a developer a beer!
