                               Psi4 1.4a3.dev225

  ==> Input File <==

--------------------------------------------------------------------------
#psi4
#
memory 32 gb

molecule  {
0 1
 Cl       -1.7567080    -0.4154380    -0.1305090
  F        1.9766030    -0.6809970     0.5656630
  C        0.5776700     1.0154460    -0.3119420
  C       -0.5615090     0.6773460     0.6335920
  C        1.4884854    -0.2132271    -0.5475996
  H        0.1850540     1.4425400    -1.2410500
  H        1.1971120     1.7808660     0.1700550
  H       -0.1807600     0.1709150     1.5201680
  H       -1.1015300     1.5754630     0.9351100
  H        0.8822500    -0.9779220    -1.1123470
  H        2.2894640     0.1066980    -1.2757100
units angstrom
no_reorient  #important for SAPT in psi4, default
symmetry c1  #important for SAPT in psi4, default
}

set PROPERTIES_ORIGIN ["COM"]
properties('MP2/aug-cc-pvtz', properties = ['dipole'])
--------------------------------------------------------------------------

    Molecular point group: c1
  Charge       = 0
  Multiplicity = 1
  Basis Set: AUG-CC-PVTZ
    Blend: AUG-CC-PVTZ
  Basis Set: (AUG-CC-PVTZ AUX)
    Blend: AUG-CC-PVTZ-JKFIT

    Orbital Energies [Eh]
    ---------------------

    Doubly Occupied:

       1A   -104.824818     2A    -26.304508     3A    -11.317643
       4A    -11.295671     5A    -11.248412     6A    -10.549335
       7A     -8.016159     8A     -8.014418     9A     -8.014382
      10A     -1.642870    11A     -1.145041    12A     -1.041771
      13A     -0.928023    14A     -0.826738    15A     -0.735536
      16A     -0.733344    17A     -0.697522    18A     -0.625069
      19A     -0.618450    20A     -0.559567    21A     -0.524524
      22A     -0.494607    23A     -0.484639    24A     -0.434663
      25A     -0.433004

  @DF-RHF Final Energy:  -676.13036668238101

   => Energetics <=

    Nuclear Repulsion Energy =            229.6283680574627510
    One-Electron Energy =               -1388.4960369516779792
    Two-Electron Energy =                 482.7373022118342760
    Total Energy =                       -676.1303666823810090
  Basis Set: (AUG-CC-PVTZ AUX)
    Blend: AUG-CC-PVTZ-RI
    Molecular point group: c1

    Geometry (in Angstrom), charge = 0, multiplicity = 1:

       Center              X                  Y                   Z               Mass
    ------------   -----------------  -----------------  -----------------  -----------------
         CL          -1.730411730129    -0.357323312130    -0.156129375059    34.968852682000
         F            2.002899269871    -0.622882312130     0.540042624941    18.998403162730
         C            0.603966269871     1.073560687870    -0.337562375059    12.000000000000
         C           -0.535212730129     0.735460687870     0.607971624941    12.000000000000
         C            1.514781669871    -0.155112412130    -0.573219975059    12.000000000000
         H            0.211350269871     1.500654687870    -1.266670375059     1.007825032230
         H            1.223408269871     1.838980687870     0.144434624941     1.007825032230
         H           -0.154463730129     0.229029687870     1.494547624941     1.007825032230
         H           -1.075233730129     1.633577687870     0.909489624941     1.007825032230
         H            0.908546269871    -0.919807312130    -1.137967375059     1.007825032230
         H            2.315760269871     0.164812687870    -1.301330375059     1.007825032230

  Basis Set: AUG-CC-PVTZ
    Blend: AUG-CC-PVTZ
  Basis Set: (AUG-CC-PVTZ AUX)
    Blend: AUG-CC-PVTZ-JKFIT
	 Reference Energy          =    -676.1303666823810090 [Eh]
	 Singles Energy            =      -0.0000000000000000 [Eh]
	 Same-Spin Energy          =      -0.2567767380665377 [Eh]
	 Opposite-Spin Energy      =      -0.8302236663639146 [Eh]
	 Correlation Energy        =      -1.0870004044304524 [Eh]
	 Total Energy              =    -677.2173670868114641 [Eh]

	 ================> DF-SCS-MP2 Energies <==================
	-----------------------------------------------------------
	 SCS Same-Spin Scale       =       0.3333333333333333 [-]
	 SCS Opposite-Spin Scale   =       1.2000000000000000 [-]
	 SCS Same-Spin Energy      =      -0.0855922460221792 [Eh]
	 SCS Opposite-Spin Energy  =      -0.9962683996366976 [Eh]
	 SCS Correlation Energy    =      -1.0818606456588769 [Eh]
	 SCS Total Energy          =    -677.2122273280398304 [Eh]
	-----------------------------------------------------------

  Dipole Moment: [D]
     X:     0.8398      Y:     1.7891      Z:    -0.4275     Total:     2.0221

*** Psi4 exiting successfully. Buy a developer a beer!
