                               Psi4 1.4a3.dev225

  ==> Input File <==

--------------------------------------------------------------------------
#psi4
#
memory 32 gb

molecule  {
0 1
 Cl       -1.7567080    -0.4154380    -0.1305090
  F        1.9766030    -0.6809970     0.5656630
  C        0.5776700     1.0154460    -0.3119420
  C       -0.5615090     0.6773460     0.6335920
  C        1.4585043    -0.1844958    -0.6159783
  H        0.1850540     1.4425400    -1.2410500
  H        1.1971120     1.7808660     0.1700550
  H       -0.1807600     0.1709150     1.5201680
  H       -1.1015300     1.5754630     0.9351100
  H        0.8822500    -0.9779220    -1.1123470
  H        2.2894640     0.1066980    -1.2757100
units angstrom
no_reorient  #important for SAPT in psi4, default
symmetry c1  #important for SAPT in psi4, default
}

set PROPERTIES_ORIGIN ["COM"]
properties('MP2/aug-cc-pvtz', properties = ['dipole'])
--------------------------------------------------------------------------

    Molecular point group: c1
  Charge       = 0
  Multiplicity = 1
  Basis Set: AUG-CC-PVTZ
    Blend: AUG-CC-PVTZ
  Basis Set: (AUG-CC-PVTZ AUX)
    Blend: AUG-CC-PVTZ-JKFIT

    Orbital Energies [Eh]
    ---------------------

    Doubly Occupied:

       1A   -104.826198     2A    -26.285227     3A    -11.315434
       4A    -11.297277     5A    -11.250769     6A    -10.550706
       7A     -8.017531     8A     -8.015790     9A     -8.015750
      10A     -1.597124    11A     -1.147402    12A     -1.048698
      13A     -0.929739    14A     -0.822886    15A     -0.714798
      16A     -0.711638    17A     -0.672682    18A     -0.621499
      19A     -0.616115    20A     -0.562357    21A     -0.528490
      22A     -0.512089    23A     -0.497801    24A     -0.436896
      25A     -0.435184

  @DF-RHF Final Energy:  -676.13819596772362

   => Energetics <=

    Nuclear Repulsion Energy =            228.8617000003378621
    One-Electron Energy =               -1387.1396298495269548
    Two-Electron Energy =                 482.1397338814654745
    Total Energy =                       -676.1381959677237319
  Basis Set: (AUG-CC-PVTZ AUX)
    Blend: AUG-CC-PVTZ-RI
    Molecular point group: c1

    Geometry (in Angstrom), charge = 0, multiplicity = 1:

       Center              X                  Y                   Z               Mass
    ------------   -----------------  -----------------  -----------------  -----------------
         CL          -1.726664647121    -0.360914193253    -0.147583302203    34.968852682000
         F            2.006646352879    -0.626473193253     0.548588697797    18.998403162730
         C            0.607713352879     1.069969806747    -0.329016302203    12.000000000000
         C           -0.531465647121     0.731869806747     0.616517697797    12.000000000000
         C            1.488547652879    -0.129971993253    -0.633052602203    12.000000000000
         H            0.215097352879     1.497063806747    -1.258124302203     1.007825032230
         H            1.227155352879     1.835389806747     0.152980697797     1.007825032230
         H           -0.150716647121     0.225438806747     1.503093697797     1.007825032230
         H           -1.071486647121     1.629986806747     0.918035697797     1.007825032230
         H            0.912293352879    -0.923398193253    -1.129421302203     1.007825032230
         H            2.319507352879     0.161221806747    -1.292784302203     1.007825032230

  Basis Set: AUG-CC-PVTZ
    Blend: AUG-CC-PVTZ
  Basis Set: (AUG-CC-PVTZ AUX)
    Blend: AUG-CC-PVTZ-JKFIT
	 Reference Energy          =    -676.1381959677236182 [Eh]
	 Singles Energy            =      -0.0000000000000000 [Eh]
	 Same-Spin Energy          =      -0.2568651932100828 [Eh]
	 Opposite-Spin Energy      =      -0.8313932629357028 [Eh]
	 Correlation Energy        =      -1.0882584561457855 [Eh]
	 Total Energy              =    -677.2264544238694270 [Eh]

	 ================> DF-SCS-MP2 Energies <==================
	-----------------------------------------------------------
	 SCS Same-Spin Scale       =       0.3333333333333333 [-]
	 SCS Opposite-Spin Scale   =       1.2000000000000000 [-]
	 SCS Same-Spin Energy      =      -0.0856217310700276 [Eh]
	 SCS Opposite-Spin Energy  =      -0.9976719155228433 [Eh]
	 SCS Correlation Energy    =      -1.0832936465928709 [Eh]
	 SCS Total Energy          =    -677.2214896143165106 [Eh]
	-----------------------------------------------------------

  Dipole Moment: [D]
     X:     0.6700      Y:     1.9362      Z:    -0.7146     Total:     2.1699

*** Psi4 exiting successfully. Buy a developer a beer!
