                               Psi4 1.4a3.dev225

  ==> Input File <==

--------------------------------------------------------------------------
#psi4
#
memory 32 gb

molecule  {
0 1
 Cl       -1.7567080    -0.4154380    -0.1305090
  F        1.9766030    -0.6809970     0.5656630
  C        0.5776700     1.0154460    -0.3119420
  C       -0.5615090     0.6773460     0.6335920
  C        1.4135326    -0.1413989    -0.7185464
  H        0.1850540     1.4425400    -1.2410500
  H        1.1971120     1.7808660     0.1700550
  H       -0.1807600     0.1709150     1.5201680
  H       -1.1015300     1.5754630     0.9351100
  H        0.8822500    -0.9779220    -1.1123470
  H        2.2894640     0.1066980    -1.2757100
units angstrom
no_reorient  #important for SAPT in psi4, default
symmetry c1  #important for SAPT in psi4, default
}

set PROPERTIES_ORIGIN ["COM"]
properties('MP2/aug-cc-pvtz', properties = ['dipole'])
--------------------------------------------------------------------------

    Molecular point group: c1
  Charge       = 0
  Multiplicity = 1
  Basis Set: AUG-CC-PVTZ
    Blend: AUG-CC-PVTZ
  Basis Set: (AUG-CC-PVTZ AUX)
    Blend: AUG-CC-PVTZ-JKFIT

    Orbital Energies [Eh]
    ---------------------

    Doubly Occupied:

       1A   -104.828352     2A    -26.256313     3A    -11.317819
       4A    -11.299967     5A    -11.255037     6A    -10.552847
       7A     -8.019673     8A     -8.017932     9A     -8.017885
      10A     -1.541370    11A     -1.151309    12A     -1.059526
      13A     -0.935176    14A     -0.823821    15A     -0.701851
      16A     -0.688858    17A     -0.636987    18A     -0.613076
      19A     -0.604440    20A     -0.566345    21A     -0.537410
      22A     -0.524620    23A     -0.509910    24A     -0.440209
      25A     -0.437370

  @DF-RHF Final Energy:  -676.12880729599613

   => Energetics <=

    Nuclear Repulsion Energy =            227.8453482449718592
    One-Electron Energy =               -1385.2721064538050086
    Two-Electron Energy =                 481.2979509128370523
    Total Energy =                       -676.1288072959962392
  Basis Set: (AUG-CC-PVTZ AUX)
    Blend: AUG-CC-PVTZ-RI
    Molecular point group: c1

    Geometry (in Angstrom), charge = 0, multiplicity = 1:

       Center              X                  Y                   Z               Mass
    ------------   -----------------  -----------------  -----------------  -----------------
         CL          -1.721044016359    -0.366300508688    -0.134764186670    34.968852682000
         F            2.012266983641    -0.631859508688     0.561407813330    18.998403162730
         C            0.613333983641     1.064583491312    -0.316197186670    12.000000000000
         C           -0.525845016359     0.726483491312     0.629336813330    12.000000000000
         C            1.449196583641    -0.092261408688    -0.722801586670    12.000000000000
         H            0.220717983641     1.491677491312    -1.245305186670     1.007825032230
         H            1.232775983641     1.830003491312     0.165799813330     1.007825032230
         H           -0.145096016359     0.220052491312     1.515912813330     1.007825032230
         H           -1.065866016359     1.624600491312     0.930854813330     1.007825032230
         H            0.917913983641    -0.928784508688    -1.116602186670     1.007825032230
         H            2.325127983641     0.155835491312    -1.279965186670     1.007825032230

  Basis Set: AUG-CC-PVTZ
    Blend: AUG-CC-PVTZ
  Basis Set: (AUG-CC-PVTZ AUX)
    Blend: AUG-CC-PVTZ-JKFIT
	 Reference Energy          =    -676.1288072959961255 [Eh]
	 Singles Energy            =      -0.0000000000000000 [Eh]
	 Same-Spin Energy          =      -0.2574237766101251 [Eh]
	 Opposite-Spin Energy      =      -0.8337872002223823 [Eh]
	 Correlation Energy        =      -1.0912109768325073 [Eh]
	 Total Energy              =    -677.2200182728286109 [Eh]

	 ================> DF-SCS-MP2 Energies <==================
	-----------------------------------------------------------
	 SCS Same-Spin Scale       =       0.3333333333333333 [-]
	 SCS Opposite-Spin Scale   =       1.2000000000000000 [-]
	 SCS Same-Spin Energy      =      -0.0858079255367084 [Eh]
	 SCS Opposite-Spin Energy  =      -1.0005446402668587 [Eh]
	 SCS Correlation Energy    =      -1.0863525658035671 [Eh]
	 SCS Total Energy          =    -677.2151598617997479 [Eh]
	-----------------------------------------------------------

  Dipole Moment: [D]
     X:     0.4178      Y:     2.1514      Z:    -1.0955     Total:     2.4501

*** Psi4 exiting successfully. Buy a developer a beer!
