                               Psi4 1.4a3.dev225

  ==> Input File <==

--------------------------------------------------------------------------
#psi4
#
memory 32 gb

molecule  {
0 1
 Cl       -1.7567080    -0.4154380    -0.1305090
  F        2.0361799    -0.5484211     0.5862581
  C        0.5776700     1.0154460    -0.3119420
  C       -0.5615090     0.6773460     0.6335920
  C        1.4510090    -0.1773130    -0.6330730
  H        0.1850540     1.4425400    -1.2410500
  H        1.1971120     1.7808660     0.1700550
  H       -0.1807600     0.1709150     1.5201680
  H       -1.1015300     1.5754630     0.9351100
  H        0.8822500    -0.9779220    -1.1123470
  H        2.2894640     0.1066980    -1.2757100
units angstrom
no_reorient  #important for SAPT in psi4, default
symmetry c1  #important for SAPT in psi4, default
}

set PROPERTIES_ORIGIN ["COM"]
properties('MP2/aug-cc-pvtz', properties = ['dipole'])
--------------------------------------------------------------------------

    Molecular point group: c1
  Charge       = 0
  Multiplicity = 1
  Basis Set: AUG-CC-PVTZ
    Blend: AUG-CC-PVTZ
  Basis Set: (AUG-CC-PVTZ AUX)
    Blend: AUG-CC-PVTZ-JKFIT

    Orbital Energies [Eh]
    ---------------------

    Doubly Occupied:

       1A   -104.826746     2A    -26.280788     3A    -11.315822
       4A    -11.297437     5A    -11.249491     6A    -10.551265
       7A     -8.018088     8A     -8.016352     9A     -8.016311
      10A     -1.587916    11A     -1.147889    12A     -1.049900
      13A     -0.930688    14A     -0.821708    15A     -0.712297
      16A     -0.710249    17A     -0.664898    18A     -0.617948
      19A     -0.614666    20A     -0.565787    21A     -0.526294
      22A     -0.513684    23A     -0.502443    24A     -0.437612
      25A     -0.435712

  @DF-RHF Final Energy:  -676.13593102441860

   => Energetics <=

    Nuclear Repulsion Energy =            228.7128431149772041
    One-Electron Energy =               -1386.8735685984443080
    Two-Electron Energy =                 482.0247944590485076
    Total Energy =                       -676.1359310244185963
  Basis Set: (AUG-CC-PVTZ AUX)
    Blend: AUG-CC-PVTZ-RI
    Molecular point group: c1

    Geometry (in Angstrom), charge = 0, multiplicity = 1:

       Center              X                  Y                   Z               Mass
    ------------   -----------------  -----------------  -----------------  -----------------
         CL          -1.737516399256    -0.388044803455    -0.149521948791    34.968852682000
         F            2.055371500744    -0.521027903455     0.567245151209    18.998403162730
         C            0.596861600744     1.042839196545    -0.330954948791    12.000000000000
         C           -0.542317399256     0.704739196545     0.614579051209    12.000000000000
         C            1.470200600744    -0.149919803455    -0.652085948791    12.000000000000
         H            0.204245600744     1.469933196545    -1.260062948791     1.007825032230
         H            1.216303600744     1.808259196545     0.151042051209     1.007825032230
         H           -0.161568399256     0.198308196545     1.501155051209     1.007825032230
         H           -1.082338399256     1.602856196545     0.916097051209     1.007825032230
         H            0.901441600744    -0.950528803455    -1.131359948791     1.007825032230
         H            2.308655600744     0.134091196545    -1.294722948791     1.007825032230

  Basis Set: AUG-CC-PVTZ
    Blend: AUG-CC-PVTZ
  Basis Set: (AUG-CC-PVTZ AUX)
    Blend: AUG-CC-PVTZ-JKFIT
	 Reference Energy          =    -676.1359310244185963 [Eh]
	 Singles Energy            =      -0.0000000000000000 [Eh]
	 Same-Spin Energy          =      -0.2570221390920572 [Eh]
	 Opposite-Spin Energy      =      -0.8319184049928483 [Eh]
	 Correlation Energy        =      -1.0889405440849056 [Eh]
	 Total Energy              =    -677.2248715685035449 [Eh]

	 ================> DF-SCS-MP2 Energies <==================
	-----------------------------------------------------------
	 SCS Same-Spin Scale       =       0.3333333333333333 [-]
	 SCS Opposite-Spin Scale   =       1.2000000000000000 [-]
	 SCS Same-Spin Energy      =      -0.0856740463640191 [Eh]
	 SCS Opposite-Spin Energy  =      -0.9983020859914179 [Eh]
	 SCS Correlation Energy    =      -1.0839761323554369 [Eh]
	 SCS Total Energy          =    -677.2199071567740702 [Eh]
	-----------------------------------------------------------

  Dipole Moment: [D]
     X:     0.5707      Y:     1.7930      Z:    -0.8028     Total:     2.0458

*** Psi4 exiting successfully. Buy a developer a beer!
