                               Psi4 1.4a3.dev225

  ==> Input File <==

--------------------------------------------------------------------------
#psi4
#
memory 32 gb

molecule  {
0 1
 Cl       -1.7567080    -0.4154380    -0.1305090
  F        1.9766030    -0.6809970     0.5656630
  C        0.5776700     1.0154460    -0.3119420
  C       -0.5615090     0.6773460     0.6335920
  C        1.4435137    -0.1701302    -0.6501677
  H        0.1850540     1.4425400    -1.2410500
  H        1.1971120     1.7808660     0.1700550
  H       -0.1807600     0.1709150     1.5201680
  H       -1.1015300     1.5754630     0.9351100
  H        0.8822500    -0.9779220    -1.1123470
  H        2.2894640     0.1066980    -1.2757100
units angstrom
no_reorient  #important for SAPT in psi4, default
symmetry c1  #important for SAPT in psi4, default
}

set PROPERTIES_ORIGIN ["COM"]
properties('MP2/aug-cc-pvtz', properties = ['dipole'])
--------------------------------------------------------------------------

    Molecular point group: c1
  Charge       = 0
  Multiplicity = 1
  Basis Set: AUG-CC-PVTZ
    Blend: AUG-CC-PVTZ
  Basis Set: (AUG-CC-PVTZ AUX)
    Blend: AUG-CC-PVTZ-JKFIT

    Orbital Energies [Eh]
    ---------------------

    Doubly Occupied:

       1A   -104.826901     2A    -26.275697     3A    -11.315512
       4A    -11.298136     5A    -11.252065     6A    -10.551404
       7A     -8.018229     8A     -8.016489     9A     -8.016446
      10A     -1.577095    11A     -1.148651    12A     -1.052275
      13A     -0.931342    14A     -0.822511    15A     -0.708345
      16A     -0.702487    17A     -0.659998    18A     -0.619282
      19A     -0.613127    20A     -0.564007    21A     -0.530693
      22A     -0.518859    23A     -0.502780    24A     -0.438035
      25A     -0.435961

  @DF-RHF Final Energy:  -676.13739130407612

   => Energetics <=

    Nuclear Repulsion Energy =            228.5092107171627163
    One-Electron Energy =               -1386.5005503460456566
    Two-Electron Energy =                 481.8539483248068791
    Total Energy =                       -676.1373913040761181
  Basis Set: (AUG-CC-PVTZ AUX)
    Blend: AUG-CC-PVTZ-RI
    Molecular point group: c1

    Geometry (in Angstrom), charge = 0, multiplicity = 1:

       Center              X                  Y                   Z               Mass
    ------------   -----------------  -----------------  -----------------  -----------------
         CL          -1.724791099367    -0.362709627565    -0.143310259526    34.968852682000
         F            2.008519900633    -0.628268627565     0.552861740474    18.998403162730
         C            0.609586900633     1.068174372435    -0.324743259526    12.000000000000
         C           -0.529592099367     0.730074372435     0.620790740474    12.000000000000
         C            1.475430600633    -0.117401827565    -0.662968959526    12.000000000000
         H            0.216970900633     1.495268372435    -1.253851259526     1.007825032230
         H            1.229028900633     1.833594372435     0.157253740474     1.007825032230
         H           -0.148843099367     0.223643372435     1.507366740474     1.007825032230
         H           -1.069613099367     1.628191372435     0.922308740474     1.007825032230
         H            0.914166900633    -0.925193627565    -1.125148259526     1.007825032230
         H            2.321380900633     0.159426372435    -1.288511259526     1.007825032230

  Basis Set: AUG-CC-PVTZ
    Blend: AUG-CC-PVTZ
  Basis Set: (AUG-CC-PVTZ AUX)
    Blend: AUG-CC-PVTZ-JKFIT
	 Reference Energy          =    -676.1373913040761181 [Eh]
	 Singles Energy            =      -0.0000000000000000 [Eh]
	 Same-Spin Energy          =      -0.2570017745313856 [Eh]
	 Opposite-Spin Energy      =      -0.8321295893800447 [Eh]
	 Correlation Energy        =      -1.0891313639114304 [Eh]
	 Total Energy              =    -677.2265226679875241 [Eh]

	 ================> DF-SCS-MP2 Energies <==================
	-----------------------------------------------------------
	 SCS Same-Spin Scale       =       0.3333333333333333 [-]
	 SCS Opposite-Spin Scale   =       1.2000000000000000 [-]
	 SCS Same-Spin Energy      =      -0.0856672581771285 [Eh]
	 SCS Opposite-Spin Energy  =      -0.9985555072560536 [Eh]
	 SCS Correlation Energy    =      -1.0842227654331822 [Eh]
	 SCS Total Energy          =    -677.2216140695093145 [Eh]
	-----------------------------------------------------------

  Dipole Moment: [D]
     X:     0.5862      Y:     2.0081      Z:    -0.8468     Total:     2.2567

*** Psi4 exiting successfully. Buy a developer a beer!
