                               Psi4 1.4a3.dev225

  ==> Input File <==

--------------------------------------------------------------------------
#psi4
#
memory 32 gb

molecule  {
0 1
 Cl       -1.7567080    -0.4154380    -0.1305090
  F        1.9766030    -0.6809970     0.5656630
  C        0.5776700     1.0154460    -0.3119420
  C       -0.5615090     0.6773460     0.6335920
  C        1.3932785    -0.0984678    -0.6118452
  H        0.1850540     1.4425400    -1.2410500
  H        1.1971120     1.7808660     0.1700550
  H       -0.1807600     0.1709150     1.5201680
  H       -1.1015300     1.5754630     0.9351100
  H        0.8822500    -0.9779220    -1.1123470
  H        2.2894640     0.1066980    -1.2757100
units angstrom
no_reorient  #important for SAPT in psi4, default
symmetry c1  #important for SAPT in psi4, default
}

set PROPERTIES_ORIGIN ["COM"]
properties('MP2/aug-cc-pvtz', properties = ['dipole'])
--------------------------------------------------------------------------

    Molecular point group: c1
  Charge       = 0
  Multiplicity = 1
  Basis Set: AUG-CC-PVTZ
    Blend: AUG-CC-PVTZ
  Basis Set: (AUG-CC-PVTZ AUX)
    Blend: AUG-CC-PVTZ-JKFIT

    Orbital Energies [Eh]
    ---------------------

    Doubly Occupied:

       1A   -104.828111     2A    -26.271953     3A    -11.318672
       4A    -11.299984     5A    -11.250351     6A    -10.552588
       7A     -8.019415     8A     -8.017665     9A     -8.017621
      10A     -1.570203    11A     -1.155636    12A     -1.069626
      13A     -0.927852    14A     -0.821170    15A     -0.707587
      16A     -0.700531    17A     -0.657546    18A     -0.620061
      19A     -0.612628    20A     -0.561436    21A     -0.543140
      22A     -0.523528    23A     -0.489287    24A     -0.439403
      25A     -0.436758

  @DF-RHF Final Energy:  -676.12515892727299

   => Energetics <=

    Nuclear Repulsion Energy =            229.5801034521182089
    One-Electron Energy =               -1388.5850214525862611
    Two-Electron Energy =                 482.8797590731950322
    Total Energy =                       -676.1251589272729916
  Basis Set: (AUG-CC-PVTZ AUX)
    Blend: AUG-CC-PVTZ-RI
    Molecular point group: c1

    Geometry (in Angstrom), charge = 0, multiplicity = 1:

       Center              X                  Y                   Z               Mass
    ------------   -----------------  -----------------  -----------------  -----------------
         CL          -1.718512628453    -0.371666102190    -0.148099863262    34.968852682000
         F            2.014798371547    -0.637225102190     0.548072136738    18.998403162730
         C            0.615865371547     1.059217897810    -0.329532863262    12.000000000000
         C           -0.523313628453     0.721117897810     0.616001136738    12.000000000000
         C            1.431473871547    -0.054695902190    -0.629436063262    12.000000000000
         H            0.223249371547     1.486311897810    -1.258640863262     1.007825032230
         H            1.235307371547     1.824637897810     0.152464136738     1.007825032230
         H           -0.142564628453     0.214686897810     1.502577136738     1.007825032230
         H           -1.063334628453     1.619234897810     0.917519136738     1.007825032230
         H            0.920445371547    -0.934150102190    -1.129937863262     1.007825032230
         H            2.327659371547     0.150469897810    -1.293300863262     1.007825032230

  Basis Set: AUG-CC-PVTZ
    Blend: AUG-CC-PVTZ
  Basis Set: (AUG-CC-PVTZ AUX)
    Blend: AUG-CC-PVTZ-JKFIT
	 Reference Energy          =    -676.1251589272729916 [Eh]
	 Singles Energy            =      -0.0000000000000000 [Eh]
	 Same-Spin Energy          =      -0.2582241167420702 [Eh]
	 Opposite-Spin Energy      =      -0.8337853808783671 [Eh]
	 Correlation Energy        =      -1.0920094976204373 [Eh]
	 Total Energy              =    -677.2171684248934298 [Eh]

	 ================> DF-SCS-MP2 Energies <==================
	-----------------------------------------------------------
	 SCS Same-Spin Scale       =       0.3333333333333333 [-]
	 SCS Opposite-Spin Scale   =       1.2000000000000000 [-]
	 SCS Same-Spin Energy      =      -0.0860747055806901 [Eh]
	 SCS Opposite-Spin Energy  =      -1.0005424570540404 [Eh]
	 SCS Correlation Energy    =      -1.0866171626347305 [Eh]
	 SCS Total Energy          =    -677.2117760899077439 [Eh]
	-----------------------------------------------------------

  Dipole Moment: [D]
     X:     0.4331      Y:     2.1640      Z:    -0.8242     Total:     2.3558

*** Psi4 exiting successfully. Buy a developer a beer!
