                               Psi4 1.4a3.dev225

  ==> Input File <==

--------------------------------------------------------------------------
#psi4
#
memory 32 gb

molecule  {
0 1
 Cl       -1.7567080    -0.4154380    -0.1305090
  F        1.9766030    -0.6809970     0.5656630
  C        0.5776700     1.0154460    -0.3119420
  C       -0.5615090     0.6773460     0.6335920
  C        1.4510090    -0.1773130    -0.6330730
  H        0.1850540     1.4425400    -1.2410500
  H        1.2253632     1.8157749     0.1920377
  H       -0.1807600     0.1709150     1.5201680
  H       -1.1015300     1.5754630     0.9351100
  H        0.8822500    -0.9779220    -1.1123470
  H        2.2894640     0.1066980    -1.2757100
units angstrom
no_reorient  #important for SAPT in psi4, default
symmetry c1  #important for SAPT in psi4, default
}

set PROPERTIES_ORIGIN ["COM"]
properties('MP2/aug-cc-pvtz', properties = ['dipole'])
--------------------------------------------------------------------------

    Molecular point group: c1
  Charge       = 0
  Multiplicity = 1
  Basis Set: AUG-CC-PVTZ
    Blend: AUG-CC-PVTZ
  Basis Set: (AUG-CC-PVTZ AUX)
    Blend: AUG-CC-PVTZ-JKFIT

    Orbital Energies [Eh]
    ---------------------

    Doubly Occupied:

       1A   -104.826960     2A    -26.280530     3A    -11.315899
       4A    -11.298100     5A    -11.257282     6A    -10.551466
       7A     -8.018290     8A     -8.016549     9A     -8.016505
      10A     -1.586950    11A     -1.147958    12A     -1.048745
      13A     -0.930491    14A     -0.819745    15A     -0.711107
      16A     -0.706623    17A     -0.665780    18A     -0.616986
      19A     -0.613463    20A     -0.563415    21A     -0.529611
      22A     -0.516201    23A     -0.496480    24A     -0.437780
      25A     -0.435843

  @DF-RHF Final Energy:  -676.13607053035207

   => Energetics <=

    Nuclear Repulsion Energy =            228.4461034856072956
    One-Electron Energy =               -1386.3468295999596194
    Two-Electron Energy =                 481.7646555840003089
    Total Energy =                       -676.1360705303520717
  Basis Set: (AUG-CC-PVTZ AUX)
    Blend: AUG-CC-PVTZ-RI
    Molecular point group: c1

    Geometry (in Angstrom), charge = 0, multiplicity = 1:

       Center              X                  Y                   Z               Mass
    ------------   -----------------  -----------------  -----------------  -----------------
         CL          -1.726024415472    -0.362178336011    -0.145677525004    34.968852682000
         F            2.007286584528    -0.627737336011     0.550494474996    18.998403162730
         C            0.608353584528     1.068705663989    -0.327110525004    12.000000000000
         C           -0.530825415472     0.730605663989     0.618423474996    12.000000000000
         C            1.481692584528    -0.124053336011    -0.648241525004    12.000000000000
         H            0.215737584528     1.495799663989    -1.256218525004     1.007825032230
         H            1.256046784528     1.869034563989     0.176869174996     1.007825032230
         H           -0.150076415472     0.224174663989     1.504999474996     1.007825032230
         H           -1.070846415472     1.628722663989     0.919941474996     1.007825032230
         H            0.912933584528    -0.924662336011    -1.127515525004     1.007825032230
         H            2.320147584528     0.159957663989    -1.290878525004     1.007825032230

  Basis Set: AUG-CC-PVTZ
    Blend: AUG-CC-PVTZ
  Basis Set: (AUG-CC-PVTZ AUX)
    Blend: AUG-CC-PVTZ-JKFIT
	 Reference Energy          =    -676.1360705303520717 [Eh]
	 Singles Energy            =      -0.0000000000000000 [Eh]
	 Same-Spin Energy          =      -0.2569437044606199 [Eh]
	 Opposite-Spin Energy      =      -0.8320796628940860 [Eh]
	 Correlation Energy        =      -1.0890233673547058 [Eh]
	 Total Energy              =    -677.2250938977067563 [Eh]

	 ================> DF-SCS-MP2 Energies <==================
	-----------------------------------------------------------
	 SCS Same-Spin Scale       =       0.3333333333333333 [-]
	 SCS Opposite-Spin Scale   =       1.2000000000000000 [-]
	 SCS Same-Spin Energy      =      -0.0856479014868733 [Eh]
	 SCS Opposite-Spin Energy  =      -0.9984955954729031 [Eh]
	 SCS Correlation Energy    =      -1.0841434969597765 [Eh]
	 SCS Total Energy          =    -677.2202140273118403 [Eh]
	-----------------------------------------------------------

  Dipole Moment: [D]
     X:     0.6132      Y:     1.9489      Z:    -0.7888     Total:     2.1901

*** Psi4 exiting successfully. Buy a developer a beer!
