                               Psi4 1.4a3.dev225

  ==> Input File <==

--------------------------------------------------------------------------
#psi4
#
memory 32 gb

molecule  {
0 1
 Cl       -1.7567080    -0.4154380    -0.1305090
  F        1.9766030    -0.6809970     0.5656630
  C        0.5776700     1.0154460    -0.3119420
  C       -0.5615090     0.6773460     0.6335920
  C        1.4798743    -0.2167356    -0.6436869
  H        0.1850540     1.4425400    -1.2410500
  H        1.1971120     1.7808660     0.1700550
  H       -0.1807600     0.1709150     1.5201680
  H       -1.1015300     1.5754630     0.9351100
  H        0.8822500    -0.9779220    -1.1123470
  H        2.2894640     0.1066980    -1.2757100
units angstrom
no_reorient  #important for SAPT in psi4, default
symmetry c1  #important for SAPT in psi4, default
}

set PROPERTIES_ORIGIN ["COM"]
properties('MP2/aug-cc-pvtz', properties = ['dipole'])
--------------------------------------------------------------------------

    Molecular point group: c1
  Charge       = 0
  Multiplicity = 1
  Basis Set: AUG-CC-PVTZ
    Blend: AUG-CC-PVTZ
  Basis Set: (AUG-CC-PVTZ AUX)
    Blend: AUG-CC-PVTZ-JKFIT

    Orbital Energies [Eh]
    ---------------------

    Doubly Occupied:

       1A   -104.825815     2A    -26.284453     3A    -11.314608
       4A    -11.296704     5A    -11.251444     6A    -10.550332
       7A     -8.017156     8A     -8.015420     9A     -8.015379
      10A     -1.594712    11A     -1.145343    12A     -1.042279
      13A     -0.932306    14A     -0.822380    15A     -0.716156
      16A     -0.709289    17A     -0.671718    18A     -0.620255
      19A     -0.615126    20A     -0.563421    21A     -0.532109
      22A     -0.510333    23A     -0.494795    24A     -0.436441
      25A     -0.434736

  @DF-RHF Final Energy:  -676.13656712584168

   => Energetics <=

    Nuclear Repulsion Energy =            228.2493851152628679
    One-Electron Energy =               -1385.9464793821498461
    Two-Electron Energy =                 481.5605271410452701
    Total Energy =                       -676.1365671258417933
  Basis Set: (AUG-CC-PVTZ AUX)
    Blend: AUG-CC-PVTZ-RI
    Molecular point group: c1

    Geometry (in Angstrom), charge = 0, multiplicity = 1:

       Center              X                  Y                   Z               Mass
    ------------   -----------------  -----------------  -----------------  -----------------
         CL          -1.729335501889    -0.356884814518    -0.144120239665    34.968852682000
         F            2.003975498111    -0.622443814518     0.552051760335    18.998403162730
         C            0.605042498111     1.073999185482    -0.325553239665    12.000000000000
         C           -0.534136501889     0.735899185482     0.619980760335    12.000000000000
         C            1.507246798111    -0.158182414518    -0.657298139665    12.000000000000
         H            0.212426498111     1.501093185482    -1.254661239665     1.007825032230
         H            1.224484498111     1.839419185482     0.156443760335     1.007825032230
         H           -0.153387501889     0.229468185482     1.506556760335     1.007825032230
         H           -1.074157501889     1.634016185482     0.921498760335     1.007825032230
         H            0.909622498111    -0.919368814518    -1.125958239665     1.007825032230
         H            2.316836498111     0.165251185482    -1.289321239665     1.007825032230

  Basis Set: AUG-CC-PVTZ
    Blend: AUG-CC-PVTZ
  Basis Set: (AUG-CC-PVTZ AUX)
    Blend: AUG-CC-PVTZ-JKFIT
	 Reference Energy          =    -676.1365671258416796 [Eh]
	 Singles Energy            =      -0.0000000000000000 [Eh]
	 Same-Spin Energy          =      -0.2566042706116461 [Eh]
	 Opposite-Spin Energy      =      -0.8313225088834209 [Eh]
	 Correlation Energy        =      -1.0879267794950669 [Eh]
	 Total Energy              =    -677.2244939053367716 [Eh]

	 ================> DF-SCS-MP2 Energies <==================
	-----------------------------------------------------------
	 SCS Same-Spin Scale       =       0.3333333333333333 [-]
	 SCS Opposite-Spin Scale   =       1.2000000000000000 [-]
	 SCS Same-Spin Energy      =      -0.0855347568705487 [Eh]
	 SCS Opposite-Spin Energy  =      -0.9975870106601050 [Eh]
	 SCS Correlation Energy    =      -1.0831217675306537 [Eh]
	 SCS Total Energy          =    -677.2196888933723358 [Eh]
	-----------------------------------------------------------

  Dipole Moment: [D]
     X:     0.7193      Y:     1.8813      Z:    -0.7593     Total:     2.1525

*** Psi4 exiting successfully. Buy a developer a beer!
