                               Psi4 1.4a3.dev225

  ==> Input File <==

--------------------------------------------------------------------------
#psi4
#
memory 32 gb

molecule  {
0 1
 Cl       -1.7567080    -0.4154380    -0.1305090
  F        1.9766030    -0.6809970     0.5656630
  C        0.5776700     1.0154460    -0.3119420
  C       -0.5615090     0.6773460     0.6335920
  C        1.4510090    -0.1773130    -0.6330730
  H        0.2208978     1.4035486    -1.1562273
  H        1.1971120     1.7808660     0.1700550
  H       -0.1807600     0.1709150     1.5201680
  H       -1.1015300     1.5754630     0.9351100
  H        0.8822500    -0.9779220    -1.1123470
  H        2.2894640     0.1066980    -1.2757100
units angstrom
no_reorient  #important for SAPT in psi4, default
symmetry c1  #important for SAPT in psi4, default
}

set PROPERTIES_ORIGIN ["COM"]
properties('MP2/aug-cc-pvtz', properties = ['dipole'])
--------------------------------------------------------------------------

    Molecular point group: c1
  Charge       = 0
  Multiplicity = 1
  Basis Set: AUG-CC-PVTZ
    Blend: AUG-CC-PVTZ
  Basis Set: (AUG-CC-PVTZ AUX)
    Blend: AUG-CC-PVTZ-JKFIT

    Orbital Energies [Eh]
    ---------------------

    Doubly Occupied:

       1A   -104.826502     2A    -26.279687     3A    -11.314707
       4A    -11.296885     5A    -11.239288     6A    -10.551008
       7A     -8.017834     8A     -8.016097     9A     -8.016055
      10A     -1.586144    11A     -1.149315    12A     -1.054964
      13A     -0.930256    14A     -0.831473    15A     -0.712028
      16A     -0.709409    17A     -0.666353    18A     -0.621500
      19A     -0.614120    20A     -0.571456    21A     -0.534942
      22A     -0.515853    23A     -0.500003    24A     -0.437263
      25A     -0.435445

  @DF-RHF Final Energy:  -676.13225163274672

   => Energetics <=

    Nuclear Repulsion Energy =            229.1860045626504530
    One-Electron Energy =               -1387.7793362726220039
    Two-Electron Energy =                 482.4610800772248922
    Total Energy =                       -676.1322516327467156
  Basis Set: (AUG-CC-PVTZ AUX)
    Blend: AUG-CC-PVTZ-RI
    Molecular point group: c1

    Geometry (in Angstrom), charge = 0, multiplicity = 1:

       Center              X                  Y                   Z               Mass
    ------------   -----------------  -----------------  -----------------  -----------------
         CL          -1.726104112140    -0.361402632339    -0.146337132864    34.968852682000
         F            2.007206887860    -0.626961632339     0.549834867136    18.998403162730
         C            0.608273887860     1.069481367661    -0.327770132864    12.000000000000
         C           -0.530905112140     0.731381367661     0.617763867136    12.000000000000
         C            1.481612887860    -0.123277632339    -0.648901132864    12.000000000000
         H            0.251501687860     1.457583967661    -1.172055432864     1.007825032230
         H            1.227715887860     1.834901367661     0.154226867136     1.007825032230
         H           -0.150156112140     0.224950367661     1.504339867136     1.007825032230
         H           -1.070926112140     1.629498367661     0.919281867136     1.007825032230
         H            0.912853887860    -0.923886632339    -1.128175132864     1.007825032230
         H            2.320067887860     0.160733367661    -1.291538132864     1.007825032230

  Basis Set: AUG-CC-PVTZ
    Blend: AUG-CC-PVTZ
  Basis Set: (AUG-CC-PVTZ AUX)
    Blend: AUG-CC-PVTZ-JKFIT
	 Reference Energy          =    -676.1322516327467156 [Eh]
	 Singles Energy            =      -0.0000000000000000 [Eh]
	 Same-Spin Energy          =      -0.2568941859125033 [Eh]
	 Opposite-Spin Energy      =      -0.8312523530171627 [Eh]
	 Correlation Energy        =      -1.0881465389296661 [Eh]
	 Total Energy              =    -677.2203981716763792 [Eh]

	 ================> DF-SCS-MP2 Energies <==================
	-----------------------------------------------------------
	 SCS Same-Spin Scale       =       0.3333333333333333 [-]
	 SCS Opposite-Spin Scale   =       1.2000000000000000 [-]
	 SCS Same-Spin Energy      =      -0.0856313953041678 [Eh]
	 SCS Opposite-Spin Energy  =      -0.9975028236205952 [Eh]
	 SCS Correlation Energy    =      -1.0831342189247630 [Eh]
	 SCS Total Energy          =    -677.2153858516714990 [Eh]
	-----------------------------------------------------------

  Dipole Moment: [D]
     X:     0.6265      Y:     1.9898      Z:    -0.8086     Total:     2.2373

*** Psi4 exiting successfully. Buy a developer a beer!
