                               Psi4 1.4a3.dev225

  ==> Input File <==

--------------------------------------------------------------------------
#psi4
#
memory 32 gb

molecule  {
0 1
 Cl       -1.7567080    -0.4154380    -0.1305090
  F        1.9766030    -0.6809970     0.5656630
  C        0.5776700     1.0154460    -0.3119420
  C       -0.5615090     0.6773460     0.6335920
  C        1.4510090    -0.1773130    -0.6330730
  H        0.2029759     1.4230443    -1.1986387
  H        1.1971120     1.7808660     0.1700550
  H       -0.1807600     0.1709150     1.5201680
  H       -1.1015300     1.5754630     0.9351100
  H        0.8822500    -0.9779220    -1.1123470
  H        2.2894640     0.1066980    -1.2757100
units angstrom
no_reorient  #important for SAPT in psi4, default
symmetry c1  #important for SAPT in psi4, default
}

set PROPERTIES_ORIGIN ["COM"]
properties('MP2/aug-cc-pvtz', properties = ['dipole'])
--------------------------------------------------------------------------

    Molecular point group: c1
  Charge       = 0
  Multiplicity = 1
  Basis Set: AUG-CC-PVTZ
    Blend: AUG-CC-PVTZ
  Basis Set: (AUG-CC-PVTZ AUX)
    Blend: AUG-CC-PVTZ-JKFIT

    Orbital Energies [Eh]
    ---------------------

    Doubly Occupied:

       1A   -104.826515     2A    -26.280046     3A    -11.315015
       4A    -11.297264     5A    -11.245402     6A    -10.551021
       7A     -8.017846     8A     -8.016108     9A     -8.016066
      10A     -1.586496    11A     -1.148572    12A     -1.052496
      13A     -0.930341    14A     -0.826675    15A     -0.711275
      16A     -0.708408    17A     -0.666297    18A     -0.620897
      19A     -0.614420    20A     -0.567073    21A     -0.532605
      22A     -0.515867    23A     -0.500197    24A     -0.437353
      25A     -0.435507

  @DF-RHF Final Energy:  -676.13721516169448

   => Energetics <=

    Nuclear Repulsion Energy =            228.9271332893948738
    One-Electron Energy =               -1387.2891703881962258
    Two-Electron Energy =                 482.2248219371069808
    Total Energy =                       -676.1372151616944848
  Basis Set: (AUG-CC-PVTZ AUX)
    Blend: AUG-CC-PVTZ-RI
    Molecular point group: c1

    Geometry (in Angstrom), charge = 0, multiplicity = 1:

       Center              X                  Y                   Z               Mass
    ------------   -----------------  -----------------  -----------------  -----------------
         CL          -1.725915992692    -0.361607271374    -0.145891956339    34.968852682000
         F            2.007395007308    -0.627166271374     0.550280043661    18.998403162730
         C            0.608462007308     1.069276728626    -0.327324956339    12.000000000000
         C           -0.530716992692     0.731176728626     0.618209043661    12.000000000000
         C            1.481801007308    -0.123482271374    -0.648455956339    12.000000000000
         H            0.233767907308     1.476875028626    -1.214021656339     1.007825032230
         H            1.227904007308     1.834696728626     0.154672043661     1.007825032230
         H           -0.149967992692     0.224745728626     1.504785043661     1.007825032230
         H           -1.070737992692     1.629293728626     0.919727043661     1.007825032230
         H            0.913042007308    -0.924091271374    -1.127729956339     1.007825032230
         H            2.320256007308     0.160528728626    -1.291092956339     1.007825032230

  Basis Set: AUG-CC-PVTZ
    Blend: AUG-CC-PVTZ
  Basis Set: (AUG-CC-PVTZ AUX)
    Blend: AUG-CC-PVTZ-JKFIT
	 Reference Energy          =    -676.1372151616944848 [Eh]
	 Singles Energy            =      -0.0000000000000000 [Eh]
	 Same-Spin Energy          =      -0.2569040766701710 [Eh]
	 Opposite-Spin Energy      =      -0.8314604249394081 [Eh]
	 Correlation Energy        =      -1.0883645016095791 [Eh]
	 Total Energy              =    -677.2255796633040745 [Eh]

	 ================> DF-SCS-MP2 Energies <==================
	-----------------------------------------------------------
	 SCS Same-Spin Scale       =       0.3333333333333333 [-]
	 SCS Opposite-Spin Scale   =       1.2000000000000000 [-]
	 SCS Same-Spin Energy      =      -0.0856346922233903 [Eh]
	 SCS Opposite-Spin Energy  =      -0.9977525099272897 [Eh]
	 SCS Correlation Energy    =      -1.0833872021506801 [Eh]
	 SCS Total Energy          =    -677.2206023638451597 [Eh]
	-----------------------------------------------------------

  Dipole Moment: [D]
     X:     0.6270      Y:     1.9819      Z:    -0.7964     Total:     2.2261

*** Psi4 exiting successfully. Buy a developer a beer!
