                               Psi4 1.4a3.dev225

  ==> Input File <==

--------------------------------------------------------------------------
#psi4
#
memory 32 gb

molecule  {
0 1
 Cl       -1.7567080    -0.4154380    -0.1305090
  F        1.9766030    -0.6809970     0.5656630
  C        0.5776700     1.0154460    -0.3119420
  C       -0.5615090     0.6773460     0.6335920
  C        1.4510090    -0.1773130    -0.6330730
  H        0.1850540     1.4425400    -1.2410500
  H        1.1971120     1.7808660     0.1700550
  H       -0.1807600     0.1709150     1.5201680
  H       -1.1015300     1.5754630     0.9351100
  H        0.8822500    -0.9779220    -1.1123470
  H        2.2894640     0.1066980    -1.2757100
units angstrom
no_reorient  #important for SAPT in psi4, default
symmetry c1  #important for SAPT in psi4, default
}

set PROPERTIES_ORIGIN ["COM"]
properties('MP2/aug-cc-pvtz', properties = ['dipole'])
--------------------------------------------------------------------------

    Molecular point group: c1
  Charge       = 0
  Multiplicity = 1
  Basis Set: AUG-CC-PVTZ
    Blend: AUG-CC-PVTZ
  Basis Set: (AUG-CC-PVTZ AUX)
    Blend: AUG-CC-PVTZ-JKFIT

    Orbital Energies [Eh]
    ---------------------

    Doubly Occupied:

       1A   -104.826548     2A    -26.280467     3A    -11.315379
       4A    -11.297702     5A    -11.251403     6A    -10.551053
       7A     -8.017879     8A     -8.016138     9A     -8.016096
      10A     -1.586903    11A     -1.148020    12A     -1.050480
      13A     -0.930501    14A     -0.822592    15A     -0.711280
      16A     -0.706872    17A     -0.666317    18A     -0.620444
      19A     -0.614768    20A     -0.563176    21A     -0.529542
      22A     -0.515708    23A     -0.500422    24A     -0.437470
      25A     -0.435584

  @DF-RHF Final Energy:  -676.13813111765933

   => Energetics <=

    Nuclear Repulsion Energy =            228.6833365389159951
    One-Electron Energy =               -1386.8174472223215616
    Two-Electron Energy =                 481.9959795657463246
    Total Energy =                       -676.1381311176593272
  Basis Set: (AUG-CC-PVTZ AUX)
    Blend: AUG-CC-PVTZ-RI
    Molecular point group: c1

    Geometry (in Angstrom), charge = 0, multiplicity = 1:

       Center              X                  Y                   Z               Mass
    ------------   -----------------  -----------------  -----------------  -----------------
         CL          -1.725727873244    -0.361811910409    -0.145446780864    34.968852682000
         F            2.007583126756    -0.627370910409     0.550725219136    18.998403162730
         C            0.608650126756     1.069072089591    -0.326879780864    12.000000000000
         C           -0.530528873244     0.730972089591     0.618654219136    12.000000000000
         C            1.481989126756    -0.123686910409    -0.648010780864    12.000000000000
         H            0.216034126756     1.496166089591    -1.255987780864     1.007825032230
         H            1.228092126756     1.834492089591     0.155117219136     1.007825032230
         H           -0.149779873244     0.224541089591     1.505230219136     1.007825032230
         H           -1.070549873244     1.629089089591     0.920172219136     1.007825032230
         H            0.913230126756    -0.924295910409    -1.127284780864     1.007825032230
         H            2.320444126756     0.160324089591    -1.290647780864     1.007825032230

  Basis Set: AUG-CC-PVTZ
    Blend: AUG-CC-PVTZ
  Basis Set: (AUG-CC-PVTZ AUX)
    Blend: AUG-CC-PVTZ-JKFIT
	 Reference Energy          =    -676.1381311176593272 [Eh]
	 Singles Energy            =      -0.0000000000000000 [Eh]
	 Same-Spin Energy          =      -0.2569264559923826 [Eh]
	 Opposite-Spin Energy      =      -0.8317511253644121 [Eh]
	 Correlation Energy        =      -1.0886775813567948 [Eh]
	 Total Energy              =    -677.2268086990161464 [Eh]

	 ================> DF-SCS-MP2 Energies <==================
	-----------------------------------------------------------
	 SCS Same-Spin Scale       =       0.3333333333333333 [-]
	 SCS Opposite-Spin Scale   =       1.2000000000000000 [-]
	 SCS Same-Spin Energy      =      -0.0856421519974609 [Eh]
	 SCS Opposite-Spin Energy  =      -0.9981013504372944 [Eh]
	 SCS Correlation Energy    =      -1.0837435024347553 [Eh]
	 SCS Total Energy          =    -677.2218746200941268 [Eh]
	-----------------------------------------------------------

  Dipole Moment: [D]
     X:     0.6281      Y:     1.9722      Z:    -0.7815     Total:     2.2124

*** Psi4 exiting successfully. Buy a developer a beer!
