                               Psi4 1.4a3.dev225

  ==> Input File <==

--------------------------------------------------------------------------
#psi4
#
memory 32 gb

molecule  {
0 1
 Cl       -1.7567080    -0.4154380    -0.1305090
  F        1.9112676    -0.8080544     0.5319343
  C        0.5776700     1.0154460    -0.3119420
  C       -0.5615090     0.6773460     0.6335920
  C        1.4510090    -0.1773130    -0.6330730
  H        0.1850540     1.4425400    -1.2410500
  H        1.1971120     1.7808660     0.1700550
  H       -0.1807600     0.1709150     1.5201680
  H       -1.1015300     1.5754630     0.9351100
  H        0.8822500    -0.9779220    -1.1123470
  H        2.2894640     0.1066980    -1.2757100
units angstrom
no_reorient  #important for SAPT in psi4, default
symmetry c1  #important for SAPT in psi4, default
}

set PROPERTIES_ORIGIN ["COM"]
properties('MP2/aug-cc-pvtz', properties = ['dipole'])
--------------------------------------------------------------------------

    Molecular point group: c1
  Charge       = 0
  Multiplicity = 1
  Basis Set: AUG-CC-PVTZ
    Blend: AUG-CC-PVTZ
  Basis Set: (AUG-CC-PVTZ AUX)
    Blend: AUG-CC-PVTZ-JKFIT

    Orbital Energies [Eh]
    ---------------------

    Doubly Occupied:

       1A   -104.826297     2A    -26.279936     3A    -11.314828
       4A    -11.298002     5A    -11.253160     6A    -10.550788
       7A     -8.017615     8A     -8.015869     9A     -8.015827
      10A     -1.586263    11A     -1.148091    12A     -1.050912
      13A     -0.930326    14A     -0.823587    15A     -0.710814
      16A     -0.704170    17A     -0.667222    18A     -0.622773
      19A     -0.614818    20A     -0.560415    21A     -0.531803
      22A     -0.517182    23A     -0.497251    24A     -0.437235
      25A     -0.435377

  @DF-RHF Final Energy:  -676.13626756993210

   => Energetics <=

    Nuclear Repulsion Energy =            228.7386316093236189
    One-Electron Energy =               -1386.9286804800910886
    Two-Electron Energy =                 482.0537813008352828
    Total Energy =                       -676.1362675699322153
  Basis Set: (AUG-CC-PVTZ AUX)
    Blend: AUG-CC-PVTZ-RI
    Molecular point group: c1

    Geometry (in Angstrom), charge = 0, multiplicity = 1:

       Center              X                  Y                   Z               Mass
    ------------   -----------------  -----------------  -----------------  -----------------
         CL          -1.712799908506    -0.336670967109    -0.138772857627    34.968852682000
         F            1.955175691494    -0.729287367109     0.523670442373    18.998403162730
         C            0.621578091494     1.094213032891    -0.320205857627    12.000000000000
         C           -0.517600908506     0.756113032891     0.625328142373    12.000000000000
         C            1.494917091494    -0.098545967109    -0.641336857627    12.000000000000
         H            0.228962091494     1.521307032891    -1.249313857627     1.007825032230
         H            1.241020091494     1.859633032891     0.161791142373     1.007825032230
         H           -0.136851908506     0.249682032891     1.511904142373     1.007825032230
         H           -1.057621908506     1.654230032891     0.926846142373     1.007825032230
         H            0.926158091494    -0.899154967109    -1.120610857627     1.007825032230
         H            2.333372091494     0.185465032891    -1.283973857627     1.007825032230

  Basis Set: AUG-CC-PVTZ
    Blend: AUG-CC-PVTZ
  Basis Set: (AUG-CC-PVTZ AUX)
    Blend: AUG-CC-PVTZ-JKFIT
	 Reference Energy          =    -676.1362675699321017 [Eh]
	 Singles Energy            =      -0.0000000000000000 [Eh]
	 Same-Spin Energy          =      -0.2569620839484972 [Eh]
	 Opposite-Spin Energy      =      -0.8318479877321936 [Eh]
	 Correlation Energy        =      -1.0888100716806908 [Eh]
	 Total Energy              =    -677.2250776416127565 [Eh]

	 ================> DF-SCS-MP2 Energies <==================
	-----------------------------------------------------------
	 SCS Same-Spin Scale       =       0.3333333333333333 [-]
	 SCS Opposite-Spin Scale   =       1.2000000000000000 [-]
	 SCS Same-Spin Energy      =      -0.0856540279828324 [Eh]
	 SCS Opposite-Spin Energy  =      -0.9982175852786322 [Eh]
	 SCS Correlation Energy    =      -1.0838716132614645 [Eh]
	 SCS Total Energy          =    -677.2201391831935098 [Eh]
	-----------------------------------------------------------

  Dipole Moment: [D]
     X:     0.6965      Y:     2.1396      Z:    -0.7373     Total:     2.3679

*** Psi4 exiting successfully. Buy a developer a beer!
