                               Psi4 1.4a3.dev225

  ==> Input File <==

--------------------------------------------------------------------------
#psi4
#
memory 32 gb

molecule  {
0 1
 Cl       -1.7567080    -0.4154380    -0.1305090
  F        1.9766030    -0.6809970     0.5656630
  C        0.5776700     1.0154460    -0.3119420
  C       -0.5615090     0.6773460     0.6335920
  C        1.5259618    -0.2491413    -0.4621263
  H        0.1850540     1.4425400    -1.2410500
  H        1.1971120     1.7808660     0.1700550
  H       -0.1807600     0.1709150     1.5201680
  H       -1.1015300     1.5754630     0.9351100
  H        0.8822500    -0.9779220    -1.1123470
  H        2.2894640     0.1066980    -1.2757100
units angstrom
no_reorient  #important for SAPT in psi4, default
symmetry c1  #important for SAPT in psi4, default
}

set PROPERTIES_ORIGIN ["COM"]
properties('MP2/aug-cc-pvtz', properties = ['dipole'])
--------------------------------------------------------------------------

    Molecular point group: c1
  Charge       = 0
  Multiplicity = 1
  Basis Set: AUG-CC-PVTZ
    Blend: AUG-CC-PVTZ
  Basis Set: (AUG-CC-PVTZ AUX)
    Blend: AUG-CC-PVTZ-JKFIT

    Orbital Energies [Eh]
    ---------------------

    Doubly Occupied:

       1A   -104.823075     2A    -26.330843     3A    -11.325355
       4A    -11.293838     5A    -11.245495     6A    -10.547602
       7A     -8.014425     8A     -8.012683     9A     -8.012652
      10A     -1.714003    11A     -1.142275    12A     -1.033931
      13A     -0.932626    14A     -0.838412    15A     -0.771868
      16A     -0.770275    17A     -0.723262    18A     -0.627645
      19A     -0.617057    20A     -0.557099    21A     -0.519986
      22A     -0.468831    23A     -0.463871    24A     -0.432047
      25A     -0.427150

  @DF-RHF Final Energy:  -676.09608915167223

   => Energetics <=

    Nuclear Repulsion Energy =            230.7522805237254602
    One-Electron Energy =               -1390.4041321013169181
    Two-Electron Energy =                 483.5557624259192835
    Total Energy =                       -676.0960891516722313
  Basis Set: (AUG-CC-PVTZ AUX)
    Blend: AUG-CC-PVTZ-RI
    Molecular point group: c1

    Geometry (in Angstrom), charge = 0, multiplicity = 1:

       Center              X                  Y                   Z               Mass
    ------------   -----------------  -----------------  -----------------  -----------------
         CL          -1.735095587014    -0.352834701352    -0.166811956755    34.968852682000
         F            1.998215412986    -0.618393701352     0.529360043245    18.998403162730
         C            0.599282412986     1.078049298648    -0.348244956755    12.000000000000
         C           -0.539896587014     0.739949298648     0.597289043245    12.000000000000
         C            1.547574212986    -0.186538001352    -0.498429256755    12.000000000000
         H            0.206666412986     1.505143298648    -1.277352956755     1.007825032230
         H            1.218724412986     1.843469298648     0.133752043245     1.007825032230
         H           -0.159147587014     0.233518298648     1.483865043245     1.007825032230
         H           -1.079917587014     1.638066298648     0.898807043245     1.007825032230
         H            0.903862412986    -0.915318701352    -1.148649956755     1.007825032230
         H            2.311076412986     0.169301298648    -1.312012956755     1.007825032230

  Basis Set: AUG-CC-PVTZ
    Blend: AUG-CC-PVTZ
  Basis Set: (AUG-CC-PVTZ AUX)
    Blend: AUG-CC-PVTZ-JKFIT
	 Reference Energy          =    -676.0960891516722313 [Eh]
	 Singles Energy            =      -0.0000000000000000 [Eh]
	 Same-Spin Energy          =      -0.2570537657813754 [Eh]
	 Opposite-Spin Energy      =      -0.8295412799094557 [Eh]
	 Correlation Energy        =      -1.0865950456908311 [Eh]
	 Total Energy              =    -677.1826841973630735 [Eh]

	 ================> DF-SCS-MP2 Energies <==================
	-----------------------------------------------------------
	 SCS Same-Spin Scale       =       0.3333333333333333 [-]
	 SCS Opposite-Spin Scale   =       1.2000000000000000 [-]
	 SCS Same-Spin Energy      =      -0.0856845885937918 [Eh]
	 SCS Opposite-Spin Energy  =      -0.9954495358913468 [Eh]
	 SCS Correlation Energy    =      -1.0811341244851385 [Eh]
	 SCS Total Energy          =    -677.1772232761574060 [Eh]
	-----------------------------------------------------------

  Dipole Moment: [D]
     X:     1.0650      Y:     1.5905      Z:    -0.0053     Total:     1.9141

*** Psi4 exiting successfully. Buy a developer a beer!
