                               Psi4 1.4a3.dev225

  ==> Input File <==

--------------------------------------------------------------------------
#psi4
#
memory 32 gb

molecule  {
0 1
 Cl       -1.7567080    -0.4154380    -0.1305090
  F        2.0445592    -0.7824909     0.4842329
  C        0.5776700     1.0154460    -0.3119420
  C       -0.5615090     0.6773460     0.6335920
  C        1.4510090    -0.1773130    -0.6330730
  H        0.1850540     1.4425400    -1.2410500
  H        1.1971120     1.7808660     0.1700550
  H       -0.1807600     0.1709150     1.5201680
  H       -1.1015300     1.5754630     0.9351100
  H        0.8822500    -0.9779220    -1.1123470
  H        2.2894640     0.1066980    -1.2757100
units angstrom
no_reorient  #important for SAPT in psi4, default
symmetry c1  #important for SAPT in psi4, default
}

set PROPERTIES_ORIGIN ["COM"]
properties('MP2/aug-cc-pvtz', properties = ['dipole'])
--------------------------------------------------------------------------

    Molecular point group: c1
  Charge       = 0
  Multiplicity = 1
  Basis Set: AUG-CC-PVTZ
    Blend: AUG-CC-PVTZ
  Basis Set: (AUG-CC-PVTZ AUX)
    Blend: AUG-CC-PVTZ-JKFIT

    Orbital Energies [Eh]
    ---------------------

    Doubly Occupied:

       1A   -104.827704     2A    -26.279309     3A    -11.314245
       4A    -11.299688     5A    -11.254830     6A    -10.552197
       7A     -8.019022     8A     -8.017273     9A     -8.017233
      10A     -1.585163    11A     -1.149665    12A     -1.051780
      13A     -0.930518    14A     -0.825046    15A     -0.710434
      16A     -0.702167    17A     -0.665505    18A     -0.624315
      19A     -0.617205    20A     -0.562902    21A     -0.531938
      22A     -0.515355    23A     -0.499117    24A     -0.438415
      25A     -0.436757

  @DF-RHF Final Energy:  -676.13664304977647

   => Energetics <=

    Nuclear Repulsion Energy =            227.4266076290991805
    One-Electron Energy =               -1384.2709318318325131
    Two-Electron Energy =                 480.7076811529569227
    Total Energy =                       -676.1366430497764668
  Basis Set: (AUG-CC-PVTZ AUX)
    Blend: AUG-CC-PVTZ-RI
    Molecular point group: c1

    Geometry (in Angstrom), charge = 0, multiplicity = 1:

       Center              X                  Y                   Z               Mass
    ------------   -----------------  -----------------  -----------------  -----------------
         CL          -1.739174417649    -0.341729236081    -0.129334145732    34.968852682000
         F            2.062092782351    -0.708782136081     0.485407754268    18.998403162730
         C            0.595203582351     1.089154763919    -0.310767145732    12.000000000000
         C           -0.543975417649     0.751054763919     0.634766854268    12.000000000000
         C            1.468542582351    -0.103604236081    -0.631898145732    12.000000000000
         H            0.202587582351     1.516248763919    -1.239875145732     1.007825032230
         H            1.214645582351     1.854574763919     0.171229854268     1.007825032230
         H           -0.163226417649     0.244623763919     1.521342854268     1.007825032230
         H           -1.083996417649     1.649171763919     0.936284854268     1.007825032230
         H            0.899783582351    -0.904213236081    -1.111172145732     1.007825032230
         H            2.306997582351     0.180406763919    -1.274535145732     1.007825032230

  Basis Set: AUG-CC-PVTZ
    Blend: AUG-CC-PVTZ
  Basis Set: (AUG-CC-PVTZ AUX)
    Blend: AUG-CC-PVTZ-JKFIT
	 Reference Energy          =    -676.1366430497764668 [Eh]
	 Singles Energy            =      -0.0000000000000000 [Eh]
	 Same-Spin Energy          =      -0.2568109757852312 [Eh]
	 Opposite-Spin Energy      =      -0.8316829050898251 [Eh]
	 Correlation Energy        =      -1.0884938808750562 [Eh]
	 Total Energy              =    -677.2251369306515016 [Eh]

	 ================> DF-SCS-MP2 Energies <==================
	-----------------------------------------------------------
	 SCS Same-Spin Scale       =       0.3333333333333333 [-]
	 SCS Opposite-Spin Scale   =       1.2000000000000000 [-]
	 SCS Same-Spin Energy      =      -0.0856036585950770 [Eh]
	 SCS Opposite-Spin Energy  =      -0.9980194861077901 [Eh]
	 SCS Correlation Energy    =      -1.0836231447028672 [Eh]
	 SCS Total Energy          =    -677.2202661944793363 [Eh]
	-----------------------------------------------------------

  Dipole Moment: [D]
     X:     0.4867      Y:     2.1343      Z:    -0.6784     Total:     2.2918

*** Psi4 exiting successfully. Buy a developer a beer!
