                               Psi4 1.4a3.dev225

  ==> Input File <==

--------------------------------------------------------------------------
#psi4
#
memory 32 gb

molecule  {
0 1
 Cl       -1.7567080    -0.4154380    -0.1305090
  F        1.9971354    -0.6373476     0.5740015
  C        0.5776700     1.0154460    -0.3119420
  C       -0.5615090     0.6773460     0.6335920
  C        1.4510090    -0.1773130    -0.6330730
  H        0.1850540     1.4425400    -1.2410500
  H        1.1971120     1.7808660     0.1700550
  H       -0.1807600     0.1709150     1.5201680
  H       -1.1015300     1.5754630     0.9351100
  H        0.8822500    -0.9779220    -1.1123470
  H        2.2894640     0.1066980    -1.2757100
units angstrom
no_reorient  #important for SAPT in psi4, default
symmetry c1  #important for SAPT in psi4, default
}

set PROPERTIES_ORIGIN ["COM"]
properties('MP2/aug-cc-pvtz', properties = ['dipole'])
--------------------------------------------------------------------------

    Molecular point group: c1
  Charge       = 0
  Multiplicity = 1
  Basis Set: AUG-CC-PVTZ
    Blend: AUG-CC-PVTZ
  Basis Set: (AUG-CC-PVTZ AUX)
    Blend: AUG-CC-PVTZ-JKFIT

    Orbital Energies [Eh]
    ---------------------

    Doubly Occupied:

       1A   -104.826620     2A    -26.280601     3A    -11.315536
       4A    -11.297609     5A    -11.250783     6A    -10.551130
       7A     -8.017955     8A     -8.016216     9A     -8.016174
      10A     -1.587203    11A     -1.147983    12A     -1.050303
      13A     -0.930562    14A     -0.822283    15A     -0.711548
      16A     -0.707953    17A     -0.665886    18A     -0.619619
      19A     -0.614751    20A     -0.564088    21A     -0.528550
      22A     -0.515105    23A     -0.501207    24A     -0.437529
      25A     -0.435634

  @DF-RHF Final Energy:  -676.13784786801500

   => Energetics <=

    Nuclear Repulsion Energy =            228.6836992623919116
    One-Electron Energy =               -1386.8174401162054892
    Two-Electron Energy =                 481.9958929857986050
    Total Energy =                       -676.1378478680150010
  Basis Set: (AUG-CC-PVTZ AUX)
    Blend: AUG-CC-PVTZ-RI
    Molecular point group: c1

    Geometry (in Angstrom), charge = 0, multiplicity = 1:

       Center              X                  Y                   Z               Mass
    ------------   -----------------  -----------------  -----------------  -----------------
         CL          -1.729790634675    -0.370448850016    -0.147096726131    34.968852682000
         F            2.024052765325    -0.592358450016     0.557413773869    18.998403162730
         C            0.604587365325     1.060435149984    -0.328529726131    12.000000000000
         C           -0.534591634675     0.722335149984     0.617004273869    12.000000000000
         C            1.477926365325    -0.132323850016    -0.649660726131    12.000000000000
         H            0.211971365325     1.487529149984    -1.257637726131     1.007825032230
         H            1.224029365325     1.825855149984     0.153467273869     1.007825032230
         H           -0.153842634675     0.215904149984     1.503580273869     1.007825032230
         H           -1.074612634675     1.620452149984     0.918522273869     1.007825032230
         H            0.909167365325    -0.932932850016    -1.128934726131     1.007825032230
         H            2.316381365325     0.151687149984    -1.292297726131     1.007825032230

  Basis Set: AUG-CC-PVTZ
    Blend: AUG-CC-PVTZ
  Basis Set: (AUG-CC-PVTZ AUX)
    Blend: AUG-CC-PVTZ-JKFIT
	 Reference Energy          =    -676.1378478680150010 [Eh]
	 Singles Energy            =      -0.0000000000000000 [Eh]
	 Same-Spin Energy          =      -0.2569440784774010 [Eh]
	 Opposite-Spin Energy      =      -0.8317784273599931 [Eh]
	 Correlation Energy        =      -1.0887225058373939 [Eh]
	 Total Energy              =    -677.2265703738523825 [Eh]

	 ================> DF-SCS-MP2 Energies <==================
	-----------------------------------------------------------
	 SCS Same-Spin Scale       =       0.3333333333333333 [-]
	 SCS Opposite-Spin Scale   =       1.2000000000000000 [-]
	 SCS Same-Spin Energy      =      -0.0856480261591337 [Eh]
	 SCS Opposite-Spin Energy  =      -0.9981341128319916 [Eh]
	 SCS Correlation Energy    =      -1.0837821389911253 [Eh]
	 SCS Total Energy          =    -677.2216300070060697 [Eh]
	-----------------------------------------------------------

  Dipole Moment: [D]
     X:     0.6076      Y:     1.9135      Z:    -0.7911     Total:     2.1580

*** Psi4 exiting successfully. Buy a developer a beer!
