                               Psi4 1.4a3.dev225

  ==> Input File <==

--------------------------------------------------------------------------
#psi4
#
memory 32 gb

molecule  {
0 1
 Cl       -1.7567080    -0.4154380    -0.1305090
  F        1.9766030    -0.6809970     0.5656630
  C        0.5776700     1.0154460    -0.3119420
  C       -0.5615090     0.6773460     0.6335920
  C        1.5087395    -0.2561582    -0.6543008
  H        0.1850540     1.4425400    -1.2410500
  H        1.1971120     1.7808660     0.1700550
  H       -0.1807600     0.1709150     1.5201680
  H       -1.1015300     1.5754630     0.9351100
  H        0.8822500    -0.9779220    -1.1123470
  H        2.2894640     0.1066980    -1.2757100
units angstrom
no_reorient  #important for SAPT in psi4, default
symmetry c1  #important for SAPT in psi4, default
}

set PROPERTIES_ORIGIN ["COM"]
properties('MP2/aug-cc-pvtz', properties = ['dipole'])
--------------------------------------------------------------------------

    Molecular point group: c1
  Charge       = 0
  Multiplicity = 1
  Basis Set: AUG-CC-PVTZ
    Blend: AUG-CC-PVTZ
  Basis Set: (AUG-CC-PVTZ AUX)
    Blend: AUG-CC-PVTZ-JKFIT

    Orbital Energies [Eh]
    ---------------------

    Doubly Occupied:

       1A   -104.825107     2A    -26.288324     3A    -11.314558
       4A    -11.295784     5A    -11.251175     6A    -10.549633
       7A     -8.016456     8A     -8.014724     9A     -8.014684
      10A     -1.602117    11A     -1.143126    12A     -1.035041
      13A     -0.934285    14A     -0.821762    15A     -0.721764
      16A     -0.711809    17A     -0.677431    18A     -0.620138
      19A     -0.614883    20A     -0.563785    21A     -0.536147
      22A     -0.509670    23A     -0.481231    24A     -0.435434
      25A     -0.433504

  @DF-RHF Final Energy:  -676.13071489921037

   => Energetics <=

    Nuclear Repulsion Energy =            227.8167276789505422
    One-Electron Energy =               -1385.0697392200461309
    Two-Electron Energy =                 481.1222966418851001
    Total Energy =                       -676.1307148992103748
  Basis Set: (AUG-CC-PVTZ AUX)
    Blend: AUG-CC-PVTZ-RI
    Molecular point group: c1

    Geometry (in Angstrom), charge = 0, multiplicity = 1:

       Center              X                  Y                   Z               Mass
    ------------   -----------------  -----------------  -----------------  -----------------
         CL          -1.732943118035    -0.351957718628    -0.142793698466    34.968852682000
         F            2.000367881965    -0.617516718628     0.553378301534    18.998403162730
         C            0.601434881965     1.078926281372    -0.324226698466    12.000000000000
         C           -0.537744118035     0.740826281372     0.621307301534    12.000000000000
         C            1.532504381965    -0.192677918628    -0.666585498466    12.000000000000
         H            0.208818881965     1.506020281372    -1.253334698466     1.007825032230
         H            1.220876881965     1.844346281372     0.157770301534     1.007825032230
         H           -0.156995118035     0.234395281372     1.507883301534     1.007825032230
         H           -1.077765118035     1.638943281372     0.922825301534     1.007825032230
         H            0.906014881965    -0.914441718628    -1.124631698466     1.007825032230
         H            2.313228881965     0.170178281372    -1.287994698466     1.007825032230

  Basis Set: AUG-CC-PVTZ
    Blend: AUG-CC-PVTZ
  Basis Set: (AUG-CC-PVTZ AUX)
    Blend: AUG-CC-PVTZ-JKFIT
	 Reference Energy          =    -676.1307148992103748 [Eh]
	 Singles Energy            =      -0.0000000000000000 [Eh]
	 Same-Spin Energy          =      -0.2564792372076042 [Eh]
	 Opposite-Spin Energy      =      -0.8312656983277777 [Eh]
	 Correlation Energy        =      -1.0877449355353819 [Eh]
	 Total Energy              =    -677.2184598347457722 [Eh]

	 ================> DF-SCS-MP2 Energies <==================
	-----------------------------------------------------------
	 SCS Same-Spin Scale       =       0.3333333333333333 [-]
	 SCS Opposite-Spin Scale   =       1.2000000000000000 [-]
	 SCS Same-Spin Energy      =      -0.0854930790692014 [Eh]
	 SCS Opposite-Spin Energy  =      -0.9975188379933333 [Eh]
	 SCS Correlation Energy    =      -1.0830119170625347 [Eh]
	 SCS Total Energy          =    -677.2137268162729242 [Eh]
	-----------------------------------------------------------

  Dipole Moment: [D]
     X:     0.8067      Y:     1.7933      Z:    -0.7362     Total:     2.0997

*** Psi4 exiting successfully. Buy a developer a beer!
