                               Psi4 1.4a3.dev225

  ==> Input File <==

--------------------------------------------------------------------------
#psi4
#
memory 32 gb

molecule  {
0 1
 Cl       -1.7567080    -0.4154380    -0.1305090
  F        2.0170025    -0.5931377     0.5808693
  C        0.5776700     1.0154460    -0.3119420
  C       -0.5615090     0.6773460     0.6335920
  C        1.4510090    -0.1773130    -0.6330730
  H        0.1850540     1.4425400    -1.2410500
  H        1.1971120     1.7808660     0.1700550
  H       -0.1807600     0.1709150     1.5201680
  H       -1.1015300     1.5754630     0.9351100
  H        0.8822500    -0.9779220    -1.1123470
  H        2.2894640     0.1066980    -1.2757100
units angstrom
no_reorient  #important for SAPT in psi4, default
symmetry c1  #important for SAPT in psi4, default
}

set PROPERTIES_ORIGIN ["COM"]
properties('MP2/aug-cc-pvtz', properties = ['dipole'])
--------------------------------------------------------------------------

    Molecular point group: c1
  Charge       = 0
  Multiplicity = 1
  Basis Set: AUG-CC-PVTZ
    Blend: AUG-CC-PVTZ
  Basis Set: (AUG-CC-PVTZ AUX)
    Blend: AUG-CC-PVTZ-JKFIT

    Orbital Energies [Eh]
    ---------------------

    Doubly Occupied:

       1A   -104.826686     2A    -26.280709     3A    -11.315683
       4A    -11.297521     5A    -11.250145     6A    -10.551200
       7A     -8.018025     8A     -8.016287     9A     -8.016246
      10A     -1.587541    11A     -1.147939    12A     -1.050109
      13A     -0.930624    14A     -0.821988    15A     -0.711879
      16A     -0.709092    17A     -0.665409    18A     -0.618780
      19A     -0.614724    20A     -0.564963    21A     -0.527462
      22A     -0.514434    23A     -0.501878    24A     -0.437576
      25A     -0.435677

  @DF-RHF Final Energy:  -676.13711482127223

   => Energetics <=

    Nuclear Repulsion Energy =            228.6935182620900378
    One-Electron Energy =               -1386.8361125780902512
    Two-Electron Energy =                 482.0054794947279788
    Total Energy =                       -676.1371148212722346
  Basis Set: (AUG-CC-PVTZ AUX)
    Blend: AUG-CC-PVTZ-RI
    Molecular point group: c1

    Geometry (in Angstrom), charge = 0, multiplicity = 1:

       Center              X                  Y                   Z               Mass
    ------------   -----------------  -----------------  -----------------  -----------------
         CL          -1.733721752694    -0.379196696180    -0.148455662882    34.968852682000
         F            2.039988747306    -0.556896396180     0.562922637118    18.998403162730
         C            0.600656247306     1.051687303820    -0.329888662882    12.000000000000
         C           -0.538522752694     0.713587303820     0.615645337118    12.000000000000
         C            1.473995247306    -0.141071696180    -0.651019662882    12.000000000000
         H            0.208040247306     1.478781303820    -1.258996662882     1.007825032230
         H            1.220098247306     1.817107303820     0.152108337118     1.007825032230
         H           -0.157773752694     0.207156303820     1.502221337118     1.007825032230
         H           -1.078543752694     1.611704303820     0.917163337118     1.007825032230
         H            0.905236247306    -0.941680696180    -1.130293662882     1.007825032230
         H            2.312450247306     0.142939303820    -1.293656662882     1.007825032230

  Basis Set: AUG-CC-PVTZ
    Blend: AUG-CC-PVTZ
  Basis Set: (AUG-CC-PVTZ AUX)
    Blend: AUG-CC-PVTZ-JKFIT
	 Reference Energy          =    -676.1371148212722346 [Eh]
	 Singles Energy            =      -0.0000000000000000 [Eh]
	 Same-Spin Energy          =      -0.2569760044943196 [Eh]
	 Opposite-Spin Energy      =      -0.8318343035359135 [Eh]
	 Correlation Energy        =      -1.0888103080302329 [Eh]
	 Total Energy              =    -677.2259251293024818 [Eh]

	 ================> DF-SCS-MP2 Energies <==================
	-----------------------------------------------------------
	 SCS Same-Spin Scale       =       0.3333333333333333 [-]
	 SCS Opposite-Spin Scale   =       1.2000000000000000 [-]
	 SCS Same-Spin Energy      =      -0.0856586681647732 [Eh]
	 SCS Opposite-Spin Energy  =      -0.9982011642430961 [Eh]
	 SCS Correlation Energy    =      -1.0838598324078692 [Eh]
	 SCS Total Energy          =    -677.2209746536800594 [Eh]
	-----------------------------------------------------------

  Dipole Moment: [D]
     X:     0.5885      Y:     1.8538      Z:    -0.7982     Total:     2.1024

*** Psi4 exiting successfully. Buy a developer a beer!
