                               Psi4 1.4a3.dev225

  ==> Input File <==

--------------------------------------------------------------------------
#psi4
#
memory 32 gb

molecule  {
0 1
 Cl       -1.7567080    -0.4154380    -0.1305090
  F        1.9766030    -0.6809970     0.5656630
  C        0.5776700     1.0154460    -0.3119420
  C       -0.5615090     0.6773460     0.6335920
  C        1.4510090    -0.1773130    -0.6330730
  H        0.1133664     1.5205229    -1.4106954
  H        1.1971120     1.7808660     0.1700550
  H       -0.1807600     0.1709150     1.5201680
  H       -1.1015300     1.5754630     0.9351100
  H        0.8822500    -0.9779220    -1.1123470
  H        2.2894640     0.1066980    -1.2757100
units angstrom
no_reorient  #important for SAPT in psi4, default
symmetry c1  #important for SAPT in psi4, default
}

set PROPERTIES_ORIGIN ["COM"]
properties('MP2/aug-cc-pvtz', properties = ['dipole'])
--------------------------------------------------------------------------

    Molecular point group: c1
  Charge       = 0
  Multiplicity = 1
  Basis Set: AUG-CC-PVTZ
    Blend: AUG-CC-PVTZ
  Basis Set: (AUG-CC-PVTZ AUX)
    Blend: AUG-CC-PVTZ-JKFIT

    Orbital Energies [Eh]
    ---------------------

    Doubly Occupied:

       1A   -104.826928     2A    -26.282742     3A    -11.317381
       4A    -11.300019     5A    -11.273474     6A    -10.551421
       7A     -8.018246     8A     -8.016493     9A     -8.016453
      10A     -1.589065    11A     -1.147226    12A     -1.046025
      13A     -0.931827    14A     -0.812410    15A     -0.712905
      16A     -0.701761    17A     -0.667215    18A     -0.620061
      19A     -0.616576    20A     -0.554991    21A     -0.521113
      22A     -0.505389    23A     -0.497928    24A     -0.438210
      25A     -0.436034

  @DF-RHF Final Energy:  -676.11795985031199

   => Energetics <=

    Nuclear Repulsion Energy =            227.8275338935101786
    One-Electron Energy =               -1385.0871997057340650
    Two-Electron Energy =                 481.1417059619118390
    Total Energy =                       -676.1179598503119905
  Basis Set: (AUG-CC-PVTZ AUX)
    Blend: AUG-CC-PVTZ-RI
    Molecular point group: c1

    Geometry (in Angstrom), charge = 0, multiplicity = 1:

       Center              X                  Y                   Z               Mass
    ------------   -----------------  -----------------  -----------------  -----------------
         CL          -1.724975395452    -0.362630467599    -0.143666076865    34.968852682000
         F            2.008335604548    -0.628189467599     0.552505923135    18.998403162730
         C            0.609402604548     1.068253532401    -0.325099076865    12.000000000000
         C           -0.529776395452     0.730153532401     0.620434923135    12.000000000000
         C            1.482741604548    -0.124505467599    -0.646230076865    12.000000000000
         H            0.145099004548     1.573330432401    -1.423852476865     1.007825032230
         H            1.228844604548     1.833673532401     0.156897923135     1.007825032230
         H           -0.149027395452     0.223722532401     1.507010923135     1.007825032230
         H           -1.069797395452     1.628270532401     0.921952923135     1.007825032230
         H            0.913982604548    -0.925114467599    -1.125504076865     1.007825032230
         H            2.321196604548     0.159505532401    -1.288867076865     1.007825032230

  Basis Set: AUG-CC-PVTZ
    Blend: AUG-CC-PVTZ
  Basis Set: (AUG-CC-PVTZ AUX)
    Blend: AUG-CC-PVTZ-JKFIT
	 Reference Energy          =    -676.1179598503119905 [Eh]
	 Singles Energy            =      -0.0000000000000000 [Eh]
	 Same-Spin Energy          =      -0.2570623301285105 [Eh]
	 Opposite-Spin Energy      =      -0.8334562255619540 [Eh]
	 Correlation Energy        =      -1.0905185556904646 [Eh]
	 Total Energy              =    -677.2084784060024276 [Eh]

	 ================> DF-SCS-MP2 Energies <==================
	-----------------------------------------------------------
	 SCS Same-Spin Scale       =       0.3333333333333333 [-]
	 SCS Opposite-Spin Scale   =       1.2000000000000000 [-]
	 SCS Same-Spin Energy      =      -0.0856874433761702 [Eh]
	 SCS Opposite-Spin Energy  =      -1.0001474706743447 [Eh]
	 SCS Correlation Energy    =      -1.0858349140505148 [Eh]
	 SCS Total Energy          =    -677.2037947643625557 [Eh]
	-----------------------------------------------------------

  Dipole Moment: [D]
     X:     0.6374      Y:     1.9149      Z:    -0.6953     Total:     2.1346

*** Psi4 exiting successfully. Buy a developer a beer!
