                               Psi4 1.4a3.dev225

  ==> Input File <==

--------------------------------------------------------------------------
#psi4
#
memory 32 gb

molecule  {
0 1
 Cl       -1.7567080    -0.4154380    -0.1305090
  F        1.9766030    -0.6809970     0.5656630
  C        0.5776700     1.0154460    -0.3119420
  C       -0.5615090     0.6773460     0.6335920
  C        1.4394629    -0.1615440    -0.6288274
  H        0.1850540     1.4425400    -1.2410500
  H        1.1971120     1.7808660     0.1700550
  H       -0.1807600     0.1709150     1.5201680
  H       -1.1015300     1.5754630     0.9351100
  H        0.8822500    -0.9779220    -1.1123470
  H        2.2894640     0.1066980    -1.2757100
units angstrom
no_reorient  #important for SAPT in psi4, default
symmetry c1  #important for SAPT in psi4, default
}

set PROPERTIES_ORIGIN ["COM"]
properties('MP2/aug-cc-pvtz', properties = ['dipole'])
--------------------------------------------------------------------------

    Molecular point group: c1
  Charge       = 0
  Multiplicity = 1
  Basis Set: AUG-CC-PVTZ
    Blend: AUG-CC-PVTZ
  Basis Set: (AUG-CC-PVTZ AUX)
    Blend: AUG-CC-PVTZ-JKFIT

    Orbital Energies [Eh]
    ---------------------

    Doubly Occupied:

       1A   -104.826848     2A    -26.278831     3A    -11.315869
       4A    -11.298124     5A    -11.251295     6A    -10.551349
       7A     -8.018175     8A     -8.016432     9A     -8.016390
      10A     -1.583675    11A     -1.149260    12A     -1.054032
      13A     -0.929852    14A     -0.822529    15A     -0.709802
      16A     -0.705778    17A     -0.664304    18A     -0.620494
      19A     -0.614468    20A     -0.563019    21A     -0.529748
      22A     -0.519153    23A     -0.499573    24A     -0.437872
      25A     -0.435866

  @DF-RHF Final Energy:  -676.13737973310697

   => Energetics <=

    Nuclear Repulsion Energy =            228.8586465106631067
    One-Electron Energy =               -1387.1665711922178161
    Two-Electron Energy =                 482.1705449484476276
    Total Energy =                       -676.1373797331069682
  Basis Set: (AUG-CC-PVTZ AUX)
    Blend: AUG-CC-PVTZ-RI
    Molecular point group: c1

    Geometry (in Angstrom), charge = 0, multiplicity = 1:

       Center              X                  Y                   Z               Mass
    ------------   -----------------  -----------------  -----------------  -----------------
         CL          -1.724284824286    -0.363782743766    -0.145977402343    34.968852682000
         F            2.009026175714    -0.629341743766     0.550194597657    18.998403162730
         C            0.610093175714     1.067101256234    -0.327410402343    12.000000000000
         C           -0.529085824286     0.729001256234     0.618123597657    12.000000000000
         C            1.471886075714    -0.109888743766    -0.644295802343    12.000000000000
         H            0.217477175714     1.494195256234    -1.256518402343     1.007825032230
         H            1.229535175714     1.832521256234     0.154586597657     1.007825032230
         H           -0.148336824286     0.222570256234     1.504699597657     1.007825032230
         H           -1.069106824286     1.627118256234     0.919641597657     1.007825032230
         H            0.914673175714    -0.926266743766    -1.127815402343     1.007825032230
         H            2.321887175714     0.158353256234    -1.291178402343     1.007825032230

  Basis Set: AUG-CC-PVTZ
    Blend: AUG-CC-PVTZ
  Basis Set: (AUG-CC-PVTZ AUX)
    Blend: AUG-CC-PVTZ-JKFIT
	 Reference Energy          =    -676.1373797331069682 [Eh]
	 Singles Energy            =      -0.0000000000000000 [Eh]
	 Same-Spin Energy          =      -0.2571138913334656 [Eh]
	 Opposite-Spin Energy      =      -0.8320300259092983 [Eh]
	 Correlation Energy        =      -1.0891439172427639 [Eh]
	 Total Energy              =    -677.2265236503496908 [Eh]

	 ================> DF-SCS-MP2 Energies <==================
	-----------------------------------------------------------
	 SCS Same-Spin Scale       =       0.3333333333333333 [-]
	 SCS Opposite-Spin Scale   =       1.2000000000000000 [-]
	 SCS Same-Spin Energy      =      -0.0857046304444885 [Eh]
	 SCS Opposite-Spin Energy  =      -0.9984360310911580 [Eh]
	 SCS Correlation Energy    =      -1.0841406615356466 [Eh]
	 SCS Total Energy          =    -677.2215203946426527 [Eh]
	-----------------------------------------------------------

  Dipole Moment: [D]
     X:     0.5905      Y:     2.0094      Z:    -0.7901     Total:     2.2384

*** Psi4 exiting successfully. Buy a developer a beer!
