                               Psi4 1.4a3.dev225

  ==> Input File <==

--------------------------------------------------------------------------
#psi4
#
memory 32 gb

molecule  {
0 1
 Cl       -1.7567080    -0.4154380    -0.1305090
  F        1.9766030    -0.6809970     0.5656630
  C        0.5776700     1.0154460    -0.3119420
  C       -0.5615090     0.6773460     0.6335920
  C        1.3355480    -0.0196226    -0.5906174
  H        0.1850540     1.4425400    -1.2410500
  H        1.1971120     1.7808660     0.1700550
  H       -0.1807600     0.1709150     1.5201680
  H       -1.1015300     1.5754630     0.9351100
  H        0.8822500    -0.9779220    -1.1123470
  H        2.2894640     0.1066980    -1.2757100
units angstrom
no_reorient  #important for SAPT in psi4, default
symmetry c1  #important for SAPT in psi4, default
}

set PROPERTIES_ORIGIN ["COM"]
properties('MP2/aug-cc-pvtz', properties = ['dipole'])
--------------------------------------------------------------------------

    Molecular point group: c1
  Charge       = 0
  Multiplicity = 1
  Basis Set: AUG-CC-PVTZ
    Blend: AUG-CC-PVTZ
  Basis Set: (AUG-CC-PVTZ AUX)
    Blend: AUG-CC-PVTZ-JKFIT

    Orbital Energies [Eh]
    ---------------------

    Doubly Occupied:

       1A   -104.829915     2A    -26.262182     3A    -11.323335
       4A    -11.302860     5A    -11.248223     6A    -10.554349
       7A     -8.021178     8A     -8.019417     9A     -8.019369
      10A     -1.552105    11A     -1.168998    12A     -1.090655
      13A     -0.927172    14A     -0.816343    15A     -0.710018
      16A     -0.697488    17A     -0.653014    18A     -0.617167
      19A     -0.609244    20A     -0.562058    21A     -0.555830
      22A     -0.524004    23A     -0.470409    24A     -0.441147
      25A     -0.436812

  @DF-RHF Final Energy:  -676.08451290492678

   => Energetics <=

    Nuclear Repulsion Energy =            230.5604797836569730
    One-Electron Energy =               -1390.4634031711868829
    Two-Electron Energy =                 483.8184104826030989
    Total Energy =                       -676.0845129049267825
  Basis Set: (AUG-CC-PVTZ AUX)
    Blend: AUG-CC-PVTZ-RI
    Molecular point group: c1

    Geometry (in Angstrom), charge = 0, multiplicity = 1:

       Center              X                  Y                   Z               Mass
    ------------   -----------------  -----------------  -----------------  -----------------
         CL          -1.711297383662    -0.381520293971    -0.150752945660    34.968852682000
         F            2.022013616338    -0.647079293971     0.545419054340    18.998403162730
         C            0.623080616338     1.049363706029    -0.332185945660    12.000000000000
         C           -0.516098383662     0.711263706029     0.613348054340    12.000000000000
         C            1.380958616338     0.014295106029    -0.610861345660    12.000000000000
         H            0.230464616338     1.476457706029    -1.261293945660     1.007825032230
         H            1.242522616338     1.814783706029     0.149811054340     1.007825032230
         H           -0.135349383662     0.204832706029     1.499924054340     1.007825032230
         H           -1.056119383662     1.609380706029     0.914866054340     1.007825032230
         H            0.927660616338    -0.944004293971    -1.132590945660     1.007825032230
         H            2.334874616338     0.140615706029    -1.295953945660     1.007825032230

  Basis Set: AUG-CC-PVTZ
    Blend: AUG-CC-PVTZ
  Basis Set: (AUG-CC-PVTZ AUX)
    Blend: AUG-CC-PVTZ-JKFIT
	 Reference Energy          =    -676.0845129049267825 [Eh]
	 Singles Energy            =      -0.0000000000000000 [Eh]
	 Same-Spin Energy          =      -0.2605066167503600 [Eh]
	 Opposite-Spin Energy      =      -0.8374902370223516 [Eh]
	 Correlation Energy        =      -1.0979968537727116 [Eh]
	 Total Energy              =    -677.1825097586994389 [Eh]

	 ================> DF-SCS-MP2 Energies <==================
	-----------------------------------------------------------
	 SCS Same-Spin Scale       =       0.3333333333333333 [-]
	 SCS Opposite-Spin Scale   =       1.2000000000000000 [-]
	 SCS Same-Spin Energy      =      -0.0868355389167867 [Eh]
	 SCS Opposite-Spin Energy  =      -1.0049882844268219 [Eh]
	 SCS Correlation Energy    =      -1.0918238233436086 [Eh]
	 SCS Total Energy          =    -677.1763367282703712 [Eh]
	-----------------------------------------------------------

  Dipole Moment: [D]
     X:     0.2112      Y:     2.3789      Z:    -0.8661     Total:     2.5404

*** Psi4 exiting successfully. Buy a developer a beer!
