                               Psi4 1.4a3.dev225

  ==> Input File <==

--------------------------------------------------------------------------
#psi4
#
memory 32 gb

molecule  {
0 1
 Cl       -1.7567080    -0.4154380    -0.1305090
  F        1.9766030    -0.6809970     0.5656630
  C        0.5776700     1.0154460    -0.3119420
  C       -0.5615090     0.6773460     0.6335920
  C        1.5664700    -0.3350034    -0.6755286
  H        0.1850540     1.4425400    -1.2410500
  H        1.1971120     1.7808660     0.1700550
  H       -0.1807600     0.1709150     1.5201680
  H       -1.1015300     1.5754630     0.9351100
  H        0.8822500    -0.9779220    -1.1123470
  H        2.2894640     0.1066980    -1.2757100
units angstrom
no_reorient  #important for SAPT in psi4, default
symmetry c1  #important for SAPT in psi4, default
}

set PROPERTIES_ORIGIN ["COM"]
properties('MP2/aug-cc-pvtz', properties = ['dipole'])
--------------------------------------------------------------------------

    Molecular point group: c1
  Charge       = 0
  Multiplicity = 1
  Basis Set: AUG-CC-PVTZ
    Blend: AUG-CC-PVTZ
  Basis Set: (AUG-CC-PVTZ AUX)
    Blend: AUG-CC-PVTZ-JKFIT

    Orbital Energies [Eh]
    ---------------------

    Doubly Occupied:

       1A   -104.823783     2A    -26.295756     3A    -11.316771
       4A    -11.294187     5A    -11.249943     6A    -10.548322
       7A     -8.015143     8A     -8.013419     9A     -8.013381
      10A     -1.615474    11A     -1.139643    12A     -1.023193
      13A     -0.938403    14A     -0.819857    15A     -0.733123
      16A     -0.717236    17A     -0.688841    18A     -0.620114
      19A     -0.613238    20A     -0.566338    21A     -0.542729
      22A     -0.508514    23A     -0.453327    24A     -0.433776
      25A     -0.427212

  @DF-RHF Final Energy:  -676.10914681466397

   => Energetics <=

    Nuclear Repulsion Energy =            226.9327262190850547
    One-Electron Energy =               -1383.2603022408263769
    Two-Electron Energy =                 480.2184292070773495
    Total Energy =                       -676.1091468146639727
  Basis Set: (AUG-CC-PVTZ AUX)
    Blend: AUG-CC-PVTZ-RI
    Molecular point group: c1

    Geometry (in Angstrom), charge = 0, multiplicity = 1:

       Center              X                  Y                   Z               Mass
    ------------   -----------------  -----------------  -----------------  -----------------
         CL          -1.740158362826    -0.342103526847    -0.140140616068    34.968852682000
         F            1.993152637174    -0.607662526847     0.556031383932    18.998403162730
         C            0.594219637174     1.088780473153    -0.321573616068    12.000000000000
         C           -0.544959362826     0.750680473153     0.623960383932    12.000000000000
         C            1.583019637174    -0.261668926847    -0.685160216068    12.000000000000
         H            0.201603637174     1.515874473153    -1.250681616068     1.007825032230
         H            1.213661637174     1.854200473153     0.160423383932     1.007825032230
         H           -0.164210362826     0.244249473153     1.510536383932     1.007825032230
         H           -1.084980362826     1.648797473153     0.925478383932     1.007825032230
         H            0.898799637174    -0.904587526847    -1.121978616068     1.007825032230
         H            2.306013637174     0.180032473153    -1.285341616068     1.007825032230

  Basis Set: AUG-CC-PVTZ
    Blend: AUG-CC-PVTZ
  Basis Set: (AUG-CC-PVTZ AUX)
    Blend: AUG-CC-PVTZ-JKFIT
	 Reference Energy          =    -676.1091468146639727 [Eh]
	 Singles Energy            =      -0.0000000000000000 [Eh]
	 Same-Spin Energy          =      -0.2567641387955598 [Eh]
	 Opposite-Spin Energy      =      -0.8322188675120857 [Eh]
	 Correlation Energy        =      -1.0889830063076456 [Eh]
	 Total Energy              =    -677.1981298209716442 [Eh]

	 ================> DF-SCS-MP2 Energies <==================
	-----------------------------------------------------------
	 SCS Same-Spin Scale       =       0.3333333333333333 [-]
	 SCS Opposite-Spin Scale   =       1.2000000000000000 [-]
	 SCS Same-Spin Energy      =      -0.0855880462651866 [Eh]
	 SCS Opposite-Spin Energy  =      -0.9986626410145029 [Eh]
	 SCS Correlation Energy    =      -1.0842506872796895 [Eh]
	 SCS Total Energy          =    -677.1933975019436502 [Eh]
	-----------------------------------------------------------

  Dipole Moment: [D]
     X:     0.9655      Y:     1.6309      Z:    -0.6845     Total:     2.0151

*** Psi4 exiting successfully. Buy a developer a beer!
