                               Psi4 1.4a3.dev225

  ==> Input File <==

--------------------------------------------------------------------------
#psi4
#
memory 32 gb

molecule  {
0 1
 Cl       -1.7567080    -0.4154380    -0.1305090
  F        1.9766030    -0.6809970     0.5656630
  C        0.5776700     1.0154460    -0.3119420
  C       -0.5615090     0.6773460     0.6335920
  C        1.4510090    -0.1773130    -0.6330730
  H        0.1671321     1.4620357    -1.2834613
  H        1.1971120     1.7808660     0.1700550
  H       -0.1807600     0.1709150     1.5201680
  H       -1.1015300     1.5754630     0.9351100
  H        0.8822500    -0.9779220    -1.1123470
  H        2.2894640     0.1066980    -1.2757100
units angstrom
no_reorient  #important for SAPT in psi4, default
symmetry c1  #important for SAPT in psi4, default
}

set PROPERTIES_ORIGIN ["COM"]
properties('MP2/aug-cc-pvtz', properties = ['dipole'])
--------------------------------------------------------------------------

    Molecular point group: c1
  Charge       = 0
  Multiplicity = 1
  Basis Set: AUG-CC-PVTZ
    Blend: AUG-CC-PVTZ
  Basis Set: (AUG-CC-PVTZ AUX)
    Blend: AUG-CC-PVTZ-JKFIT

    Orbital Energies [Eh]
    ---------------------

    Doubly Occupied:

       1A   -104.826604     2A    -26.280948     3A    -11.315799
       4A    -11.298197     5A    -11.257234     6A    -10.551108
       7A     -8.017933     8A     -8.016189     9A     -8.016148
      10A     -1.587364    11A     -1.147630    12A     -1.048869
      13A     -0.930734    14A     -0.819186    15A     -0.711543
      16A     -0.705328    17A     -0.666416    18A     -0.620137
      19A     -0.615163    20A     -0.560012    21A     -0.525984
      22A     -0.515026    23A     -0.500646    24A     -0.437614
      25A     -0.435675

  @DF-RHF Final Energy:  -676.13598632607830

   => Energetics <=

    Nuclear Repulsion Energy =            228.4528408960359798
    One-Electron Energy =               -1386.3626789250197362
    Two-Electron Energy =                 481.7738517029055174
    Total Energy =                       -676.1359863260782959
  Basis Set: (AUG-CC-PVTZ AUX)
    Blend: AUG-CC-PVTZ-RI
    Molecular point group: c1

    Geometry (in Angstrom), charge = 0, multiplicity = 1:

       Center              X                  Y                   Z               Mass
    ------------   -----------------  -----------------  -----------------  -----------------
         CL          -1.725539753796    -0.362016549444    -0.145001605389    34.968852682000
         F            2.007771246204    -0.627575549444     0.551170394611    18.998403162730
         C            0.608838246204     1.068867450556    -0.326434605389    12.000000000000
         C           -0.530340753796     0.730767450556     0.619099394611    12.000000000000
         C            1.482177246204    -0.123891549444    -0.647565605389    12.000000000000
         H            0.198300346204     1.515457150556    -1.297953905389     1.007825032230
         H            1.228280246204     1.834287450556     0.155562394611     1.007825032230
         H           -0.149591753796     0.224336450556     1.505675394611     1.007825032230
         H           -1.070361753796     1.628884450556     0.920617394611     1.007825032230
         H            0.913418246204    -0.924500549444    -1.126839605389     1.007825032230
         H            2.320632246204     0.160119450556    -1.290202605389     1.007825032230

  Basis Set: AUG-CC-PVTZ
    Blend: AUG-CC-PVTZ
  Basis Set: (AUG-CC-PVTZ AUX)
    Blend: AUG-CC-PVTZ-JKFIT
	 Reference Energy          =    -676.1359863260782959 [Eh]
	 Singles Energy            =      -0.0000000000000000 [Eh]
	 Same-Spin Energy          =      -0.2569568816861306 [Eh]
	 Opposite-Spin Energy      =      -0.8321081392234511 [Eh]
	 Correlation Energy        =      -1.0890650209095818 [Eh]
	 Total Energy              =    -677.2250513469879252 [Eh]

	 ================> DF-SCS-MP2 Energies <==================
	-----------------------------------------------------------
	 SCS Same-Spin Scale       =       0.3333333333333333 [-]
	 SCS Opposite-Spin Scale   =       1.2000000000000000 [-]
	 SCS Same-Spin Energy      =      -0.0856522938953769 [Eh]
	 SCS Opposite-Spin Energy  =      -0.9985297670681412 [Eh]
	 SCS Correlation Energy    =      -1.0841820609635180 [Eh]
	 SCS Total Energy          =    -677.2201683870417810 [Eh]
	-----------------------------------------------------------

  Dipole Moment: [D]
     X:     0.6297      Y:     1.9605      Z:    -0.7637     Total:     2.1963

*** Psi4 exiting successfully. Buy a developer a beer!
