                               Psi4 1.4a3.dev225

  ==> Input File <==

--------------------------------------------------------------------------
#psi4
#
memory 32 gb

molecule  {
0 1
 Cl       -1.7567080    -0.4154380    -0.1305090
  F        1.9766030    -0.6809970     0.5656630
  C        0.5776700     1.0154460    -0.3119420
  C       -0.5615090     0.6773460     0.6335920
  C        1.4221437    -0.1378904    -0.6224591
  H        0.1850540     1.4425400    -1.2410500
  H        1.1971120     1.7808660     0.1700550
  H       -0.1807600     0.1709150     1.5201680
  H       -1.1015300     1.5754630     0.9351100
  H        0.8822500    -0.9779220    -1.1123470
  H        2.2894640     0.1066980    -1.2757100
units angstrom
no_reorient  #important for SAPT in psi4, default
symmetry c1  #important for SAPT in psi4, default
}

set PROPERTIES_ORIGIN ["COM"]
properties('MP2/aug-cc-pvtz', properties = ['dipole'])
--------------------------------------------------------------------------

    Molecular point group: c1
  Charge       = 0
  Multiplicity = 1
  Basis Set: AUG-CC-PVTZ
    Blend: AUG-CC-PVTZ
  Basis Set: (AUG-CC-PVTZ AUX)
    Blend: AUG-CC-PVTZ-JKFIT

    Orbital Energies [Eh]
    ---------------------

    Doubly Occupied:

       1A   -104.827309     2A    -26.276322     3A    -11.316777
       4A    -11.298787     5A    -11.251035     6A    -10.551802
       7A     -8.018628     8A     -8.016882     9A     -8.016840
      10A     -1.578727    11A     -1.151351    12A     -1.059637
      13A     -0.928979    14A     -0.822242    15A     -0.708350
      16A     -0.703850    17A     -0.661502    18A     -0.620479
      19A     -0.613882    20A     -0.562641    21A     -0.532985
      22A     -0.522376    23A     -0.496642    24A     -0.438460
      25A     -0.436246

  @DF-RHF Final Energy:  -676.13461257502547

   => Energetics <=

    Nuclear Repulsion Energy =            229.1247385161987893
    One-Electron Energy =               -1387.6932379778816085
    Two-Electron Energy =                 482.4338868866574330
    Total Energy =                       -676.1346125750254714
  Basis Set: (AUG-CC-PVTZ AUX)
    Blend: AUG-CC-PVTZ-RI
    Molecular point group: c1

    Geometry (in Angstrom), charge = 0, multiplicity = 1:

       Center              X                  Y                   Z               Mass
    ------------   -----------------  -----------------  -----------------  -----------------
         CL          -1.722120244599    -0.366739006299    -0.146773322063    34.968852682000
         F            2.011190755401    -0.632298006299     0.549398677937    18.998403162730
         C            0.612257755401     1.064144993701    -0.328206322063    12.000000000000
         C           -0.526921244599     0.726044993701     0.617327677937    12.000000000000
         C            1.456731455401    -0.089191406299    -0.638723422063    12.000000000000
         H            0.219641755401     1.491238993701    -1.257314322063     1.007825032230
         H            1.231699755401     1.829564993701     0.153790677937     1.007825032230
         H           -0.146172244599     0.219613993701     1.503903677937     1.007825032230
         H           -1.066942244599     1.624161993701     0.918845677937     1.007825032230
         H            0.916837755401    -0.929223006299    -1.128611322063     1.007825032230
         H            2.324051755401     0.155396993701    -1.291974322063     1.007825032230

  Basis Set: AUG-CC-PVTZ
    Blend: AUG-CC-PVTZ
  Basis Set: (AUG-CC-PVTZ AUX)
    Blend: AUG-CC-PVTZ-JKFIT
	 Reference Energy          =    -676.1346125750254714 [Eh]
	 Singles Energy            =      -0.0000000000000000 [Eh]
	 Same-Spin Energy          =      -0.2574609589348603 [Eh]
	 Opposite-Spin Energy      =      -0.8325667103327089 [Eh]
	 Correlation Energy        =      -1.0900276692675692 [Eh]
	 Total Energy              =    -677.2246402442930275 [Eh]

	 ================> DF-SCS-MP2 Energies <==================
	-----------------------------------------------------------
	 SCS Same-Spin Scale       =       0.3333333333333333 [-]
	 SCS Opposite-Spin Scale   =       1.2000000000000000 [-]
	 SCS Same-Spin Energy      =      -0.0858203196449534 [Eh]
	 SCS Opposite-Spin Energy  =      -0.9990800523992507 [Eh]
	 SCS Correlation Energy    =      -1.0849003720442041 [Eh]
	 SCS Total Energy          =    -677.2195129470696884 [Eh]
	-----------------------------------------------------------

  Dipole Moment: [D]
     X:     0.5330      Y:     2.0661      Z:    -0.8030     Total:     2.2798

*** Psi4 exiting successfully. Buy a developer a beer!
