                               Psi4 1.4a3.dev225

  ==> Input File <==

--------------------------------------------------------------------------
#psi4
#
memory 32 gb

molecule  {
0 1
 Cl       -1.7567080    -0.4154380    -0.1305090
  F        1.9869508    -0.6592457     0.5700155
  C        0.5776700     1.0154460    -0.3119420
  C       -0.5615090     0.6773460     0.6335920
  C        1.4510090    -0.1773130    -0.6330730
  H        0.1850540     1.4425400    -1.2410500
  H        1.1971120     1.7808660     0.1700550
  H       -0.1807600     0.1709150     1.5201680
  H       -1.1015300     1.5754630     0.9351100
  H        0.8822500    -0.9779220    -1.1123470
  H        2.2894640     0.1066980    -1.2757100
units angstrom
no_reorient  #important for SAPT in psi4, default
symmetry c1  #important for SAPT in psi4, default
}

set PROPERTIES_ORIGIN ["COM"]
properties('MP2/aug-cc-pvtz', properties = ['dipole'])
--------------------------------------------------------------------------

    Molecular point group: c1
  Charge       = 0
  Multiplicity = 1
  Basis Set: AUG-CC-PVTZ
    Blend: AUG-CC-PVTZ
  Basis Set: (AUG-CC-PVTZ AUX)
    Blend: AUG-CC-PVTZ-JKFIT

    Orbital Energies [Eh]
    ---------------------

    Doubly Occupied:

       1A   -104.826585     2A    -26.280537     3A    -11.315459
       4A    -11.297655     5A    -11.251095     6A    -10.551092
       7A     -8.017917     8A     -8.016177     9A     -8.016136
      10A     -1.587048    11A     -1.148003    12A     -1.050394
      13A     -0.930532    14A     -0.822436    15A     -0.711407
      16A     -0.707403    17A     -0.666108    18A     -0.620034
      19A     -0.614760    20A     -0.563636    21A     -0.529059
      22A     -0.515415    23A     -0.500830    24A     -0.437500
      25A     -0.435610

  @DF-RHF Final Energy:  -676.13804572139065

   => Energetics <=

    Nuclear Repulsion Energy =            228.6823387446675042
    One-Electron Energy =               -1386.8151150595419949
    Two-Electron Energy =                 481.9947305934838369
    Total Energy =                       -676.1380457213906539
  Basis Set: (AUG-CC-PVTZ AUX)
    Blend: AUG-CC-PVTZ-RI
    Molecular point group: c1

    Geometry (in Angstrom), charge = 0, multiplicity = 1:

       Center              X                  Y                   Z               Mass
    ------------   -----------------  -----------------  -----------------  -----------------
         CL          -1.727775400213    -0.366115856499    -0.146308013313    34.968852682000
         F            2.015883399787    -0.609923556499     0.554216486687    18.998403162730
         C            0.606602599787     1.064768143501    -0.327741013313    12.000000000000
         C           -0.532576400213     0.726668143501     0.617792986687    12.000000000000
         C            1.479941599787    -0.127990856499    -0.648872013313    12.000000000000
         H            0.213986599787     1.491862143501    -1.256849013313     1.007825032230
         H            1.226044599787     1.830188143501     0.154255986687     1.007825032230
         H           -0.151827400213     0.220237143501     1.504368986687     1.007825032230
         H           -1.072597400213     1.624785143501     0.919310986687     1.007825032230
         H            0.911182599787    -0.928599856499    -1.128146013313     1.007825032230
         H            2.318396599787     0.156020143501    -1.291509013313     1.007825032230

  Basis Set: AUG-CC-PVTZ
    Blend: AUG-CC-PVTZ
  Basis Set: (AUG-CC-PVTZ AUX)
    Blend: AUG-CC-PVTZ-JKFIT
	 Reference Energy          =    -676.1380457213906539 [Eh]
	 Singles Energy            =      -0.0000000000000000 [Eh]
	 Same-Spin Energy          =      -0.2569334689685314 [Eh]
	 Opposite-Spin Energy      =      -0.8317611724627648 [Eh]
	 Correlation Energy        =      -1.0886946414312964 [Eh]
	 Total Energy              =    -677.2267403628219427 [Eh]

	 ================> DF-SCS-MP2 Energies <==================
	-----------------------------------------------------------
	 SCS Same-Spin Scale       =       0.3333333333333333 [-]
	 SCS Opposite-Spin Scale   =       1.2000000000000000 [-]
	 SCS Same-Spin Energy      =      -0.0856444896561771 [Eh]
	 SCS Opposite-Spin Energy  =      -0.9981134069553177 [Eh]
	 SCS Correlation Energy    =      -1.0837578966114949 [Eh]
	 SCS Total Energy          =    -677.2218036180021272 [Eh]
	-----------------------------------------------------------

  Dipole Moment: [D]
     X:     0.6177      Y:     1.9430      Z:    -0.7866     Total:     2.1853

*** Psi4 exiting successfully. Buy a developer a beer!
