                               Psi4 1.4a3.dev225

  ==> Input File <==

--------------------------------------------------------------------------
#psi4
#
memory 32 gb

molecule  {
0 1
 Cl       -1.7567080    -0.4154380    -0.1305090
  F        1.9554302    -0.7240328     0.5558641
  C        0.5776700     1.0154460    -0.3119420
  C       -0.5615090     0.6773460     0.6335920
  C        1.4510090    -0.1773130    -0.6330730
  H        0.1850540     1.4425400    -1.2410500
  H        1.1971120     1.7808660     0.1700550
  H       -0.1807600     0.1709150     1.5201680
  H       -1.1015300     1.5754630     0.9351100
  H        0.8822500    -0.9779220    -1.1123470
  H        2.2894640     0.1066980    -1.2757100
units angstrom
no_reorient  #important for SAPT in psi4, default
symmetry c1  #important for SAPT in psi4, default
}

set PROPERTIES_ORIGIN ["COM"]
properties('MP2/aug-cc-pvtz', properties = ['dipole'])
--------------------------------------------------------------------------

    Molecular point group: c1
  Charge       = 0
  Multiplicity = 1
  Basis Set: AUG-CC-PVTZ
    Blend: AUG-CC-PVTZ
  Basis Set: (AUG-CC-PVTZ AUX)
    Blend: AUG-CC-PVTZ-JKFIT

    Orbital Energies [Eh]
    ---------------------

    Doubly Occupied:

       1A   -104.826470     2A    -26.280309     3A    -11.315210
       4A    -11.297798     5A    -11.252007     6A    -10.550971
       7A     -8.017796     8A     -8.016054     9A     -8.016013
      10A     -1.586644    11A     -1.148051    12A     -1.050641
      13A     -0.930442    14A     -0.822913    15A     -0.711067
      16A     -0.705871    17A     -0.666690    18A     -0.621247
      19A     -0.614783    20A     -0.562246    21A     -0.530423
      22A     -0.516252    23A     -0.499511    24A     -0.437401
      25A     -0.435524

  @DF-RHF Final Energy:  -676.13796391338565

   => Energetics <=

    Nuclear Repulsion Energy =            228.6923899115410848
    One-Electron Energy =               -1386.8360417430637881
    Two-Electron Energy =                 482.0056879181370277
    Total Energy =                       -676.1379639133856472
  Basis Set: (AUG-CC-PVTZ AUX)
    Blend: AUG-CC-PVTZ-RI
    Molecular point group: c1

    Geometry (in Angstrom), charge = 0, multiplicity = 1:

       Center              X                  Y                   Z               Mass
    ------------   -----------------  -----------------  -----------------  -----------------
         CL          -1.721538395384    -0.353296384295    -0.143507865151    34.968852682000
         F            1.990599804616    -0.661891184295     0.542865234849    18.998403162730
         C            0.612839604616     1.077587615705    -0.324940865151    12.000000000000
         C           -0.526339395384     0.739487615705     0.620593134849    12.000000000000
         C            1.486178604616    -0.115171384295    -0.646071865151    12.000000000000
         H            0.220223604616     1.504681615705    -1.254048865151     1.007825032230
         H            1.232281604616     1.843007615705     0.157056134849     1.007825032230
         H           -0.145590395384     0.233056615705     1.507169134849     1.007825032230
         H           -1.066360395384     1.637604615705     0.922111134849     1.007825032230
         H            0.917419604616    -0.915780384295    -1.125345865151     1.007825032230
         H            2.324633604616     0.168839615705    -1.288708865151     1.007825032230

  Basis Set: AUG-CC-PVTZ
    Blend: AUG-CC-PVTZ
  Basis Set: (AUG-CC-PVTZ AUX)
    Blend: AUG-CC-PVTZ-JKFIT
	 Reference Energy          =    -676.1379639133856472 [Eh]
	 Singles Energy            =      -0.0000000000000000 [Eh]
	 Same-Spin Energy          =      -0.2569233463992785 [Eh]
	 Opposite-Spin Energy      =      -0.8317530110334840 [Eh]
	 Correlation Energy        =      -1.0886763574327625 [Eh]
	 Total Energy              =    -677.2266402708183932 [Eh]

	 ================> DF-SCS-MP2 Energies <==================
	-----------------------------------------------------------
	 SCS Same-Spin Scale       =       0.3333333333333333 [-]
	 SCS Opposite-Spin Scale   =       1.2000000000000000 [-]
	 SCS Same-Spin Energy      =      -0.0856411154664262 [Eh]
	 SCS Opposite-Spin Energy  =      -0.9981036132401807 [Eh]
	 SCS Correlation Energy    =      -1.0837447287066069 [Eh]
	 SCS Total Energy          =    -677.2217086420922669 [Eh]
	-----------------------------------------------------------

  Dipole Moment: [D]
     X:     0.6497      Y:     2.0295      Z:    -0.7693     Total:     2.2656

*** Psi4 exiting successfully. Buy a developer a beer!
