                               Psi4 1.4a3.dev225

  ==> Input File <==

--------------------------------------------------------------------------
#psi4
#
memory 32 gb

molecule  {
0 1
 Cl       -1.7567080    -0.4154380    -0.1305090
  F        1.9660951    -0.7025949     0.5609454
  C        0.5776700     1.0154460    -0.3119420
  C       -0.5615090     0.6773460     0.6335920
  C        1.4510090    -0.1773130    -0.6330730
  H        0.1850540     1.4425400    -1.2410500
  H        1.1971120     1.7808660     0.1700550
  H       -0.1807600     0.1709150     1.5201680
  H       -1.1015300     1.5754630     0.9351100
  H        0.8822500    -0.9779220    -1.1123470
  H        2.2894640     0.1066980    -1.2757100
units angstrom
no_reorient  #important for SAPT in psi4, default
symmetry c1  #important for SAPT in psi4, default
}

set PROPERTIES_ORIGIN ["COM"]
properties('MP2/aug-cc-pvtz', properties = ['dipole'])
--------------------------------------------------------------------------

    Molecular point group: c1
  Charge       = 0
  Multiplicity = 1
  Basis Set: AUG-CC-PVTZ
    Blend: AUG-CC-PVTZ
  Basis Set: (AUG-CC-PVTZ AUX)
    Blend: AUG-CC-PVTZ-JKFIT

    Orbital Energies [Eh]
    ---------------------

    Doubly Occupied:

       1A   -104.826510     2A    -26.280391     3A    -11.315296
       4A    -11.297749     5A    -11.251707     6A    -10.551013
       7A     -8.017838     8A     -8.016097     9A     -8.016055
      10A     -1.586768    11A     -1.148036    12A     -1.050563
      13A     -0.930471    14A     -0.822751    15A     -0.711166
      16A     -0.706360    17A     -0.666511    18A     -0.620849
      19A     -0.614775    20A     -0.562712    21A     -0.529997
      22A     -0.515987    23A     -0.499983    24A     -0.437437
      25A     -0.435555

  @DF-RHF Final Energy:  -676.13810392690357

   => Energetics <=

    Nuclear Repulsion Energy =            228.6866873937103435
    One-Electron Energy =               -1386.8244244699571937
    Two-Electron Energy =                 481.9996331493431967
    Total Energy =                       -676.1381039269035682
  Basis Set: (AUG-CC-PVTZ AUX)
    Blend: AUG-CC-PVTZ-RI
    Molecular point group: c1

    Geometry (in Angstrom), charge = 0, multiplicity = 1:

       Center              X                  Y                   Z               Mass
    ------------   -----------------  -----------------  -----------------  -----------------
         CL          -1.723648667168    -0.357538317692    -0.144513305804    34.968852682000
         F            1.999154432832    -0.644695217692     0.546941094196    18.998403162730
         C            0.610729332832     1.073345682308    -0.325946305804    12.000000000000
         C           -0.528449667168     0.735245682308     0.619587694196    12.000000000000
         C            1.484068332832    -0.119413317692    -0.647077305804    12.000000000000
         H            0.218113332832     1.500439682308    -1.255054305804     1.007825032230
         H            1.230171332832     1.838765682308     0.156050694196     1.007825032230
         H           -0.147700667168     0.228814682308     1.506163694196     1.007825032230
         H           -1.068470667168     1.633362682308     0.921105694196     1.007825032230
         H            0.915309332832    -0.920022317692    -1.126351305804     1.007825032230
         H            2.322523332832     0.164597682308    -1.289714305804     1.007825032230

  Basis Set: AUG-CC-PVTZ
    Blend: AUG-CC-PVTZ
  Basis Set: (AUG-CC-PVTZ AUX)
    Blend: AUG-CC-PVTZ-JKFIT
	 Reference Energy          =    -676.1381039269035682 [Eh]
	 Singles Energy            =      -0.0000000000000000 [Eh]
	 Same-Spin Energy          =      -0.2569230695264920 [Eh]
	 Opposite-Spin Energy      =      -0.8317483720835408 [Eh]
	 Correlation Energy        =      -1.0886714416100327 [Eh]
	 Total Energy              =    -677.2267753685135858 [Eh]

	 ================> DF-SCS-MP2 Energies <==================
	-----------------------------------------------------------
	 SCS Same-Spin Scale       =       0.3333333333333333 [-]
	 SCS Opposite-Spin Scale   =       1.2000000000000000 [-]
	 SCS Same-Spin Energy      =      -0.0856410231754973 [Eh]
	 SCS Opposite-Spin Energy  =      -0.9980980465002489 [Eh]
	 SCS Correlation Energy    =      -1.0837390696757463 [Eh]
	 SCS Total Energy          =    -677.2218429965793121 [Eh]
	-----------------------------------------------------------

  Dipole Moment: [D]
     X:     0.6387      Y:     2.0010      Z:    -0.7757     Total:     2.2391

*** Psi4 exiting successfully. Buy a developer a beer!
