                               Psi4 1.4a3.dev225

  ==> Input File <==

--------------------------------------------------------------------------
#psi4
#
memory 32 gb

molecule  {
0 1
 Cl       -1.7567080    -0.4154380    -0.1305090
  F        1.9280510    -0.6101973     0.6127025
  C        0.5776700     1.0154460    -0.3119420
  C       -0.5615090     0.6773460     0.6335920
  C        1.4510090    -0.1773130    -0.6330730
  H        0.1850540     1.4425400    -1.2410500
  H        1.1971120     1.7808660     0.1700550
  H       -0.1807600     0.1709150     1.5201680
  H       -1.1015300     1.5754630     0.9351100
  H        0.8822500    -0.9779220    -1.1123470
  H        2.2894640     0.1066980    -1.2757100
units angstrom
no_reorient  #important for SAPT in psi4, default
symmetry c1  #important for SAPT in psi4, default
}

set PROPERTIES_ORIGIN ["COM"]
properties('MP2/aug-cc-pvtz', properties = ['dipole'])
--------------------------------------------------------------------------

    Molecular point group: c1
  Charge       = 0
  Multiplicity = 1
  Basis Set: AUG-CC-PVTZ
    Blend: AUG-CC-PVTZ
  Basis Set: (AUG-CC-PVTZ AUX)
    Blend: AUG-CC-PVTZ-JKFIT

    Orbital Energies [Eh]
    ---------------------

    Doubly Occupied:

       1A   -104.825684     2A    -26.281093     3A    -11.316127
       4A    -11.296204     5A    -11.249095     6A    -10.550199
       7A     -8.017024     8A     -8.015290     9A     -8.015247
      10A     -1.588436    11A     -1.146805    12A     -1.049518
      13A     -0.930581    14A     -0.820885    15A     -0.713214
      16A     -0.709375    17A     -0.667113    18A     -0.617981
      19A     -0.612210    20A     -0.563561    21A     -0.528529
      22A     -0.514150    23A     -0.500878    24A     -0.436751
      25A     -0.434658

  @DF-RHF Final Energy:  -676.13651180930833

   => Energetics <=

    Nuclear Repulsion Energy =            229.6231115576473485
    One-Electron Energy =               -1388.7180330370285901
    Two-Electron Energy =                 482.9584096700730811
    Total Energy =                       -676.1365118093083311
  Basis Set: (AUG-CC-PVTZ AUX)
    Blend: AUG-CC-PVTZ-RI
    Molecular point group: c1

    Geometry (in Angstrom), charge = 0, multiplicity = 1:

       Center              X                  Y                   Z               Mass
    ------------   -----------------  -----------------  -----------------  -----------------
         CL          -1.716120852487    -0.375821100298    -0.154754522109    34.968852682000
         F            1.968638147513    -0.570580400298     0.588456977891    18.998403162730
         C            0.618257147513     1.055062899702    -0.336187522109    12.000000000000
         C           -0.520921852487     0.716962899702     0.609346477891    12.000000000000
         C            1.491596147513    -0.137696100298    -0.657318522109    12.000000000000
         H            0.225641147513     1.482156899702    -1.265295522109     1.007825032230
         H            1.237699147513     1.820482899702     0.145809477891     1.007825032230
         H           -0.140172852487     0.210531899702     1.495922477891     1.007825032230
         H           -1.060942852487     1.615079899702     0.910864477891     1.007825032230
         H            0.922837147513    -0.938305100298    -1.136592522109     1.007825032230
         H            2.330051147513     0.146314899702    -1.299955522109     1.007825032230

  Basis Set: AUG-CC-PVTZ
    Blend: AUG-CC-PVTZ
  Basis Set: (AUG-CC-PVTZ AUX)
    Blend: AUG-CC-PVTZ-JKFIT
	 Reference Energy          =    -676.1365118093083311 [Eh]
	 Singles Energy            =      -0.0000000000000000 [Eh]
	 Same-Spin Energy          =      -0.2570968932077942 [Eh]
	 Opposite-Spin Energy      =      -0.8319632837878432 [Eh]
	 Correlation Energy        =      -1.0890601769956374 [Eh]
	 Total Energy              =    -677.2255719863039758 [Eh]

	 ================> DF-SCS-MP2 Energies <==================
	-----------------------------------------------------------
	 SCS Same-Spin Scale       =       0.3333333333333333 [-]
	 SCS Opposite-Spin Scale   =       1.2000000000000000 [-]
	 SCS Same-Spin Energy      =      -0.0856989644025981 [Eh]
	 SCS Opposite-Spin Energy  =      -0.9983559405454119 [Eh]
	 SCS Correlation Energy    =      -1.0840549049480099 [Eh]
	 SCS Total Energy          =    -677.2205667142563925 [Eh]
	-----------------------------------------------------------

  Dipole Moment: [D]
     X:     0.7328      Y:     1.8567      Z:    -0.8351     Total:     2.1637

*** Psi4 exiting successfully. Buy a developer a beer!
