                               Psi4 1.4a3.dev225

  ==> Input File <==

--------------------------------------------------------------------------
#psi4
#
memory 32 gb

molecule  {
0 1
 Cl       -1.7567080    -0.4154380    -0.1305090
  F        1.9028883    -0.5739846     0.6339595
  C        0.5776700     1.0154460    -0.3119420
  C       -0.5615090     0.6773460     0.6335920
  C        1.4510090    -0.1773130    -0.6330730
  H        0.1850540     1.4425400    -1.2410500
  H        1.1971120     1.7808660     0.1700550
  H       -0.1807600     0.1709150     1.5201680
  H       -1.1015300     1.5754630     0.9351100
  H        0.8822500    -0.9779220    -1.1123470
  H        2.2894640     0.1066980    -1.2757100
units angstrom
no_reorient  #important for SAPT in psi4, default
symmetry c1  #important for SAPT in psi4, default
}

set PROPERTIES_ORIGIN ["COM"]
properties('MP2/aug-cc-pvtz', properties = ['dipole'])
--------------------------------------------------------------------------

    Molecular point group: c1
  Charge       = 0
  Multiplicity = 1
  Basis Set: AUG-CC-PVTZ
    Blend: AUG-CC-PVTZ
  Basis Set: (AUG-CC-PVTZ AUX)
    Blend: AUG-CC-PVTZ-JKFIT

    Orbital Energies [Eh]
    ---------------------

    Doubly Occupied:

       1A   -104.825225     2A    -26.281360     3A    -11.316493
       4A    -11.295402     5A    -11.247947     6A    -10.549746
       7A     -8.016570     8A     -8.014838     9A     -8.014795
      10A     -1.589343    11A     -1.146163    12A     -1.049009
      13A     -0.930664    14A     -0.820021    15A     -0.714791
      16A     -0.710228    17A     -0.667635    18A     -0.616836
      19A     -0.610583    20A     -0.563802    21A     -0.528327
      22A     -0.512737    23A     -0.500942    24A     -0.436365
      25A     -0.434154

  @DF-RHF Final Energy:  -676.13483547809687

   => Energetics <=

    Nuclear Repulsion Energy =            230.1254412634861808
    One-Electron Energy =               -1389.7326027202836940
    Two-Electron Energy =                 483.4723259787006100
    Total Energy =                       -676.1348354780968748
  Basis Set: (AUG-CC-PVTZ AUX)
    Blend: AUG-CC-PVTZ-RI
    Molecular point group: c1

    Geometry (in Angstrom), charge = 0, multiplicity = 1:

       Center              X                  Y                   Z               Mass
    ------------   -----------------  -----------------  -----------------  -----------------
         CL          -1.711141890113    -0.382986534483    -0.158960660686    34.968852682000
         F            1.948454409887    -0.541533134483     0.605507839314    18.998403162730
         C            0.623236109887     1.047897465517    -0.340393660686    12.000000000000
         C           -0.515942890113     0.709797465517     0.605140339314    12.000000000000
         C            1.496575109887    -0.144861534483    -0.661524660686    12.000000000000
         H            0.230620109887     1.474991465517    -1.269501660686     1.007825032230
         H            1.242678109887     1.813317465517     0.141603339314     1.007825032230
         H           -0.135193890113     0.203366465517     1.491716339314     1.007825032230
         H           -1.055963890113     1.607914465517     0.906658339314     1.007825032230
         H            0.927816109887    -0.945470534483    -1.140798660686     1.007825032230
         H            2.335030109887     0.139149465517    -1.304161660686     1.007825032230

  Basis Set: AUG-CC-PVTZ
    Blend: AUG-CC-PVTZ
  Basis Set: (AUG-CC-PVTZ AUX)
    Blend: AUG-CC-PVTZ-JKFIT
	 Reference Energy          =    -676.1348354780968748 [Eh]
	 Singles Energy            =      -0.0000000000000000 [Eh]
	 Same-Spin Energy          =      -0.2572134228800352 [Eh]
	 Opposite-Spin Energy      =      -0.8321255242892078 [Eh]
	 Correlation Energy        =      -1.0893389471692430 [Eh]
	 Total Energy              =    -677.2241744252661420 [Eh]

	 ================> DF-SCS-MP2 Energies <==================
	-----------------------------------------------------------
	 SCS Same-Spin Scale       =       0.3333333333333333 [-]
	 SCS Opposite-Spin Scale   =       1.2000000000000000 [-]
	 SCS Same-Spin Energy      =      -0.0857378076266784 [Eh]
	 SCS Opposite-Spin Energy  =      -0.9985506291470494 [Eh]
	 SCS Correlation Energy    =      -1.0842884367737278 [Eh]
	 SCS Total Energy          =    -677.2191239148705790 [Eh]
	-----------------------------------------------------------

  Dipole Moment: [D]
     X:     0.7882      Y:     1.7969      Z:    -0.8569     Total:     2.1411

*** Psi4 exiting successfully. Buy a developer a beer!
