                               Psi4 1.3.2 release

  ==> Input File <==

--------------------------------------------------------------------------
#psi4
#
memory 32 gb

molecule  {
0 1
  N       -0.0337150    -0.9783820    -0.0001030
  H       -0.0465630    -1.9952990     0.0000230
  C       -1.2196011    -0.2197241    -0.0002919
  O       -2.3237930    -1.0132930     0.0001830
  C       -1.2062280     1.1067970     0.0000000
  H       -2.1261180     1.6763830     0.0001840
  C        0.0030670     1.7105540     0.0000260
  H        0.1229620     2.7891690     0.0001530
  N        1.1742530     0.9863660    -0.0000120
  H        2.0766210     1.4468080     0.0000740
  C        1.2261220    -0.4021520    -0.0000880
  O        2.2745420    -1.0338450     0.0001200
units angstrom
no_reorient  #important for SAPT in psi4, default
symmetry c1  #important for SAPT in psi4, default
}

set PROPERTIES_ORIGIN ["COM"]
properties('MP2/aug-cc-pvtz', properties = ['dipole'])
--------------------------------------------------------------------------

    Molecular point group: c1
  Charge       = 0
  Multiplicity = 1
  Basis Set: AUG-CC-PVTZ
    Blend: AUG-CC-PVTZ
  Basis Set: (AUG-CC-PVTZ AUX)
    Blend: AUG-CC-PVTZ-JKFIT

    Orbital Energies [Eh]
    ---------------------

    Doubly Occupied:

       1A    -20.554200     2A    -20.515680     3A    -15.663684
       4A    -15.639322     5A    -11.426224     6A    -11.380476
       7A    -11.367140     8A    -11.260018     9A     -1.437031
      10A     -1.343332    11A     -1.303617    12A     -1.228733
      13A     -1.121792    14A     -0.958588    15A     -0.897737
      16A     -0.821462    17A     -0.778031    18A     -0.727378
      19A     -0.675041    20A     -0.674232    21A     -0.663319
      22A     -0.616926    23A     -0.564438    24A     -0.547602
      25A     -0.535229    26A     -0.483926    27A     -0.427565
      28A     -0.423911    29A     -0.372709

  @DF-RHF Final Energy:  -412.57642226836384

   => Energetics <=

    Nuclear Repulsion Energy =            355.8914255427420699
    One-Electron Energy =               -1268.1170057503700264
    Two-Electron Energy =                 499.6491579392640574
    Total Energy =                       -412.5764222683638422
  Basis Set: (AUG-CC-PVTZ AUX)
    Blend: AUG-CC-PVTZ-RI
    Molecular point group: c1

    Geometry (in Angstrom), charge = 0, multiplicity = 1:

       Center              X                  Y                   Z               Mass
    ------------   -----------------  -----------------  -----------------  -----------------
         N           -0.041308720100    -0.957506851484    -0.000097882511    14.003074004430
         H           -0.054156720100    -1.974423851484     0.000028117489     1.007825032230
         C           -1.227194820100    -0.198848951484    -0.000286782511    12.000000000000
         O           -2.331386720100    -0.992417851484     0.000188117489    15.994914619570
         C           -1.213821720100     1.127672148516     0.000005117489    12.000000000000
         H           -2.133711720100     1.697258148516     0.000189117489     1.007825032230
         C           -0.004526720100     1.731429148516     0.000031117489    12.000000000000
         H            0.115368279900     2.810044148516     0.000158117489     1.007825032230
         N            1.166659279900     1.007241148516    -0.000006882511    14.003074004430
         H            2.069027279900     1.467683148516     0.000079117489     1.007825032230
         C            1.218528279900    -0.381276851484    -0.000082882511    12.000000000000
         O            2.266948279900    -1.012969851484     0.000125117489    15.994914619570

  Basis Set: AUG-CC-PVTZ
    Blend: AUG-CC-PVTZ
  Basis Set: (AUG-CC-PVTZ AUX)
    Blend: AUG-CC-PVTZ-JKFIT
	 Reference Energy          =    -412.5764222683638422 [Eh]
	 Singles Energy            =      -0.0000000000000000 [Eh]
	 Same-Spin Energy          =      -0.4191428606156974 [Eh]
	 Opposite-Spin Energy      =      -1.2356352501474470 [Eh]
	 Correlation Energy        =      -1.6547781107631445 [Eh]
	 Total Energy              =    -414.2312003791269603 [Eh]

	 ================> DF-SCS-MP2 Energies <==================
	-----------------------------------------------------------
	 SCS Same-Spin Scale       =       0.3333333333333333 [-]
	 SCS Opposite-Spin Scale   =       1.2000000000000000 [-]
	 SCS Same-Spin Energy      =      -0.1397142868718991 [Eh]
	 SCS Opposite-Spin Energy  =      -1.4827623001769363 [Eh]
	 SCS Correlation Energy    =      -1.6224765870488356 [Eh]
	 SCS Total Energy          =    -414.1988988554126649 [Eh]
	-----------------------------------------------------------

  Dipole Moment: [D]
     X:     1.9392      Y:     4.9314      Z:    -0.0005     Total:     5.2990

*** Psi4 exiting successfully. Buy a developer a beer!
