                               Psi4 1.3.2 release

  ==> Input File <==

--------------------------------------------------------------------------
#psi4
#
memory 32 gb

molecule  {
0 1
  N       -0.0337150    -0.9783820    -0.0001030
  H       -0.0465630    -1.9952990     0.0000230
  C       -1.2924060    -0.3478390    -0.0002800
  O       -2.3237930    -1.0132930     0.0001830
  C       -1.2062280     1.1067970     0.0000000
  H       -2.1261180     1.6763830     0.0001840
  C       -0.0093934     1.6900037     0.0000249
  H        0.1229620     2.7891690     0.0001530
  N        1.1742530     0.9863660    -0.0000120
  H        2.0766210     1.4468080     0.0000740
  C        1.2261220    -0.4021520    -0.0000880
  O        2.2745420    -1.0338450     0.0001200
units angstrom
no_reorient  #important for SAPT in psi4, default
symmetry c1  #important for SAPT in psi4, default
}

set PROPERTIES_ORIGIN ["COM"]
properties('MP2/aug-cc-pvtz', properties = ['dipole'])
--------------------------------------------------------------------------

    Molecular point group: c1
  Charge       = 0
  Multiplicity = 1
  Basis Set: AUG-CC-PVTZ
    Blend: AUG-CC-PVTZ
  Basis Set: (AUG-CC-PVTZ AUX)
    Blend: AUG-CC-PVTZ-JKFIT

    Orbital Energies [Eh]
    ---------------------

    Doubly Occupied:

       1A    -20.549098     2A    -20.544746     3A    -15.646411
       4A    -15.630750     5A    -11.422330     6A    -11.385520
       7A    -11.342556     8A    -11.257870     9A     -1.431617
      10A     -1.394473    11A     -1.310827    12A     -1.243354
      13A     -1.093306    14A     -0.929087    15A     -0.901415
      16A     -0.806477    17A     -0.763701    18A     -0.707674
      19A     -0.677609    20A     -0.667003    21A     -0.653080
      22A     -0.617009    23A     -0.598357    24A     -0.569045
      25A     -0.525870    26A     -0.483189    27A     -0.450947
      28A     -0.437513    29A     -0.374040

  @DF-RHF Final Energy:  -412.62100429171278

   => Energetics <=

    Nuclear Repulsion Energy =            355.7767204845351330
    One-Electron Energy =               -1267.9656919283308980
    Two-Electron Energy =                 499.5679671520829288
    Total Energy =                       -412.6210042917127794
  Basis Set: (AUG-CC-PVTZ AUX)
    Blend: AUG-CC-PVTZ-RI
    Molecular point group: c1

    Geometry (in Angstrom), charge = 0, multiplicity = 1:

       Center              X                  Y                   Z               Mass
    ------------   -----------------  -----------------  -----------------  -----------------
         N           -0.032175376650    -0.941582315588    -0.000099039372    14.003074004430
         H           -0.045023376650    -1.958499315588     0.000026960628     1.007825032230
         C           -1.290866376650    -0.311039315588    -0.000276039372    12.000000000000
         O           -2.322253376650    -0.976493315588     0.000186960628    15.994914619570
         C           -1.204688376650     1.143596684412     0.000003960628    12.000000000000
         H           -2.124578376650     1.713182684412     0.000187960628     1.007825032230
         C           -0.007853776650     1.726803384412     0.000028860628    12.000000000000
         H            0.124501623350     2.825968684412     0.000156960628     1.007825032230
         N            1.175792623350     1.023165684412    -0.000008039372    14.003074004430
         H            2.078160623350     1.483607684412     0.000077960628     1.007825032230
         C            1.227661623350    -0.365352315588    -0.000084039372    12.000000000000
         O            2.276081623350    -0.997045315588     0.000123960628    15.994914619570

  Basis Set: AUG-CC-PVTZ
    Blend: AUG-CC-PVTZ
  Basis Set: (AUG-CC-PVTZ AUX)
    Blend: AUG-CC-PVTZ-JKFIT
	 Reference Energy          =    -412.6210042917127794 [Eh]
	 Singles Energy            =      -0.0000000000000000 [Eh]
	 Same-Spin Energy          =      -0.4145239773192894 [Eh]
	 Opposite-Spin Energy      =      -1.2278985611611222 [Eh]
	 Correlation Energy        =      -1.6424225384804116 [Eh]
	 Total Energy              =    -414.2634268301931684 [Eh]

	 ================> DF-SCS-MP2 Energies <==================
	-----------------------------------------------------------
	 SCS Same-Spin Scale       =       0.3333333333333333 [-]
	 SCS Opposite-Spin Scale   =       1.2000000000000000 [-]
	 SCS Same-Spin Energy      =      -0.1381746591064298 [Eh]
	 SCS Opposite-Spin Energy  =      -1.4734782733933465 [Eh]
	 SCS Correlation Energy    =      -1.6116529324997764 [Eh]
	 SCS Total Energy          =    -414.2326572242125735 [Eh]
	-----------------------------------------------------------

  Dipole Moment: [D]
     X:     1.1368      Y:     4.1708      Z:    -0.0005     Total:     4.3230

*** Psi4 exiting successfully. Buy a developer a beer!
