                               Psi4 1.3.2 release

  ==> Input File <==

--------------------------------------------------------------------------
#psi4
#
memory 32 gb

molecule  {
0 1
  N       -0.0337150    -0.9783820    -0.0001030
  H       -0.0465630    -1.9952990     0.0000230
  C       -1.3431196    -0.3439453    -0.0002753
  O       -2.3237930    -1.0132930     0.0001830
  C       -1.2062280     1.1067970     0.0000000
  H       -2.1261180     1.6763830     0.0001840
  C        0.0030670     1.7105540     0.0000260
  H        0.1229620     2.7891690     0.0001530
  N        1.1742530     0.9863660    -0.0000120
  H        2.0766210     1.4468080     0.0000740
  C        1.2261220    -0.4021520    -0.0000880
  O        2.2745420    -1.0338450     0.0001200
units angstrom
no_reorient  #important for SAPT in psi4, default
symmetry c1  #important for SAPT in psi4, default
}

set PROPERTIES_ORIGIN ["COM"]
properties('MP2/aug-cc-pvtz', properties = ['dipole'])
--------------------------------------------------------------------------

    Molecular point group: c1
  Charge       = 0
  Multiplicity = 1
  Basis Set: AUG-CC-PVTZ
    Blend: AUG-CC-PVTZ
  Basis Set: (AUG-CC-PVTZ AUX)
    Blend: AUG-CC-PVTZ-JKFIT

    Orbital Energies [Eh]
    ---------------------

    Doubly Occupied:

       1A    -20.554262     2A    -20.544026     3A    -15.644135
       4A    -15.621158     5A    -11.417473     6A    -11.386157
       7A    -11.345049     8A    -11.258519     9A     -1.433652
      10A     -1.414784    11A     -1.306893    12A     -1.231771
      13A     -1.087006    14A     -0.930161    15A     -0.890314
      16A     -0.798969    17A     -0.761094    18A     -0.709132
      19A     -0.680635    20A     -0.661395    21A     -0.649946
      22A     -0.625583    23A     -0.599502    24A     -0.579147
      25A     -0.521505    26A     -0.484279    27A     -0.451648
      28A     -0.436627    29A     -0.370639

  @DF-RHF Final Energy:  -412.62003733379174

   => Energetics <=

    Nuclear Repulsion Energy =            355.0924364714195463
    One-Electron Energy =               -1266.6340224077246148
    Two-Electron Energy =                 498.9215486025133259
    Total Energy =                       -412.6200373337917426
  Basis Set: (AUG-CC-PVTZ AUX)
    Blend: AUG-CC-PVTZ-RI
    Molecular point group: c1

    Geometry (in Angstrom), charge = 0, multiplicity = 1:

       Center              X                  Y                   Z               Mass
    ------------   -----------------  -----------------  -----------------  -----------------
         N           -0.028077817460    -0.944200677891    -0.000099660650    14.003074004430
         H           -0.040925817460    -1.961117677891     0.000026339350     1.007825032230
         C           -1.337482417460    -0.309763977891    -0.000271960650    12.000000000000
         O           -2.318155817460    -0.979111677891     0.000186339350    15.994914619570
         C           -1.200590817460     1.140978322109     0.000003339350    12.000000000000
         H           -2.120480817460     1.710564322109     0.000187339350     1.007825032230
         C            0.008704182540     1.744735322109     0.000029339350    12.000000000000
         H            0.128599182540     2.823350322109     0.000156339350     1.007825032230
         N            1.179890182540     1.020547322109    -0.000008660650    14.003074004430
         H            2.082258182540     1.480989322109     0.000077339350     1.007825032230
         C            1.231759182540    -0.367970677891    -0.000084660650    12.000000000000
         O            2.280179182540    -0.999663677891     0.000123339350    15.994914619570

  Basis Set: AUG-CC-PVTZ
    Blend: AUG-CC-PVTZ
  Basis Set: (AUG-CC-PVTZ AUX)
    Blend: AUG-CC-PVTZ-JKFIT
	 Reference Energy          =    -412.6200373337917426 [Eh]
	 Singles Energy            =      -0.0000000000000000 [Eh]
	 Same-Spin Energy          =      -0.4140352831983617 [Eh]
	 Opposite-Spin Energy      =      -1.2270775678357229 [Eh]
	 Correlation Energy        =      -1.6411128510340847 [Eh]
	 Total Energy              =    -414.2611501848258513 [Eh]

	 ================> DF-SCS-MP2 Energies <==================
	-----------------------------------------------------------
	 SCS Same-Spin Scale       =       0.3333333333333333 [-]
	 SCS Opposite-Spin Scale   =       1.2000000000000000 [-]
	 SCS Same-Spin Energy      =      -0.1380117610661206 [Eh]
	 SCS Opposite-Spin Energy  =      -1.4724930814028674 [Eh]
	 SCS Correlation Energy    =      -1.6105048424689881 [Eh]
	 SCS Total Energy          =    -414.2305421762607125 [Eh]
	-----------------------------------------------------------

  Dipole Moment: [D]
     X:     0.7274      Y:     4.1668      Z:    -0.0005     Total:     4.2298

*** Psi4 exiting successfully. Buy a developer a beer!
