                               Psi4 1.3.2 release

  ==> Input File <==

--------------------------------------------------------------------------
#psi4
#
memory 32 gb

molecule  {
0 1
  N       -0.0337150    -0.9783820    -0.0001030
  H       -0.0465630    -1.9952990     0.0000230
  C       -1.2924060    -0.3478390    -0.0002800
  O       -2.3237930    -1.0132930     0.0001830
  C       -1.1955068     1.0857838    -0.0000010
  H       -2.1261180     1.6763830     0.0001840
  C        0.0030670     1.7105540     0.0000260
  H        0.1229620     2.7891690     0.0001530
  N        1.1742530     0.9863660    -0.0000120
  H        2.0766210     1.4468080     0.0000740
  C        1.2261220    -0.4021520    -0.0000880
  O        2.2745420    -1.0338450     0.0001200
units angstrom
no_reorient  #important for SAPT in psi4, default
symmetry c1  #important for SAPT in psi4, default
}

set PROPERTIES_ORIGIN ["COM"]
properties('MP2/aug-cc-pvtz', properties = ['dipole'])
--------------------------------------------------------------------------

    Molecular point group: c1
  Charge       = 0
  Multiplicity = 1
  Basis Set: AUG-CC-PVTZ
    Blend: AUG-CC-PVTZ
  Basis Set: (AUG-CC-PVTZ AUX)
    Blend: AUG-CC-PVTZ-JKFIT

    Orbital Energies [Eh]
    ---------------------

    Doubly Occupied:

       1A    -20.549262     2A    -20.543298     3A    -15.647481
       4A    -15.630149     5A    -11.423010     6A    -11.383631
       7A    -11.346099     8A    -11.259470     9A     -1.431752
      10A     -1.393864    11A     -1.311289    12A     -1.243628
      13A     -1.089921    14A     -0.935065    15A     -0.901565
      16A     -0.802881    17A     -0.765037    18A     -0.714572
      19A     -0.676999    20A     -0.667075    21A     -0.651381
      22A     -0.614800    23A     -0.595616    24A     -0.569369
      25A     -0.525200    26A     -0.484818    27A     -0.451092
      28A     -0.437077    29A     -0.370556

  @DF-RHF Final Energy:  -412.61977352188859

   => Energetics <=

    Nuclear Repulsion Energy =            355.7809816144365413
    One-Electron Energy =               -1267.9695896651842304
    Two-Electron Energy =                 499.5688345288590995
    Total Energy =                       -412.6197735218885896
  Basis Set: (AUG-CC-PVTZ AUX)
    Blend: AUG-CC-PVTZ-RI
    Molecular point group: c1

    Geometry (in Angstrom), charge = 0, multiplicity = 1:

       Center              X                  Y                   Z               Mass
    ------------   -----------------  -----------------  -----------------  -----------------
         N           -0.034658514744    -0.941532731235    -0.000099050084    14.003074004430
         H           -0.047506514744    -1.958449731235     0.000026949916     1.007825032230
         C           -1.293349514744    -0.310989731235    -0.000276050084    12.000000000000
         O           -2.324736514744    -0.976443731235     0.000186949916    15.994914619570
         C           -1.196450314744     1.122633068765     0.000002949916    12.000000000000
         H           -2.127061514744     1.713232268765     0.000187949916     1.007825032230
         C            0.002123485256     1.747403268765     0.000029949916    12.000000000000
         H            0.122018485256     2.826018268765     0.000156949916     1.007825032230
         N            1.173309485256     1.023215268765    -0.000008050084    14.003074004430
         H            2.075677485256     1.483657268765     0.000077949916     1.007825032230
         C            1.225178485256    -0.365302731235    -0.000084050084    12.000000000000
         O            2.273598485256    -0.996995731235     0.000123949916    15.994914619570

  Basis Set: AUG-CC-PVTZ
    Blend: AUG-CC-PVTZ
  Basis Set: (AUG-CC-PVTZ AUX)
    Blend: AUG-CC-PVTZ-JKFIT
	 Reference Energy          =    -412.6197735218885896 [Eh]
	 Singles Energy            =      -0.0000000000000000 [Eh]
	 Same-Spin Energy          =      -0.4150671687791062 [Eh]
	 Opposite-Spin Energy      =      -1.2286934488258709 [Eh]
	 Correlation Energy        =      -1.6437606176049770 [Eh]
	 Total Energy              =    -414.2635341394935722 [Eh]

	 ================> DF-SCS-MP2 Energies <==================
	-----------------------------------------------------------
	 SCS Same-Spin Scale       =       0.3333333333333333 [-]
	 SCS Opposite-Spin Scale   =       1.2000000000000000 [-]
	 SCS Same-Spin Energy      =      -0.1383557229263687 [Eh]
	 SCS Opposite-Spin Energy  =      -1.4744321385910450 [Eh]
	 SCS Correlation Energy    =      -1.6127878615174138 [Eh]
	 SCS Total Energy          =    -414.2325613834059936 [Eh]
	-----------------------------------------------------------

  Dipole Moment: [D]
     X:     1.1972      Y:     4.2430      Z:    -0.0005     Total:     4.4087

*** Psi4 exiting successfully. Buy a developer a beer!
