                               Psi4 1.3.2 release

  ==> Input File <==

--------------------------------------------------------------------------
#psi4
#
memory 32 gb

molecule  {
0 1
  N       -0.0337150    -0.9783820    -0.0001030
  H       -0.0465630    -1.9952990     0.0000230
  C       -1.2924060    -0.3478390    -0.0002800
  O       -2.3237930    -1.0132930     0.0001830
  C       -1.1364936     0.9836987    -0.0000061
  H       -2.1261180     1.6763830     0.0001840
  C        0.0030670     1.7105540     0.0000260
  H        0.1229620     2.7891690     0.0001530
  N        1.1742530     0.9863660    -0.0000120
  H        2.0766210     1.4468080     0.0000740
  C        1.2261220    -0.4021520    -0.0000880
  O        2.2745420    -1.0338450     0.0001200
units angstrom
no_reorient  #important for SAPT in psi4, default
symmetry c1  #important for SAPT in psi4, default
}

set PROPERTIES_ORIGIN ["COM"]
properties('MP2/aug-cc-pvtz', properties = ['dipole'])
--------------------------------------------------------------------------

    Molecular point group: c1
  Charge       = 0
  Multiplicity = 1
  Basis Set: AUG-CC-PVTZ
    Blend: AUG-CC-PVTZ
  Basis Set: (AUG-CC-PVTZ AUX)
    Blend: AUG-CC-PVTZ-JKFIT

    Orbital Energies [Eh]
    ---------------------

    Doubly Occupied:

       1A    -20.548141     2A    -20.538404     3A    -15.649626
       4A    -15.626943     5A    -11.422675     6A    -11.373885
       7A    -11.355957     8A    -11.258863     9A     -1.432394
      10A     -1.392312    11A     -1.315252    12A     -1.244132
      13A     -1.098926    14A     -0.952740    15A     -0.903522
      16A     -0.794875    17A     -0.774161    18A     -0.721871
      19A     -0.677417    20A     -0.670128    21A     -0.649052
      22A     -0.623019    23A     -0.572202    24A     -0.554048
      25A     -0.526653    26A     -0.486669    27A     -0.450860
      28A     -0.435307    29A     -0.371359

  @DF-RHF Final Energy:  -412.59208709351140

   => Energetics <=

    Nuclear Repulsion Energy =            357.9267094335333468
    One-Electron Energy =               -1272.1948082751580387
    Two-Electron Energy =                 501.6760117481132966
    Total Energy =                       -412.5920870935113953
  Basis Set: (AUG-CC-PVTZ AUX)
    Blend: AUG-CC-PVTZ-RI
    Molecular point group: c1

    Geometry (in Angstrom), charge = 0, multiplicity = 1:

       Center              X                  Y                   Z               Mass
    ------------   -----------------  -----------------  -----------------  -----------------
         N           -0.040979818060    -0.930597705153    -0.000098503789    14.003074004430
         H           -0.053827818060    -1.947514705153     0.000027496211     1.007825032230
         C           -1.299670818060    -0.300054705153    -0.000275503789    12.000000000000
         O           -2.331057818060    -0.965508705153     0.000187496211    15.994914619570
         C           -1.143758418060     1.031482994847    -0.000001603789    12.000000000000
         H           -2.133382818060     1.724167294847     0.000188496211     1.007825032230
         C           -0.004197818060     1.758338294847     0.000030496211    12.000000000000
         H            0.115697181940     2.836953294847     0.000157496211     1.007825032230
         N            1.166988181940     1.034150294847    -0.000007503789    14.003074004430
         H            2.069356181940     1.494592294847     0.000078496211     1.007825032230
         C            1.218857181940    -0.354367705153    -0.000083503789    12.000000000000
         O            2.267277181940    -0.986060705153     0.000124496211    15.994914619570

  Basis Set: AUG-CC-PVTZ
    Blend: AUG-CC-PVTZ
  Basis Set: (AUG-CC-PVTZ AUX)
    Blend: AUG-CC-PVTZ-JKFIT
	 Reference Energy          =    -412.5920870935113953 [Eh]
	 Singles Energy            =      -0.0000000000000000 [Eh]
	 Same-Spin Energy          =      -0.4174122885168649 [Eh]
	 Opposite-Spin Energy      =      -1.2317251337973769 [Eh]
	 Correlation Energy        =      -1.6491374223142419 [Eh]
	 Total Energy              =    -414.2412245158256496 [Eh]

	 ================> DF-SCS-MP2 Energies <==================
	-----------------------------------------------------------
	 SCS Same-Spin Scale       =       0.3333333333333333 [-]
	 SCS Opposite-Spin Scale   =       1.2000000000000000 [-]
	 SCS Same-Spin Energy      =      -0.1391374295056216 [Eh]
	 SCS Opposite-Spin Energy  =      -1.4780701605568523 [Eh]
	 SCS Correlation Energy    =      -1.6172075900624738 [Eh]
	 SCS Total Energy          =    -414.2092946835738871 [Eh]
	-----------------------------------------------------------

  Dipole Moment: [D]
     X:     1.3541      Y:     4.4839      Z:    -0.0005     Total:     4.6839

*** Psi4 exiting successfully. Buy a developer a beer!
