                               Psi4 1.3.2 release

  ==> Input File <==

--------------------------------------------------------------------------
#psi4
#
memory 32 gb

molecule  {
0 1
  N       -0.0337150    -0.9783820    -0.0001030
  H       -0.0465630    -1.9952990     0.0000230
  C       -1.2924060    -0.3478390    -0.0002800
  O       -2.3237930    -1.0132930     0.0001830
  C       -1.2062280     1.1067970     0.0000000
  H       -2.1261180     1.6763830     0.0001840
  C        0.0851811     1.8290091     0.0000326
  H        0.1229620     2.7891690     0.0001530
  N        1.1742530     0.9863660    -0.0000120
  H        2.0766210     1.4468080     0.0000740
  C        1.2261220    -0.4021520    -0.0000880
  O        2.2745420    -1.0338450     0.0001200
units angstrom
no_reorient  #important for SAPT in psi4, default
symmetry c1  #important for SAPT in psi4, default
}

set PROPERTIES_ORIGIN ["COM"]
properties('MP2/aug-cc-pvtz', properties = ['dipole'])
--------------------------------------------------------------------------

    Molecular point group: c1
  Charge       = 0
  Multiplicity = 1
  Basis Set: AUG-CC-PVTZ
    Blend: AUG-CC-PVTZ
  Basis Set: (AUG-CC-PVTZ AUX)
    Blend: AUG-CC-PVTZ-JKFIT

    Orbital Energies [Eh]
    ---------------------

    Doubly Occupied:

       1A    -20.552946     2A    -20.540430     3A    -15.655045
       4A    -15.631449     5A    -11.428886     6A    -11.384042
       7A    -11.358137     8A    -11.270499     9A     -1.433492
      10A     -1.391885    11A     -1.311638    12A     -1.246049
      13A     -1.065852    14A     -0.951770    15A     -0.900039
      16A     -0.797762    17A     -0.778155    18A     -0.738460
      19A     -0.672769    20A     -0.666093    21A     -0.651408
      22A     -0.613287    23A     -0.586326    24A     -0.568815
      25A     -0.522260    26A     -0.490118    27A     -0.448871
      28A     -0.437202    29A     -0.350277

  @DF-RHF Final Energy:  -412.58230580748074

   => Energetics <=

    Nuclear Repulsion Energy =            353.1421442820274024
    One-Electron Energy =               -1262.5609764586165511
    Two-Electron Energy =                 496.8365263691084124
    Total Energy =                       -412.5823058074807363
  Basis Set: (AUG-CC-PVTZ AUX)
    Blend: AUG-CC-PVTZ-RI
    Molecular point group: c1

    Geometry (in Angstrom), charge = 0, multiplicity = 1:

       Center              X                  Y                   Z               Mass
    ------------   -----------------  -----------------  -----------------  -----------------
         N           -0.042305891526    -0.956472124918    -0.000099864172    14.003074004430
         H           -0.055153891526    -1.973389124918     0.000026135828     1.007825032230
         C           -1.300996891526    -0.325929124918    -0.000276864172    12.000000000000
         O           -2.332383891526    -0.991383124918     0.000186135828    15.994914619570
         C           -1.214818891526     1.128706875082     0.000003135828    12.000000000000
         H           -2.134708891526     1.698292875082     0.000187135828     1.007825032230
         C            0.076590208474     1.850918975082     0.000035735828    12.000000000000
         H            0.114371108474     2.811078875082     0.000156135828     1.007825032230
         N            1.165662108474     1.008275875082    -0.000008864172    14.003074004430
         H            2.068030108474     1.468717875082     0.000077135828     1.007825032230
         C            1.217531108474    -0.380242124918    -0.000084864172    12.000000000000
         O            2.265951108474    -1.011935124918     0.000123135828    15.994914619570

  Basis Set: AUG-CC-PVTZ
    Blend: AUG-CC-PVTZ
  Basis Set: (AUG-CC-PVTZ AUX)
    Blend: AUG-CC-PVTZ-JKFIT
	 Reference Energy          =    -412.5823058074807363 [Eh]
	 Singles Energy            =      -0.0000000000000000 [Eh]
	 Same-Spin Energy          =      -0.4168913599953991 [Eh]
	 Opposite-Spin Energy      =      -1.2333312454770118 [Eh]
	 Correlation Energy        =      -1.6502226054724107 [Eh]
	 Total Energy              =    -414.2325284129531724 [Eh]

	 ================> DF-SCS-MP2 Energies <==================
	-----------------------------------------------------------
	 SCS Same-Spin Scale       =       0.3333333333333333 [-]
	 SCS Opposite-Spin Scale   =       1.2000000000000000 [-]
	 SCS Same-Spin Energy      =      -0.1389637866651330 [Eh]
	 SCS Opposite-Spin Energy  =      -1.4799974945724141 [Eh]
	 SCS Correlation Energy    =      -1.6189612812375471 [Eh]
	 SCS Total Energy          =    -414.2012670887182821 [Eh]
	-----------------------------------------------------------

  Dipole Moment: [D]
     X:     1.3453      Y:     4.2335      Z:    -0.0005     Total:     4.4421

*** Psi4 exiting successfully. Buy a developer a beer!
