                               Psi4 1.3.2 release

  ==> Input File <==

--------------------------------------------------------------------------
#psi4
#
memory 32 gb

molecule  {
0 1
  N        0.0095497    -1.0648601    -0.0001083
  H       -0.0465630    -1.9952990     0.0000230
  C       -1.2924060    -0.3478390    -0.0002800
  O       -2.3237930    -1.0132930     0.0001830
  C       -1.2062280     1.1067970     0.0000000
  H       -2.1261180     1.6763830     0.0001840
  C        0.0030670     1.7105540     0.0000260
  H        0.1229620     2.7891690     0.0001530
  N        1.1742530     0.9863660    -0.0000120
  H        2.0766210     1.4468080     0.0000740
  C        1.2261220    -0.4021520    -0.0000880
  O        2.2745420    -1.0338450     0.0001200
units angstrom
no_reorient  #important for SAPT in psi4, default
symmetry c1  #important for SAPT in psi4, default
}

set PROPERTIES_ORIGIN ["COM"]
properties('MP2/aug-cc-pvtz', properties = ['dipole'])
--------------------------------------------------------------------------

    Molecular point group: c1
  Charge       = 0
  Multiplicity = 1
  Basis Set: AUG-CC-PVTZ
    Blend: AUG-CC-PVTZ
  Basis Set: (AUG-CC-PVTZ AUX)
    Blend: AUG-CC-PVTZ-JKFIT

    Orbital Energies [Eh]
    ---------------------

    Doubly Occupied:

       1A    -20.551356     2A    -20.540992     3A    -15.649700
       4A    -15.620540     5A    -11.418364     6A    -11.392308
       7A    -11.348524     8A    -11.263810     9A     -1.426982
      10A     -1.394574    11A     -1.306780    12A     -1.239142
      13A     -1.089882    14A     -0.939900    15A     -0.882638
      16A     -0.809975    17A     -0.763058    18A     -0.729054
      19A     -0.678747    20A     -0.660504    21A     -0.649165
      22A     -0.619241    23A     -0.604436    24A     -0.565062
      25A     -0.525695    26A     -0.482327    27A     -0.446984
      28A     -0.433883    29A     -0.372479

  @DF-RHF Final Energy:  -412.60944128989365

   => Energetics <=

    Nuclear Repulsion Energy =            353.9426039274864593
    One-Electron Energy =               -1264.2918868648612261
    Two-Electron Energy =                 497.7398416474810574
    Total Energy =                       -412.6094412898936525
  Basis Set: (AUG-CC-PVTZ AUX)
    Blend: AUG-CC-PVTZ-RI
    Molecular point group: c1

    Geometry (in Angstrom), charge = 0, multiplicity = 1:

       Center              X                  Y                   Z               Mass
    ------------   -----------------  -----------------  -----------------  -----------------
         N            0.004346647695    -1.019452193942    -0.000103794717    14.003074004430
         H           -0.051766052305    -1.949891093942     0.000027505283     1.007825032230
         C           -1.297609052305    -0.302431093942    -0.000275494717    12.000000000000
         O           -2.328996052305    -0.967885093942     0.000187505283    15.994914619570
         C           -1.211431052305     1.152204906058     0.000004505283    12.000000000000
         H           -2.131321052305     1.721790906058     0.000188505283     1.007825032230
         C           -0.002136052305     1.755961906058     0.000030505283    12.000000000000
         H            0.117758947695     2.834576906058     0.000157505283     1.007825032230
         N            1.169049947695     1.031773906058    -0.000007494717    14.003074004430
         H            2.071417947695     1.492215906058     0.000078505283     1.007825032230
         C            1.220918947695    -0.356744093942    -0.000083494717    12.000000000000
         O            2.269338947695    -0.988437093942     0.000124505283    15.994914619570

  Basis Set: AUG-CC-PVTZ
    Blend: AUG-CC-PVTZ
  Basis Set: (AUG-CC-PVTZ AUX)
    Blend: AUG-CC-PVTZ-JKFIT
	 Reference Energy          =    -412.6094412898936525 [Eh]
	 Singles Energy            =      -0.0000000000000000 [Eh]
	 Same-Spin Energy          =      -0.4137356263881194 [Eh]
	 Opposite-Spin Energy      =      -1.2277651561063148 [Eh]
	 Correlation Energy        =      -1.6415007824944343 [Eh]
	 Total Energy              =    -414.2509420723881135 [Eh]

	 ================> DF-SCS-MP2 Energies <==================
	-----------------------------------------------------------
	 SCS Same-Spin Scale       =       0.3333333333333333 [-]
	 SCS Opposite-Spin Scale   =       1.2000000000000000 [-]
	 SCS Same-Spin Energy      =      -0.1379118754627065 [Eh]
	 SCS Opposite-Spin Energy  =      -1.4733181873275776 [Eh]
	 SCS Correlation Energy    =      -1.6112300627902840 [Eh]
	 SCS Total Energy          =    -414.2206713526839508 [Eh]
	-----------------------------------------------------------

  Dipole Moment: [D]
     X:     0.8329      Y:     4.3749      Z:    -0.0005     Total:     4.4535

*** Psi4 exiting successfully. Buy a developer a beer!
