                               Psi4 1.3.2 release

  ==> Input File <==

--------------------------------------------------------------------------
#psi4
#
memory 32 gb

molecule  {
0 1
  N       -0.0337150    -0.9783820    -0.0001030
  H       -0.0465630    -1.9952990     0.0000230
  C       -1.2924060    -0.3478390    -0.0002800
  O       -2.3237930    -1.0132930     0.0001830
  C       -1.2062280     1.1067970     0.0000000
  H       -2.1261180     1.6763830     0.0001840
  C        0.0030670     1.7105540     0.0000260
  H        0.1229620     2.7891690     0.0001530
  N        1.1742530     0.9863660    -0.0000120
  H        1.9875468     1.4013570     0.0000655
  C        1.2261220    -0.4021520    -0.0000880
  O        2.2745420    -1.0338450     0.0001200
units angstrom
no_reorient  #important for SAPT in psi4, default
symmetry c1  #important for SAPT in psi4, default
}

set PROPERTIES_ORIGIN ["COM"]
properties('MP2/aug-cc-pvtz', properties = ['dipole'])
--------------------------------------------------------------------------

    Molecular point group: c1
  Charge       = 0
  Multiplicity = 1
  Basis Set: AUG-CC-PVTZ
    Blend: AUG-CC-PVTZ
  Basis Set: (AUG-CC-PVTZ AUX)
    Blend: AUG-CC-PVTZ-JKFIT

    Orbital Energies [Eh]
    ---------------------

    Doubly Occupied:

       1A    -20.550626     2A    -20.545074     3A    -15.638537
       4A    -15.631259     5A    -11.423928     6A    -11.386144
       7A    -11.345251     8A    -11.260818     9A     -1.434217
      10A     -1.395101    11A     -1.318477    12A     -1.248820
      13A     -1.092814    14A     -0.933545    15A     -0.911461
      16A     -0.820467    17A     -0.765401    18A     -0.715680
      19A     -0.682822    20A     -0.667968    21A     -0.654457
      22A     -0.618272    23A     -0.601718    24A     -0.570099
      25A     -0.526584    26A     -0.485136    27A     -0.451568
      28A     -0.438041    29A     -0.372178

  @DF-RHF Final Energy:  -412.61445740495674

   => Energetics <=

    Nuclear Repulsion Energy =            356.0321070870738254
    One-Electron Energy =               -1268.3202021429290198
    Two-Electron Energy =                 499.6736376508983994
    Total Energy =                       -412.6144574049567382
  Basis Set: (AUG-CC-PVTZ AUX)
    Blend: AUG-CC-PVTZ-RI
    Molecular point group: c1

    Geometry (in Angstrom), charge = 0, multiplicity = 1:

       Center              X                  Y                   Z               Mass
    ------------   -----------------  -----------------  -----------------  -----------------
         N           -0.032708760956    -0.943374708915    -0.000099080733    14.003074004430
         H           -0.045556760956    -1.960291708915     0.000026919267     1.007825032230
         C           -1.291399760956    -0.312831708915    -0.000276080733    12.000000000000
         O           -2.322786760956    -0.978285708915     0.000186919267    15.994914619570
         C           -1.205221760956     1.141804291085     0.000003919267    12.000000000000
         H           -2.125111760956     1.711390291085     0.000187919267     1.007825032230
         C            0.004073239044     1.745561291085     0.000029919267    12.000000000000
         H            0.123968239044     2.824176291085     0.000156919267     1.007825032230
         N            1.175259239044     1.021373291085    -0.000008080733    14.003074004430
         H            1.988553039044     1.436364291085     0.000069419267     1.007825032230
         C            1.227128239044    -0.367144708915    -0.000084080733    12.000000000000
         O            2.275548239044    -0.998837708915     0.000123919267    15.994914619570

  Basis Set: AUG-CC-PVTZ
    Blend: AUG-CC-PVTZ
  Basis Set: (AUG-CC-PVTZ AUX)
    Blend: AUG-CC-PVTZ-JKFIT
	 Reference Energy          =    -412.6144574049567382 [Eh]
	 Singles Energy            =      -0.0000000000000000 [Eh]
	 Same-Spin Energy          =      -0.4139980679925273 [Eh]
	 Opposite-Spin Energy      =      -1.2268727241620030 [Eh]
	 Correlation Energy        =      -1.6408707921545302 [Eh]
	 Total Energy              =    -414.2553281971112824 [Eh]

	 ================> DF-SCS-MP2 Energies <==================
	-----------------------------------------------------------
	 SCS Same-Spin Scale       =       0.3333333333333333 [-]
	 SCS Opposite-Spin Scale   =       1.2000000000000000 [-]
	 SCS Same-Spin Energy      =      -0.1379993559975091 [Eh]
	 SCS Opposite-Spin Energy  =      -1.4722472689944035 [Eh]
	 SCS Correlation Energy    =      -1.6102466249919125 [Eh]
	 SCS Total Energy          =    -414.2247040299486684 [Eh]
	-----------------------------------------------------------

  Dipole Moment: [D]
     X:     1.0389      Y:     4.1202      Z:    -0.0005     Total:     4.2492

*** Psi4 exiting successfully. Buy a developer a beer!
