                               Psi4 1.3.2 release

  ==> Input File <==

--------------------------------------------------------------------------
#psi4
#
memory 32 gb

molecule  {
0 1
  N       -0.0337150    -0.9783820    -0.0001030
  H       -0.0465630    -1.9952990     0.0000230
  C       -1.3032188    -0.3699022    -0.0002778
  O       -2.3237930    -1.0132930     0.0001830
  C       -1.2062280     1.1067970     0.0000000
  H       -2.1261180     1.6763830     0.0001840
  C        0.0030670     1.7105540     0.0000260
  H        0.1229620     2.7891690     0.0001530
  N        1.1742530     0.9863660    -0.0000120
  H        2.0766210     1.4468080     0.0000740
  C        1.2261220    -0.4021520    -0.0000880
  O        2.2745420    -1.0338450     0.0001200
units angstrom
no_reorient  #important for SAPT in psi4, default
symmetry c1  #important for SAPT in psi4, default
}

set PROPERTIES_ORIGIN ["COM"]
properties('MP2/aug-cc-pvtz', properties = ['dipole'])
--------------------------------------------------------------------------

    Molecular point group: c1
  Charge       = 0
  Multiplicity = 1
  Basis Set: AUG-CC-PVTZ
    Blend: AUG-CC-PVTZ
  Basis Set: (AUG-CC-PVTZ AUX)
    Blend: AUG-CC-PVTZ-JKFIT

    Orbital Energies [Eh]
    ---------------------

    Doubly Occupied:

       1A    -20.548841     2A    -20.548314     3A    -15.644881
       4A    -15.629454     5A    -11.422721     6A    -11.385330
       7A    -11.341125     8A    -11.259124     9A     -1.432566
      10A     -1.406699    11A     -1.309526    12A     -1.244297
      13A     -1.083337    14A     -0.927994    15A     -0.901473
      16A     -0.802292    17A     -0.761051    18A     -0.711208
      19A     -0.679838    20A     -0.665967    21A     -0.651417
      22A     -0.619175    23A     -0.599700    24A     -0.574630
      25A     -0.523352    26A     -0.483842    27A     -0.452026
      28A     -0.439898    29A     -0.368895

  @DF-RHF Final Energy:  -412.62196383654265

   => Energetics <=

    Nuclear Repulsion Energy =            355.3394523712477735
    One-Electron Energy =               -1267.0848899041345703
    Two-Electron Energy =                 499.1234736963442060
    Total Energy =                       -412.6219638365426476
  Basis Set: (AUG-CC-PVTZ AUX)
    Blend: AUG-CC-PVTZ-RI
    Molecular point group: c1

    Geometry (in Angstrom), charge = 0, multiplicity = 1:

       Center              X                  Y                   Z               Mass
    ------------   -----------------  -----------------  -----------------  -----------------
         N           -0.032351862239    -0.941420258628    -0.000099392858    14.003074004430
         H           -0.045199862239    -1.958337258628     0.000026607142     1.007825032230
         C           -1.301855662239    -0.332940458628    -0.000274192858    12.000000000000
         O           -2.322429862239    -0.976331258628     0.000186607142    15.994914619570
         C           -1.204864862239     1.143758741372     0.000003607142    12.000000000000
         H           -2.124754862239     1.713344741372     0.000187607142     1.007825032230
         C            0.004430137761     1.747515741372     0.000029607142    12.000000000000
         H            0.124325137761     2.826130741372     0.000156607142     1.007825032230
         N            1.175616137761     1.023327741372    -0.000008392858    14.003074004430
         H            2.077984137761     1.483769741372     0.000077607142     1.007825032230
         C            1.227485137761    -0.365190258628    -0.000084392858    12.000000000000
         O            2.275905137761    -0.996883258628     0.000123607142    15.994914619570

  Basis Set: AUG-CC-PVTZ
    Blend: AUG-CC-PVTZ
  Basis Set: (AUG-CC-PVTZ AUX)
    Blend: AUG-CC-PVTZ-JKFIT
	 Reference Energy          =    -412.6219638365426476 [Eh]
	 Singles Energy            =      -0.0000000000000000 [Eh]
	 Same-Spin Energy          =      -0.4140936103954487 [Eh]
	 Opposite-Spin Energy      =      -1.2273112422510954 [Eh]
	 Correlation Energy        =      -1.6414048526465441 [Eh]
	 Total Energy              =    -414.2633686891891784 [Eh]

	 ================> DF-SCS-MP2 Energies <==================
	-----------------------------------------------------------
	 SCS Same-Spin Scale       =       0.3333333333333333 [-]
	 SCS Opposite-Spin Scale   =       1.2000000000000000 [-]
	 SCS Same-Spin Energy      =      -0.1380312034651495 [Eh]
	 SCS Opposite-Spin Energy  =      -1.4727734907013146 [Eh]
	 SCS Correlation Energy    =      -1.6108046941664642 [Eh]
	 SCS Total Energy          =    -414.2327685307091087 [Eh]
	-----------------------------------------------------------

  Dipole Moment: [D]
     X:     1.0371      Y:     4.0535      Z:    -0.0005     Total:     4.1840

*** Psi4 exiting successfully. Buy a developer a beer!
