                               Psi4 1.4a3.dev225

  ==> Input File <==

--------------------------------------------------------------------------
#psi4
#
memory 32 gb

molecule  {
0 1
  N        0.0336940    -0.9783750    -0.0000010
  H        0.0471450    -1.9953050    -0.0000010
  C        1.2925930    -0.3474800     0.0000000
  O        2.3237090    -1.0134020     0.0000010
  C        1.2062870     1.1068390     0.0000000
  H        2.1256600     1.6771670     0.0000010
  C       -0.0033680     1.7103630     0.0000000
  H       -0.1227300     2.7890550     0.0000000
  N       -1.1742180     0.9864080    -0.0000010
  H       -2.0320801     1.4240051     0.0000009
  C       -1.2259650    -0.4025210     0.0000010
  O       -2.2745920    -1.0337330     0.0000010
units angstrom
no_reorient  #important for SAPT in psi4, default
symmetry c1  #important for SAPT in psi4, default
}

set PROPERTIES_ORIGIN ["COM"]
properties('MP2/aug-cc-pvtz', properties = ['dipole'])
--------------------------------------------------------------------------

    Molecular point group: c1
  Charge       = 0
  Multiplicity = 1
  Basis Set: AUG-CC-PVTZ
    Blend: AUG-CC-PVTZ
  Basis Set: (AUG-CC-PVTZ AUX)
    Blend: AUG-CC-PVTZ-JKFIT

    Orbital Energies [Eh]
    ---------------------

    Doubly Occupied:

       1A    -20.550109     2A    -20.544605     3A    -15.643123
       4A    -15.631020     5A    -11.423540     6A    -11.385736
       7A    -11.344951     8A    -11.260227     9A     -1.432923
      10A     -1.394585    11A     -1.314248    12A     -1.246182
      13A     -1.090471    14A     -0.932912    15A     -0.905743
      16A     -0.812708    17A     -0.764317    18A     -0.714620
      19A     -0.680019    20A     -0.667313    21A     -0.653553
      22A     -0.616586    23A     -0.601297    24A     -0.569484
      25A     -0.525867    26A     -0.484763    27A     -0.451156
      28A     -0.437740    29A     -0.371269

  @DF-RHF Final Energy:  -412.62058261031984

   => Energetics <=

    Nuclear Repulsion Energy =            355.6927681075670193
    One-Electron Energy =               -1267.7245716230547714
    Two-Electron Energy =                 499.4112209051679656
    Total Energy =                       -412.6205826103198433
  Basis Set: (AUG-CC-PVTZ AUX)
    Blend: AUG-CC-PVTZ-RI
    Molecular point group: c1

    Geometry (in Angstrom), charge = 0, multiplicity = 1:

       Center              X                  Y                   Z               Mass
    ------------   -----------------  -----------------  -----------------  -----------------
         N            0.033091647093    -0.943566951937    -0.000001150773    14.003074004430
         H            0.046542647093    -1.960496951937    -0.000001150773     1.007825032230
         C            1.291990647093    -0.312671951937    -0.000000150773    12.000000000000
         O            2.323106647093    -0.978593951937     0.000000849227    15.994914619570
         C            1.205684647093     1.141647048063    -0.000000150773    12.000000000000
         H            2.125057647093     1.711975048063     0.000000849227     1.007825032230
         C           -0.003970352907     1.745171048063    -0.000000150773    12.000000000000
         H           -0.123332352907     2.823863048063    -0.000000150773     1.007825032230
         N           -1.174820352907     1.021216048063    -0.000001150773    14.003074004430
         H           -2.032682452907     1.458813148063     0.000000749227     1.007825032230
         C           -1.226567352907    -0.367712951937     0.000000849227    12.000000000000
         O           -2.275194352907    -0.998924951937     0.000000849227    15.994914619570

  Basis Set: AUG-CC-PVTZ
    Blend: AUG-CC-PVTZ
  Basis Set: (AUG-CC-PVTZ AUX)
    Blend: AUG-CC-PVTZ-JKFIT
	 Reference Energy          =    -412.6205826103198433 [Eh]
	 Singles Energy            =      -0.0000000000000000 [Eh]
	 Same-Spin Energy          =      -0.4143545707510995 [Eh]
	 Opposite-Spin Energy      =      -1.2275549190608279 [Eh]
	 Correlation Energy        =      -1.6419094898119275 [Eh]
	 Total Energy              =    -414.2624921001317944 [Eh]

	 ================> DF-SCS-MP2 Energies <==================
	-----------------------------------------------------------
	 SCS Same-Spin Scale       =       0.3333333333333333 [-]
	 SCS Opposite-Spin Scale   =       1.2000000000000000 [-]
	 SCS Same-Spin Energy      =      -0.1381181902503665 [Eh]
	 SCS Opposite-Spin Energy  =      -1.4730659028729935 [Eh]
	 SCS Correlation Energy    =      -1.6111840931233601 [Eh]
	 SCS Total Energy          =    -414.2317667034432134 [Eh]
	-----------------------------------------------------------

  Dipole Moment: [D]
     X:    -1.1049      Y:     4.1554      Z:     0.0000     Total:     4.2998

*** Psi4 exiting successfully. Buy a developer a beer!
