                               Psi4 1.3.2 release

  ==> Input File <==

--------------------------------------------------------------------------
#psi4
#
memory 32 gb

molecule  {
0 1
  N       -0.0337150    -0.9783820    -0.0001030
  H       -0.0465630    -1.9952990     0.0000230
  C       -1.3936664    -0.3382841    -0.0002703
  O       -2.3237930    -1.0132930     0.0001830
  C       -1.2062280     1.1067970     0.0000000
  H       -2.1261180     1.6763830     0.0001840
  C        0.0030670     1.7105540     0.0000260
  H        0.1229620     2.7891690     0.0001530
  N        1.1742530     0.9863660    -0.0000120
  H        2.0766210     1.4468080     0.0000740
  C        1.2261220    -0.4021520    -0.0000880
  O        2.2745420    -1.0338450     0.0001200
units angstrom
no_reorient  #important for SAPT in psi4, default
symmetry c1  #important for SAPT in psi4, default
}

set PROPERTIES_ORIGIN ["COM"]
properties('MP2/aug-cc-pvtz', properties = ['dipole'])
--------------------------------------------------------------------------

    Molecular point group: c1
  Charge       = 0
  Multiplicity = 1
  Basis Set: AUG-CC-PVTZ
    Blend: AUG-CC-PVTZ
  Basis Set: (AUG-CC-PVTZ AUX)
    Blend: AUG-CC-PVTZ-JKFIT

    Orbital Energies [Eh]
    ---------------------

    Doubly Occupied:

       1A    -20.564407     2A    -20.538264     3A    -15.641145
       4A    -15.610438     5A    -11.411332     6A    -11.386942
       7A    -11.345842     8A    -11.258001     9A     -1.459322
      10A     -1.414724    11A     -1.302586    12A     -1.218715
      13A     -1.085845    14A     -0.928663    15A     -0.880376
      16A     -0.793424    17A     -0.759728    18A     -0.709635
      19A     -0.683653    20A     -0.657476    21A     -0.646349
      22A     -0.632939    23A     -0.599868    24A     -0.592625
      25A     -0.517782    26A     -0.484680    27A     -0.448352
      28A     -0.432841    29A     -0.370633

  @DF-RHF Final Energy:  -412.61211817044739

   => Energetics <=

    Nuclear Repulsion Energy =            354.8658080004472026
    One-Electron Energy =               -1266.2026843192338674
    Two-Electron Energy =                 498.7247581483392196
    Total Energy =                       -412.6121181704473884
  Basis Set: (AUG-CC-PVTZ AUX)
    Blend: AUG-CC-PVTZ-RI
    Molecular point group: c1

    Geometry (in Angstrom), charge = 0, multiplicity = 1:

       Center              X                  Y                   Z               Mass
    ------------   -----------------  -----------------  -----------------  -----------------
         N           -0.022663407557    -0.944807087344    -0.000100196234    14.003074004430
         H           -0.035511407557    -1.961724087344     0.000025803766     1.007825032230
         C           -1.382614807557    -0.304709187344    -0.000267496234    12.000000000000
         O           -2.312741407557    -0.979718087344     0.000185803766    15.994914619570
         C           -1.195176407557     1.140371912656     0.000002803766    12.000000000000
         H           -2.115066407557     1.709957912656     0.000186803766     1.007825032230
         C            0.014118592443     1.744128912656     0.000028803766    12.000000000000
         H            0.134013592443     2.822743912656     0.000155803766     1.007825032230
         N            1.185304592443     1.019940912656    -0.000009196234    14.003074004430
         H            2.087672592443     1.480382912656     0.000076803766     1.007825032230
         C            1.237173592443    -0.368577087344    -0.000085196234    12.000000000000
         O            2.285593592443    -1.000270087344     0.000122803766    15.994914619570

  Basis Set: AUG-CC-PVTZ
    Blend: AUG-CC-PVTZ
  Basis Set: (AUG-CC-PVTZ AUX)
    Blend: AUG-CC-PVTZ-JKFIT
	 Reference Energy          =    -412.6121181704473884 [Eh]
	 Singles Energy            =      -0.0000000000000000 [Eh]
	 Same-Spin Energy          =      -0.4135166608427170 [Eh]
	 Opposite-Spin Energy      =      -1.2260721122109026 [Eh]
	 Correlation Energy        =      -1.6395887730536196 [Eh]
	 Total Energy              =    -414.2517069435010058 [Eh]

	 ================> DF-SCS-MP2 Energies <==================
	-----------------------------------------------------------
	 SCS Same-Spin Scale       =       0.3333333333333333 [-]
	 SCS Opposite-Spin Scale   =       1.2000000000000000 [-]
	 SCS Same-Spin Energy      =      -0.1378388869475723 [Eh]
	 SCS Opposite-Spin Energy  =      -1.4712865346530830 [Eh]
	 SCS Correlation Energy    =      -1.6091254216006554 [Eh]
	 SCS Total Energy          =    -414.2212435920480402 [Eh]
	-----------------------------------------------------------

  Dipole Moment: [D]
     X:     0.2575      Y:     4.1512      Z:    -0.0005     Total:     4.1592

*** Psi4 exiting successfully. Buy a developer a beer!
