                               Psi4 1.3.2 release

  ==> Input File <==

--------------------------------------------------------------------------
#psi4
#
memory 32 gb

molecule  {
0 1
  N       -0.0337150    -0.9783820    -0.0001030
  H       -0.0465630    -1.9952990     0.0000230
  C       -1.2924060    -0.3478390    -0.0002800
  O       -2.3237930    -1.0132930     0.0001830
  C       -1.2165808     1.1279941     0.0000011
  H       -2.1261180     1.6763830     0.0001840
  C        0.0030670     1.7105540     0.0000260
  H        0.1229620     2.7891690     0.0001530
  N        1.1742530     0.9863660    -0.0000120
  H        2.0766210     1.4468080     0.0000740
  C        1.2261220    -0.4021520    -0.0000880
  O        2.2745420    -1.0338450     0.0001200
units angstrom
no_reorient  #important for SAPT in psi4, default
symmetry c1  #important for SAPT in psi4, default
}

set PROPERTIES_ORIGIN ["COM"]
properties('MP2/aug-cc-pvtz', properties = ['dipole'])
--------------------------------------------------------------------------

    Molecular point group: c1
  Charge       = 0
  Multiplicity = 1
  Basis Set: AUG-CC-PVTZ
    Blend: AUG-CC-PVTZ
  Basis Set: (AUG-CC-PVTZ AUX)
    Blend: AUG-CC-PVTZ-JKFIT

    Orbital Energies [Eh]
    ---------------------

    Doubly Occupied:

       1A    -20.549847     2A    -20.544959     3A    -15.647167
       4A    -15.631372     5A    -11.423301     6A    -11.386884
       7A    -11.343270     8A    -11.260126     9A     -1.431755
      10A     -1.394322    11A     -1.310187    12A     -1.243740
      13A     -1.087080    14A     -0.929780    15A     -0.900496
      16A     -0.807043    17A     -0.761201    18A     -0.712478
      19A     -0.676894    20A     -0.666296    21A     -0.654058
      22A     -0.617267    23A     -0.602481    24A     -0.568563
      25A     -0.524827    26A     -0.483852    27A     -0.450173
      28A     -0.437734    29A     -0.370577

  @DF-RHF Final Energy:  -412.62082112355455

   => Energetics <=

    Nuclear Repulsion Energy =            354.9687547232875886
    One-Electron Energy =               -1266.3436913745370020
    Two-Electron Energy =                 498.7541155276948643
    Total Energy =                       -412.6208211235545491
  Basis Set: (AUG-CC-PVTZ AUX)
    Blend: AUG-CC-PVTZ-RI
    Molecular point group: c1

    Geometry (in Angstrom), charge = 0, multiplicity = 1:

       Center              X                  Y                   Z               Mass
    ------------   -----------------  -----------------  -----------------  -----------------
         N           -0.032401135953    -0.946054162193    -0.000099275029    14.003074004430
         H           -0.045249135953    -1.962971162193     0.000026724971     1.007825032230
         C           -1.291092135953    -0.315511162193    -0.000276275029    12.000000000000
         O           -2.322479135953    -0.980965162193     0.000186724971    15.994914619570
         C           -1.215266935953     1.160321937807     0.000004824971    12.000000000000
         H           -2.124804135953     1.708710837807     0.000187724971     1.007825032230
         C            0.004380864047     1.742881837807     0.000029724971    12.000000000000
         H            0.124275864047     2.821496837807     0.000156724971     1.007825032230
         N            1.175566864047     1.018693837807    -0.000008275029    14.003074004430
         H            2.077934864047     1.479135837807     0.000077724971     1.007825032230
         C            1.227435864047    -0.369824162193    -0.000084275029    12.000000000000
         O            2.275855864047    -1.001517162193     0.000123724971    15.994914619570

  Basis Set: AUG-CC-PVTZ
    Blend: AUG-CC-PVTZ
  Basis Set: (AUG-CC-PVTZ AUX)
    Blend: AUG-CC-PVTZ-JKFIT
	 Reference Energy          =    -412.6208211235545491 [Eh]
	 Singles Energy            =      -0.0000000000000000 [Eh]
	 Same-Spin Energy          =      -0.4144190834600061 [Eh]
	 Opposite-Spin Energy      =      -1.2280853223690260 [Eh]
	 Correlation Energy        =      -1.6425044058290321 [Eh]
	 Total Energy              =    -414.2633255293835646 [Eh]

	 ================> DF-SCS-MP2 Energies <==================
	-----------------------------------------------------------
	 SCS Same-Spin Scale       =       0.3333333333333333 [-]
	 SCS Opposite-Spin Scale   =       1.2000000000000000 [-]
	 SCS Same-Spin Energy      =      -0.1381396944866687 [Eh]
	 SCS Opposite-Spin Energy  =      -1.4737023868428312 [Eh]
	 SCS Correlation Energy    =      -1.6118420813294998 [Eh]
	 SCS Total Energy          =    -414.2326632048840338 [Eh]
	-----------------------------------------------------------

  Dipole Moment: [D]
     X:     1.1474      Y:     4.1423      Z:    -0.0005     Total:     4.2983

*** Psi4 exiting successfully. Buy a developer a beer!
