                               Psi4 1.3.2 release

  ==> Input File <==

--------------------------------------------------------------------------
#psi4
#
memory 32 gb

molecule  {
0 1
  N       -0.0337150    -0.9783820    -0.0001030
  H       -0.0465630    -1.9952990     0.0000230
  C       -1.2924060    -0.3478390    -0.0002800
  O       -2.3237930    -1.0132930     0.0001830
  C       -1.2062280     1.1067970     0.0000000
  H       -2.1261180     1.6763830     0.0001840
  C        0.0030670     1.7105540     0.0000260
  H        0.1229620     2.7891690     0.0001530
  N        1.1742530     0.9863660    -0.0000120
  H        2.0766210     1.4468080     0.0000740
  C        1.2261220    -0.4021520    -0.0000880
  O        2.1888880    -0.9822369     0.0001030
units angstrom
no_reorient  #important for SAPT in psi4, default
symmetry c1  #important for SAPT in psi4, default
}

set PROPERTIES_ORIGIN ["COM"]
properties('MP2/aug-cc-pvtz', properties = ['dipole'])
--------------------------------------------------------------------------

    Molecular point group: c1
  Charge       = 0
  Multiplicity = 1
  Basis Set: AUG-CC-PVTZ
    Blend: AUG-CC-PVTZ
  Basis Set: (AUG-CC-PVTZ AUX)
    Blend: AUG-CC-PVTZ-JKFIT

    Orbital Energies [Eh]
    ---------------------

    Doubly Occupied:

       1A    -20.552455     2A    -20.537314     3A    -15.634976
       4A    -15.617923     5A    -11.403890     6A    -11.377814
       7A    -11.338045     8A    -11.252035     9A     -1.491720
      10A     -1.392288    11A     -1.312620    12A     -1.236879
      13A     -1.081035    14A     -0.926703    15A     -0.892611
      16A     -0.796859    17A     -0.765314    18A     -0.710095
      19A     -0.687035    20A     -0.679975    21A     -0.660198
      22A     -0.612958    23A     -0.598292    24A     -0.572714
      25A     -0.532193    26A     -0.493736    27A     -0.445443
      28A     -0.436594    29A     -0.364714

  @DF-RHF Final Energy:  -412.61638727410156

   => Energetics <=

    Nuclear Repulsion Energy =            359.0043107219660783
    One-Electron Energy =               -1274.4325375770813480
    Two-Electron Energy =                 502.8118395810137713
    Total Energy =                       -412.6163872741015552
  Basis Set: (AUG-CC-PVTZ AUX)
    Blend: AUG-CC-PVTZ-RI
    Molecular point group: c1

    Geometry (in Angstrom), charge = 0, multiplicity = 1:

       Center              X                  Y                   Z               Mass
    ------------   -----------------  -----------------  -----------------  -----------------
         N           -0.021280676311    -0.951152045195    -0.000096729993    14.003074004430
         H           -0.034128676311    -1.968069045195     0.000029270007     1.007825032230
         C           -1.279971676311    -0.320609045195    -0.000273729993    12.000000000000
         O           -2.311358676311    -0.986063045195     0.000189270007    15.994914619570
         C           -1.193793676311     1.134026954805     0.000006270007    12.000000000000
         H           -2.113683676311     1.703612954805     0.000190270007     1.007825032230
         C            0.015501323689     1.737783954805     0.000032270007    12.000000000000
         H            0.135396323689     2.816398954805     0.000159270007     1.007825032230
         N            1.186687323689     1.013595954805    -0.000005729993    14.003074004430
         H            2.089055323689     1.474037954805     0.000080270007     1.007825032230
         C            1.238556323689    -0.374922045195    -0.000081729993    12.000000000000
         O            2.201322323689    -0.955006945195     0.000109270007    15.994914619570

  Basis Set: AUG-CC-PVTZ
    Blend: AUG-CC-PVTZ
  Basis Set: (AUG-CC-PVTZ AUX)
    Blend: AUG-CC-PVTZ-JKFIT
	 Reference Energy          =    -412.6163872741015552 [Eh]
	 Singles Energy            =      -0.0000000000000000 [Eh]
	 Same-Spin Energy          =      -0.4121499891286937 [Eh]
	 Opposite-Spin Energy      =      -1.2222249849203246 [Eh]
	 Correlation Energy        =      -1.6343749740490183 [Eh]
	 Total Energy              =    -414.2507622481505791 [Eh]

	 ================> DF-SCS-MP2 Energies <==================
	-----------------------------------------------------------
	 SCS Same-Spin Scale       =       0.3333333333333333 [-]
	 SCS Opposite-Spin Scale   =       1.2000000000000000 [-]
	 SCS Same-Spin Energy      =      -0.1373833297095646 [Eh]
	 SCS Opposite-Spin Energy  =      -1.4666699819043896 [Eh]
	 SCS Correlation Energy    =      -1.6040533116139541 [Eh]
	 SCS Total Energy          =    -414.2204405857154939 [Eh]
	-----------------------------------------------------------

  Dipole Moment: [D]
     X:     1.8674      Y:     3.8083      Z:    -0.0005     Total:     4.2414

*** Psi4 exiting successfully. Buy a developer a beer!
