                               Psi4 1.3.2 release

  ==> Input File <==

--------------------------------------------------------------------------
#psi4
#
memory 32 gb

molecule  {
0 1
  N       -0.0337150    -0.9783820    -0.0001030
  H       -0.0465630    -1.9952990     0.0000230
  C       -1.2924060    -0.3478390    -0.0002800
  O       -2.3237930    -1.0132930     0.0001830
  C       -1.2062280     1.1067970     0.0000000
  H       -2.2111391     1.7290272     0.0002010
  C        0.0030670     1.7105540     0.0000260
  H        0.1229620     2.7891690     0.0001530
  N        1.1742530     0.9863660    -0.0000120
  H        2.0766210     1.4468080     0.0000740
  C        1.2261220    -0.4021520    -0.0000880
  O        2.2745420    -1.0338450     0.0001200
units angstrom
no_reorient  #important for SAPT in psi4, default
symmetry c1  #important for SAPT in psi4, default
}

set PROPERTIES_ORIGIN ["COM"]
properties('MP2/aug-cc-pvtz', properties = ['dipole'])
--------------------------------------------------------------------------

    Molecular point group: c1
  Charge       = 0
  Multiplicity = 1
  Basis Set: AUG-CC-PVTZ
    Blend: AUG-CC-PVTZ
  Basis Set: (AUG-CC-PVTZ AUX)
    Blend: AUG-CC-PVTZ-JKFIT

    Orbital Energies [Eh]
    ---------------------

    Doubly Occupied:

       1A    -20.549712     2A    -20.544180     3A    -15.647533
       4A    -15.631317     5A    -11.423361     6A    -11.386051
       7A    -11.344896     8A    -11.269903     9A     -1.431956
      10A     -1.394142    11A     -1.310958    12A     -1.244009
      13A     -1.085643    14A     -0.931413    15A     -0.901148
      16A     -0.797234    17A     -0.763332    18A     -0.713505
      19A     -0.677108    20A     -0.666963    21A     -0.648601
      22A     -0.613344    23A     -0.583199    24A     -0.569107
      25A     -0.525254    26A     -0.484443    27A     -0.450932
      28A     -0.437622    29A     -0.370639

  @DF-RHF Final Energy:  -412.61346948175941

   => Energetics <=

    Nuclear Repulsion Energy =            354.8818400453220079
    One-Electron Energy =               -1266.1956032856921865
    Two-Electron Energy =                 498.7002937586108260
    Total Energy =                       -412.6134694817594095
  Basis Set: (AUG-CC-PVTZ AUX)
    Blend: AUG-CC-PVTZ-RI
    Molecular point group: c1

    Geometry (in Angstrom), charge = 0, multiplicity = 1:

       Center              X                  Y                   Z               Mass
    ------------   -----------------  -----------------  -----------------  -----------------
         N           -0.032745223643    -0.944257197541    -0.000099310137    14.003074004430
         H           -0.045593223643    -1.961174197541     0.000026689863     1.007825032230
         C           -1.291436223643    -0.313714197541    -0.000276310137    12.000000000000
         O           -2.322823223643    -0.979168197541     0.000186689863    15.994914619570
         C           -1.205258223643     1.140921802459     0.000003689863    12.000000000000
         H           -2.210169323643     1.763152002459     0.000204689863     1.007825032230
         C            0.004036776357     1.744678802459     0.000029689863    12.000000000000
         H            0.123931776357     2.823293802459     0.000156689863     1.007825032230
         N            1.175222776357     1.020490802459    -0.000008310137    14.003074004430
         H            2.077590776357     1.480932802459     0.000077689863     1.007825032230
         C            1.227091776357    -0.368027197541    -0.000084310137    12.000000000000
         O            2.275511776357    -0.999720197541     0.000123689863    15.994914619570

  Basis Set: AUG-CC-PVTZ
    Blend: AUG-CC-PVTZ
  Basis Set: (AUG-CC-PVTZ AUX)
    Blend: AUG-CC-PVTZ-JKFIT
	 Reference Energy          =    -412.6134694817594095 [Eh]
	 Singles Energy            =      -0.0000000000000000 [Eh]
	 Same-Spin Energy          =      -0.4149413405993986 [Eh]
	 Opposite-Spin Energy      =      -1.2291535730956555 [Eh]
	 Correlation Energy        =      -1.6440949136950542 [Eh]
	 Total Energy              =    -414.2575643954544375 [Eh]

	 ================> DF-SCS-MP2 Energies <==================
	-----------------------------------------------------------
	 SCS Same-Spin Scale       =       0.3333333333333333 [-]
	 SCS Opposite-Spin Scale   =       1.2000000000000000 [-]
	 SCS Same-Spin Energy      =      -0.1383137801997995 [Eh]
	 SCS Opposite-Spin Energy  =      -1.4749842877147865 [Eh]
	 SCS Correlation Energy    =      -1.6132980679145861 [Eh]
	 SCS Total Energy          =    -414.2267675496739798 [Eh]
	-----------------------------------------------------------

  Dipole Moment: [D]
     X:     1.1498      Y:     4.1893      Z:    -0.0005     Total:     4.3442

*** Psi4 exiting successfully. Buy a developer a beer!
