                               Psi4 1.3.2 release

  ==> Input File <==

--------------------------------------------------------------------------
#psi4
#
memory 32 gb

molecule  {
0 1
  N       -0.0337150    -0.9783820    -0.0001030
  H       -0.0465630    -1.9952990     0.0000230
  C       -1.2924060    -0.3478390    -0.0002800
  O       -2.4078211    -1.0675082     0.0002207
  C       -1.2062280     1.1067970     0.0000000
  H       -2.1261180     1.6763830     0.0001840
  C        0.0030670     1.7105540     0.0000260
  H        0.1229620     2.7891690     0.0001530
  N        1.1742530     0.9863660    -0.0000120
  H        2.0766210     1.4468080     0.0000740
  C        1.2261220    -0.4021520    -0.0000880
  O        2.2745420    -1.0338450     0.0001200
units angstrom
no_reorient  #important for SAPT in psi4, default
symmetry c1  #important for SAPT in psi4, default
}

set PROPERTIES_ORIGIN ["COM"]
properties('MP2/aug-cc-pvtz', properties = ['dipole'])
--------------------------------------------------------------------------

    Molecular point group: c1
  Charge       = 0
  Multiplicity = 1
  Basis Set: AUG-CC-PVTZ
    Blend: AUG-CC-PVTZ
  Basis Set: (AUG-CC-PVTZ AUX)
    Blend: AUG-CC-PVTZ-JKFIT

    Orbital Energies [Eh]
    ---------------------

    Doubly Occupied:

       1A    -20.555728     2A    -20.540686     3A    -15.654949
       4A    -15.642620     5A    -11.430047     6A    -11.401037
       7A    -11.352456     8A    -11.267677     9A     -1.436064
      10A     -1.347384    11A     -1.309188    12A     -1.244203
      13A     -1.095291    14A     -0.938825    15A     -0.910164
      16A     -0.811112    17A     -0.763901    18A     -0.720168
      19A     -0.674946    20A     -0.670328    21A     -0.655946
      22A     -0.602556    23A     -0.590220    24A     -0.550343
      25A     -0.530429    26A     -0.486909    27A     -0.445244
      28A     -0.431922    29A     -0.373836

  @DF-RHF Final Energy:  -412.59793669211734

   => Energetics <=

    Nuclear Repulsion Energy =            352.1940916661845904
    One-Electron Energy =               -1260.7156985385831831
    Two-Electron Energy =                 495.9236701802812490
    Total Energy =                       -412.5979366921173437
  Basis Set: (AUG-CC-PVTZ AUX)
    Blend: AUG-CC-PVTZ-RI
    Molecular point group: c1

    Geometry (in Angstrom), charge = 0, multiplicity = 1:

       Center              X                  Y                   Z               Mass
    ------------   -----------------  -----------------  -----------------  -----------------
         N           -0.021512817378    -0.936042915634    -0.000104539893    14.003074004430
         H           -0.034360817378    -1.952959915634     0.000021460107     1.007825032230
         C           -1.280203817378    -0.305499915634    -0.000281539893    12.000000000000
         O           -2.395618917378    -1.025169115634     0.000219160107    15.994914619570
         C           -1.194025817378     1.149136084366    -0.000001539893    12.000000000000
         H           -2.113915817378     1.718722084366     0.000182460107     1.007825032230
         C            0.015269182622     1.752893084366     0.000024460107    12.000000000000
         H            0.135164182622     2.831508084366     0.000151460107     1.007825032230
         N            1.186455182622     1.028705084366    -0.000013539893    14.003074004430
         H            2.088823182622     1.489147084366     0.000072460107     1.007825032230
         C            1.238324182622    -0.359812915634    -0.000089539893    12.000000000000
         O            2.286744182622    -0.991505915634     0.000118460107    15.994914619570

  Basis Set: AUG-CC-PVTZ
    Blend: AUG-CC-PVTZ
  Basis Set: (AUG-CC-PVTZ AUX)
    Blend: AUG-CC-PVTZ-JKFIT
	 Reference Energy          =    -412.5979366921173437 [Eh]
	 Singles Energy            =      -0.0000000000000000 [Eh]
	 Same-Spin Energy          =      -0.4174550291706549 [Eh]
	 Opposite-Spin Energy      =      -1.2345883037860794 [Eh]
	 Correlation Energy        =      -1.6520433329567343 [Eh]
	 Total Energy              =    -414.2499800250740805 [Eh]

	 ================> DF-SCS-MP2 Energies <==================
	-----------------------------------------------------------
	 SCS Same-Spin Scale       =       0.3333333333333333 [-]
	 SCS Opposite-Spin Scale   =       1.2000000000000000 [-]
	 SCS Same-Spin Energy      =      -0.1391516763902183 [Eh]
	 SCS Opposite-Spin Energy  =      -1.4815059645432953 [Eh]
	 SCS Correlation Energy    =      -1.6206576409335136 [Eh]
	 SCS Total Energy          =    -414.2185943330508735 [Eh]
	-----------------------------------------------------------

  Dipole Moment: [D]
     X:     1.7275      Y:     4.4740      Z:    -0.0005     Total:     4.7960

*** Psi4 exiting successfully. Buy a developer a beer!
