                               Psi4 1.4a3.dev225

  ==> Input File <==

--------------------------------------------------------------------------
#psi4
#
memory 32 gb

molecule  {
0 1
  N        0.0336940    -0.9783750    -0.0000010
  H        0.0471450    -1.9953050    -0.0000010
  C        1.2925930    -0.3474800     0.0000000
  O        2.3237090    -1.0134020     0.0000010
  C        1.2062870     1.1068390     0.0000000
  H        2.1256600     1.6771670     0.0000010
  C       -0.0033680     1.7103630     0.0000000
  H       -0.1227300     2.7890550     0.0000000
  N       -1.1742180     0.9864080    -0.0000010
  H       -2.0588040     1.4376370     0.0000010
  C       -1.2259650    -0.4025210     0.0000010
  O       -2.2745920    -1.0337330     0.0000010
units angstrom
no_reorient  #important for SAPT in psi4, default
symmetry c1  #important for SAPT in psi4, default
}

set PROPERTIES_ORIGIN ["COM"]
properties('MP2/aug-cc-pvtz', properties = ['dipole'])
--------------------------------------------------------------------------

    Molecular point group: c1
  Charge       = 0
  Multiplicity = 1
  Basis Set: AUG-CC-PVTZ
    Blend: AUG-CC-PVTZ
  Basis Set: (AUG-CC-PVTZ AUX)
    Blend: AUG-CC-PVTZ-JKFIT

    Orbital Energies [Eh]
    ---------------------

    Doubly Occupied:

       1A    -20.549785     2A    -20.544329     3A    -15.645677
       4A    -15.630875     5A    -11.423308     6A    -11.385487
       7A    -11.344757     8A    -11.259912     9A     -1.432214
      10A     -1.394289    11A     -1.312066    12A     -1.244664
      13A     -1.089204    14A     -0.932529    15A     -0.902822
      16A     -0.808014    17A     -0.763608    18A     -0.713943
      19A     -0.678208    20A     -0.666922    21A     -0.652944
      22A     -0.615462    23A     -0.601019    24A     -0.569140
      25A     -0.525394    26A     -0.484525    27A     -0.450902
      28A     -0.437551    29A     -0.370782

  @DF-RHF Final Energy:  -412.62141453841707

   => Energetics <=

    Nuclear Repulsion Energy =            355.4989552656751357
    One-Electron Energy =               -1267.3800783710155429
    Two-Electron Energy =                 499.2597085669233365
    Total Energy =                       -412.6214145384170706
  Basis Set: (AUG-CC-PVTZ AUX)
    Blend: AUG-CC-PVTZ-RI
    Molecular point group: c1

    Geometry (in Angstrom), charge = 0, multiplicity = 1:

       Center              X                  Y                   Z               Mass
    ------------   -----------------  -----------------  -----------------  -----------------
         N            0.033332061892    -0.943689587873    -0.000001151673    14.003074004430
         H            0.046783061892    -1.960619587873    -0.000001151673     1.007825032230
         C            1.292231061892    -0.312794587873    -0.000000151673    12.000000000000
         O            2.323347061892    -0.978716587873     0.000000848327    15.994914619570
         C            1.205925061892     1.141524412127    -0.000000151673    12.000000000000
         H            2.125298061892     1.711852412127     0.000000848327     1.007825032230
         C           -0.003729938108     1.745048412127    -0.000000151673    12.000000000000
         H           -0.123091938108     2.823740412127    -0.000000151673     1.007825032230
         N           -1.174579938108     1.021093412127    -0.000001151673    14.003074004430
         H           -2.059165938108     1.472322412127     0.000000848327     1.007825032230
         C           -1.226326938108    -0.367835587873     0.000000848327    12.000000000000
         O           -2.274953938108    -0.999047587873     0.000000848327    15.994914619570

  Basis Set: AUG-CC-PVTZ
    Blend: AUG-CC-PVTZ
  Basis Set: (AUG-CC-PVTZ AUX)
    Blend: AUG-CC-PVTZ-JKFIT
	 Reference Energy          =    -412.6214145384170706 [Eh]
	 Singles Energy            =      -0.0000000000000000 [Eh]
	 Same-Spin Energy          =      -0.4145769524755560 [Eh]
	 Opposite-Spin Energy      =      -1.2280175944038560 [Eh]
	 Correlation Energy        =      -1.6425945468794121 [Eh]
	 Total Energy              =    -414.2640090852964931 [Eh]

	 ================> DF-SCS-MP2 Energies <==================
	-----------------------------------------------------------
	 SCS Same-Spin Scale       =       0.3333333333333333 [-]
	 SCS Opposite-Spin Scale   =       1.2000000000000000 [-]
	 SCS Same-Spin Energy      =      -0.1381923174918520 [Eh]
	 SCS Opposite-Spin Energy  =      -1.4736211132846273 [Eh]
	 SCS Correlation Energy    =      -1.6118134307764793 [Eh]
	 SCS Total Energy          =    -414.2332279691935355 [Eh]
	-----------------------------------------------------------

  Dipole Moment: [D]
     X:    -1.1449      Y:     4.1772      Z:     0.0000     Total:     4.3313

*** Psi4 exiting successfully. Buy a developer a beer!
