                               Psi4 1.3.2 release

  ==> Input File <==

--------------------------------------------------------------------------
#psi4
#
memory 32 gb

molecule  {
0 1
  N       -0.0337150    -0.9783820    -0.0001030
  H       -0.0465630    -1.9952990     0.0000230
  C       -1.2924060    -0.3478390    -0.0002800
  O       -2.3237930    -1.0132930     0.0001830
  C       -1.2062280     1.1067970     0.0000000
  H       -2.1261180     1.6763830     0.0001840
  C        0.0030670     1.7105540     0.0000260
  H        0.1229620     2.7891690     0.0001530
  N        1.1742530     0.9863660    -0.0000120
  H        2.2547694     1.5377099     0.0000910
  C        1.2261220    -0.4021520    -0.0000880
  O        2.2745420    -1.0338450     0.0001200
units angstrom
no_reorient  #important for SAPT in psi4, default
symmetry c1  #important for SAPT in psi4, default
}

set PROPERTIES_ORIGIN ["COM"]
properties('MP2/aug-cc-pvtz', properties = ['dipole'])
--------------------------------------------------------------------------

    Molecular point group: c1
  Charge       = 0
  Multiplicity = 1
  Basis Set: AUG-CC-PVTZ
    Blend: AUG-CC-PVTZ
  Basis Set: (AUG-CC-PVTZ AUX)
    Blend: AUG-CC-PVTZ-JKFIT

    Orbital Energies [Eh]
    ---------------------

    Doubly Occupied:

       1A    -20.547359     2A    -20.542362     3A    -15.659588
       4A    -15.629867     5A    -11.421651     6A    -11.383686
       7A    -11.343344     8A    -11.257753     9A     -1.428144
      10A     -1.392247    11A     -1.301680    12A     -1.235561
      13A     -1.082189    14A     -0.929756    15A     -0.889495
      16A     -0.780488    17A     -0.756790    18A     -0.708724
      19A     -0.664529    20A     -0.664201    21A     -0.645748
      22A     -0.601972    23A     -0.598946    24A     -0.566779
      25A     -0.521999    26A     -0.482637    27A     -0.449029
      28A     -0.436137    29A     -0.367517

  @DF-RHF Final Energy:  -412.59081892422620

   => Energetics <=

    Nuclear Repulsion Energy =            354.2786993657263679
    One-Electron Energy =               -1265.1586834847998944
    Two-Electron Energy =                 498.2891651948472713
    Total Energy =                       -412.5908189242261983
  Basis Set: (AUG-CC-PVTZ AUX)
    Blend: AUG-CC-PVTZ-RI
    Molecular point group: c1

    Geometry (in Angstrom), charge = 0, multiplicity = 1:

       Center              X                  Y                   Z               Mass
    ------------   -----------------  -----------------  -----------------  -----------------
         N           -0.035112761408    -0.944601373251    -0.000099310137    14.003074004430
         H           -0.047960761408    -1.961518373251     0.000026689863     1.007825032230
         C           -1.293803761408    -0.314058373251    -0.000276310137    12.000000000000
         O           -2.325190761408    -0.979512373251     0.000186689863    15.994914619570
         C           -1.207625761408     1.140577626749     0.000003689863    12.000000000000
         H           -2.127515761408     1.710163626749     0.000187689863     1.007825032230
         C            0.001669238592     1.744334626749     0.000029689863    12.000000000000
         H            0.121564238592     2.822949626749     0.000156689863     1.007825032230
         N            1.172855238592     1.020146626749    -0.000008310137    14.003074004430
         H            2.253371638592     1.571490526749     0.000094689863     1.007825032230
         C            1.224724238592    -0.368371373251    -0.000084310137    12.000000000000
         O            2.273144238592    -1.000064373251     0.000123689863    15.994914619570

  Basis Set: AUG-CC-PVTZ
    Blend: AUG-CC-PVTZ
  Basis Set: (AUG-CC-PVTZ AUX)
    Blend: AUG-CC-PVTZ-JKFIT
	 Reference Energy          =    -412.5908189242261983 [Eh]
	 Singles Energy            =      -0.0000000000000000 [Eh]
	 Same-Spin Energy          =      -0.4163617604655162 [Eh]
	 Opposite-Spin Energy      =      -1.2323778881723371 [Eh]
	 Correlation Energy        =      -1.6487396486378532 [Eh]
	 Total Energy              =    -414.2395585728640413 [Eh]

	 ================> DF-SCS-MP2 Energies <==================
	-----------------------------------------------------------
	 SCS Same-Spin Scale       =       0.3333333333333333 [-]
	 SCS Opposite-Spin Scale   =       1.2000000000000000 [-]
	 SCS Same-Spin Energy      =      -0.1387872534885054 [Eh]
	 SCS Opposite-Spin Energy  =      -1.4788534658068044 [Eh]
	 SCS Correlation Energy    =      -1.6176407192953097 [Eh]
	 SCS Total Energy          =    -414.2084596435215076 [Eh]
	-----------------------------------------------------------

  Dipole Moment: [D]
     X:     1.4441      Y:     4.3377      Z:    -0.0005     Total:     4.5717

*** Psi4 exiting successfully. Buy a developer a beer!
