                               Psi4 1.3.2 release

  ==> Input File <==

--------------------------------------------------------------------------
#psi4
#
memory 32 gb

molecule  {
0 1
  N       -0.0807656    -1.0646479    -0.0001293
  H       -0.0465630    -1.9952990     0.0000230
  C       -1.2924060    -0.3478390    -0.0002800
  O       -2.3237930    -1.0132930     0.0001830
  C       -1.2062280     1.1067970     0.0000000
  H       -2.1261180     1.6763830     0.0001840
  C        0.0030670     1.7105540     0.0000260
  H        0.1229620     2.7891690     0.0001530
  N        1.1742530     0.9863660    -0.0000120
  H        2.0766210     1.4468080     0.0000740
  C        1.2261220    -0.4021520    -0.0000880
  O        2.2745420    -1.0338450     0.0001200
units angstrom
no_reorient  #important for SAPT in psi4, default
symmetry c1  #important for SAPT in psi4, default
}

set PROPERTIES_ORIGIN ["COM"]
properties('MP2/aug-cc-pvtz', properties = ['dipole'])
--------------------------------------------------------------------------

    Molecular point group: c1
  Charge       = 0
  Multiplicity = 1
  Basis Set: AUG-CC-PVTZ
    Blend: AUG-CC-PVTZ
  Basis Set: (AUG-CC-PVTZ AUX)
    Blend: AUG-CC-PVTZ-JKFIT

    Orbital Energies [Eh]
    ---------------------

    Doubly Occupied:

       1A    -20.556312     2A    -20.536345     3A    -15.652251
       4A    -15.622062     5A    -11.430171     6A    -11.380905
       7A    -11.346214     8A    -11.262861     9A     -1.429274
      10A     -1.391955    11A     -1.309504    12A     -1.237393
      13A     -1.088590    14A     -0.939969    15A     -0.880053
      16A     -0.816515    17A     -0.759655    18A     -0.729092
      19A     -0.676484    20A     -0.659369    21A     -0.654023
      22A     -0.610152    23A     -0.608948    24A     -0.569334
      25A     -0.524732    26A     -0.486238    27A     -0.444242
      28A     -0.432506    29A     -0.372023

  @DF-RHF Final Energy:  -412.60819770831586

   => Energetics <=

    Nuclear Repulsion Energy =            353.8571843695135044
    One-Electron Energy =               -1264.1164231929487869
    Two-Electron Energy =                 497.6510411151193694
    Total Energy =                       -412.6081977083158563
  Basis Set: (AUG-CC-PVTZ AUX)
    Blend: AUG-CC-PVTZ-RI
    Molecular point group: c1

    Geometry (in Angstrom), charge = 0, multiplicity = 1:

       Center              X                  Y                   Z               Mass
    ------------   -----------------  -----------------  -----------------  -----------------
         N           -0.074679510417    -1.019266518306    -0.000122169780    14.003074004430
         H           -0.040476910417    -1.949917618306     0.000030130220     1.007825032230
         C           -1.286319910417    -0.302457618306    -0.000272869780    12.000000000000
         O           -2.317706910417    -0.967911618306     0.000190130220    15.994914619570
         C           -1.200141910417     1.152178381694     0.000007130220    12.000000000000
         H           -2.120031910417     1.721764381694     0.000191130220     1.007825032230
         C            0.009153089583     1.755935381694     0.000033130220    12.000000000000
         H            0.129048089583     2.834550381694     0.000160130220     1.007825032230
         N            1.180339089583     1.031747381694    -0.000004869780    14.003074004430
         H            2.082707089583     1.492189381694     0.000081130220     1.007825032230
         C            1.232208089583    -0.356770618306    -0.000080869780    12.000000000000
         O            2.280628089583    -0.988463618306     0.000127130220    15.994914619570

  Basis Set: AUG-CC-PVTZ
    Blend: AUG-CC-PVTZ
  Basis Set: (AUG-CC-PVTZ AUX)
    Blend: AUG-CC-PVTZ-JKFIT
	 Reference Energy          =    -412.6081977083158563 [Eh]
	 Singles Energy            =      -0.0000000000000000 [Eh]
	 Same-Spin Energy          =      -0.4137270100460749 [Eh]
	 Opposite-Spin Energy      =      -1.2280222870990345 [Eh]
	 Correlation Energy        =      -1.6417492971451093 [Eh]
	 Total Energy              =    -414.2499470054609674 [Eh]

	 ================> DF-SCS-MP2 Energies <==================
	-----------------------------------------------------------
	 SCS Same-Spin Scale       =       0.3333333333333333 [-]
	 SCS Opposite-Spin Scale   =       1.2000000000000000 [-]
	 SCS Same-Spin Energy      =      -0.1379090033486916 [Eh]
	 SCS Opposite-Spin Energy  =      -1.4736267445188413 [Eh]
	 SCS Correlation Energy    =      -1.6115357478675330 [Eh]
	 SCS Total Energy          =    -414.2197334561834055 [Eh]
	-----------------------------------------------------------

  Dipole Moment: [D]
     X:     1.4625      Y:     4.3519      Z:    -0.0005     Total:     4.5911

*** Psi4 exiting successfully. Buy a developer a beer!
