                               Psi4 1.4a3.dev225

  ==> Input File <==

--------------------------------------------------------------------------
#psi4
#
memory 32 gb

molecule  {
0 1
  N        0.0336940    -0.9783750    -0.0000010
  H        0.0471450    -1.9953050    -0.0000010
  C        1.2925930    -0.3474800     0.0000000
  O        2.3237090    -1.0134020     0.0000010
  C        1.2062870     1.1068390     0.0000000
  H        2.0831714     1.6508094     0.0000010
  C       -0.0033680     1.7103630     0.0000000
  H       -0.1227300     2.7890550     0.0000000
  N       -1.1742180     0.9864080    -0.0000010
  H       -2.0766200     1.4467250     0.0000010
  C       -1.2259650    -0.4025210     0.0000010
  O       -2.2745920    -1.0337330     0.0000010
units angstrom
no_reorient  #important for SAPT in psi4, default
symmetry c1  #important for SAPT in psi4, default
}

set PROPERTIES_ORIGIN ["COM"]
properties('MP2/aug-cc-pvtz', properties = ['dipole'])
--------------------------------------------------------------------------

    Molecular point group: c1
  Charge       = 0
  Multiplicity = 1
  Basis Set: AUG-CC-PVTZ
    Blend: AUG-CC-PVTZ
  Basis Set: (AUG-CC-PVTZ AUX)
    Blend: AUG-CC-PVTZ-JKFIT

    Orbital Energies [Eh]
    ---------------------

    Doubly Occupied:

       1A    -20.549524     2A    -20.544145     3A    -15.647229
       4A    -15.630545     5A    -11.423087     6A    -11.385007
       7A    -11.344571     8A    -11.254306     9A     -1.431701
      10A     -1.394099    11A     -1.310671    12A     -1.243556
      13A     -1.090343    14A     -0.932956    15A     -0.901108
      16A     -0.809824    17A     -0.763049    18A     -0.713536
      19A     -0.676899    20A     -0.666554    21A     -0.655675
      22A     -0.617061    23A     -0.606355    24A     -0.568859
      25A     -0.525004    26A     -0.484332    27A     -0.450639
      28A     -0.437345    29A     -0.370494

  @DF-RHF Final Energy:  -412.62012585566549

   => Energetics <=

    Nuclear Repulsion Energy =            355.6409526602325855
    One-Electron Energy =               -1267.6652112576855416
    Two-Electron Energy =                 499.4041327417874072
    Total Energy =                       -412.6201258556654921
  Basis Set: (AUG-CC-PVTZ AUX)
    Blend: AUG-CC-PVTZ-RI
    Molecular point group: c1

    Geometry (in Angstrom), charge = 0, multiplicity = 1:

       Center              X                  Y                   Z               Mass
    ------------   -----------------  -----------------  -----------------  -----------------
         N            0.033874576955    -0.943534226290    -0.000001151673    14.003074004430
         H            0.047325576955    -1.960464226290    -0.000001151673     1.007825032230
         C            1.292773576955    -0.312639226290    -0.000000151673    12.000000000000
         O            2.323889576955    -0.978561226290     0.000000848327    15.994914619570
         C            1.206467576955     1.141679773710    -0.000000151673    12.000000000000
         H            2.083351976955     1.685650173710     0.000000848327     1.007825032230
         C           -0.003187423045     1.745203773710    -0.000000151673    12.000000000000
         H           -0.122549423045     2.823895773710    -0.000000151673     1.007825032230
         N           -1.174037423045     1.021248773710    -0.000001151673    14.003074004430
         H           -2.076439423045     1.481565773710     0.000000848327     1.007825032230
         C           -1.225784423045    -0.367680226290     0.000000848327    12.000000000000
         O           -2.274411423045    -0.998892226290     0.000000848327    15.994914619570

  Basis Set: AUG-CC-PVTZ
    Blend: AUG-CC-PVTZ
  Basis Set: (AUG-CC-PVTZ AUX)
    Blend: AUG-CC-PVTZ-JKFIT
	 Reference Energy          =    -412.6201258556654921 [Eh]
	 Singles Energy            =      -0.0000000000000000 [Eh]
	 Same-Spin Energy          =      -0.4146450346955961 [Eh]
	 Opposite-Spin Energy      =      -1.2281070092558359 [Eh]
	 Correlation Energy        =      -1.6427520439514320 [Eh]
	 Total Energy              =    -414.2628778996169103 [Eh]

	 ================> DF-SCS-MP2 Energies <==================
	-----------------------------------------------------------
	 SCS Same-Spin Scale       =       0.3333333333333333 [-]
	 SCS Opposite-Spin Scale   =       1.2000000000000000 [-]
	 SCS Same-Spin Energy      =      -0.1382150115651987 [Eh]
	 SCS Opposite-Spin Energy  =      -1.4737284111070030 [Eh]
	 SCS Correlation Energy    =      -1.6119434226722018 [Eh]
	 SCS Total Energy          =    -414.2320692783376899 [Eh]
	-----------------------------------------------------------

  Dipole Moment: [D]
     X:    -1.1848      Y:     4.1918      Z:     0.0000     Total:     4.3560

*** Psi4 exiting successfully. Buy a developer a beer!
