                               Psi4 1.4a3.dev225

  ==> Input File <==

--------------------------------------------------------------------------
#psi4
#
memory 32 gb

molecule  {
0 1
  N        0.0336940    -0.9783750    -0.0000010
  H        0.0471450    -1.9953050    -0.0000010
  C        1.2925930    -0.3474800     0.0000000
  O        2.3237090    -1.0134020     0.0000010
  C        1.2062870     1.1068390     0.0000000
  H        2.1256600     1.6771670     0.0000010
  C       -0.0033680     1.7103630     0.0000000
  H       -0.1227300     2.7890550     0.0000000
  N       -1.1742180     0.9864080    -0.0000010
  H       -2.0766200     1.4467250     0.0000010
  C       -1.2259650    -0.4025210     0.0000010
  O       -2.2574568    -1.0234186     0.0000010
units angstrom
no_reorient  #important for SAPT in psi4, default
symmetry c1  #important for SAPT in psi4, default
}

set PROPERTIES_ORIGIN ["COM"]
properties('MP2/aug-cc-pvtz', properties = ['dipole'])
--------------------------------------------------------------------------

    Molecular point group: c1
  Charge       = 0
  Multiplicity = 1
  Basis Set: AUG-CC-PVTZ
    Blend: AUG-CC-PVTZ
  Basis Set: (AUG-CC-PVTZ AUX)
    Blend: AUG-CC-PVTZ-JKFIT

    Orbital Energies [Eh]
    ---------------------

    Doubly Occupied:

       1A    -20.550237     2A    -20.542812     3A    -15.644913
       4A    -15.628289     5A    -11.419552     6A    -11.383870
       7A    -11.343360     8A    -11.258177     9A     -1.441153
      10A     -1.394660    11A     -1.312049    12A     -1.242363
      13A     -1.086956    14A     -0.931047    15A     -0.899411
      16A     -0.803347    17A     -0.763199    18A     -0.712394
      19A     -0.677618    20A     -0.668299    21A     -0.655522
      22A     -0.614311    23A     -0.600509    24A     -0.569232
      25A     -0.527008    26A     -0.486500    27A     -0.449859
      28A     -0.437536    29A     -0.369347

  @DF-RHF Final Energy:  -412.62288540721977

   => Energetics <=

    Nuclear Repulsion Energy =            356.0686791835689178
    One-Electron Energy =               -1268.5560665556440654
    Two-Electron Energy =                 499.8645019648553216
    Total Energy =                       -412.6228854072197691
  Basis Set: (AUG-CC-PVTZ AUX)
    Blend: AUG-CC-PVTZ-RI
    Molecular point group: c1

    Geometry (in Angstrom), charge = 0, multiplicity = 1:

       Center              X                  Y                   Z               Mass
    ------------   -----------------  -----------------  -----------------  -----------------
         N            0.031045827180    -0.945244004488    -0.000001151673    14.003074004430
         H            0.044496827180    -1.962174004488    -0.000001151673     1.007825032230
         C            1.289944827180    -0.314349004488    -0.000000151673    12.000000000000
         O            2.321060827180    -0.980271004488     0.000000848327    15.994914619570
         C            1.203638827180     1.139969995512    -0.000000151673    12.000000000000
         H            2.123011827180     1.710297995512     0.000000848327     1.007825032230
         C           -0.006016172820     1.743493995512    -0.000000151673    12.000000000000
         H           -0.125378172820     2.822185995512    -0.000000151673     1.007825032230
         N           -1.176866172820     1.019538995512    -0.000001151673    14.003074004430
         H           -2.079268172820     1.479855995512     0.000000848327     1.007825032230
         C           -1.228613172820    -0.369390004488     0.000000848327    12.000000000000
         O           -2.260104972820    -0.990287604488     0.000000848327    15.994914619570

  Basis Set: AUG-CC-PVTZ
    Blend: AUG-CC-PVTZ
  Basis Set: (AUG-CC-PVTZ AUX)
    Blend: AUG-CC-PVTZ-JKFIT
	 Reference Energy          =    -412.6228854072197691 [Eh]
	 Singles Energy            =      -0.0000000000000000 [Eh]
	 Same-Spin Energy          =      -0.4142161253836123 [Eh]
	 Opposite-Spin Energy      =      -1.2271289809890127 [Eh]
	 Correlation Energy        =      -1.6413451063726250 [Eh]
	 Total Energy              =    -414.2642305135923948 [Eh]

	 ================> DF-SCS-MP2 Energies <==================
	-----------------------------------------------------------
	 SCS Same-Spin Scale       =       0.3333333333333333 [-]
	 SCS Opposite-Spin Scale   =       1.2000000000000000 [-]
	 SCS Same-Spin Energy      =      -0.1380720417945374 [Eh]
	 SCS Opposite-Spin Energy  =      -1.4725547771868153 [Eh]
	 SCS Correlation Energy    =      -1.6106268189813526 [Eh]
	 SCS Total Energy          =    -414.2335122262011282 [Eh]
	-----------------------------------------------------------

  Dipole Moment: [D]
     X:    -1.3059      Y:     4.1176      Z:     0.0000     Total:     4.3197

*** Psi4 exiting successfully. Buy a developer a beer!
