                               Psi4 1.3.2 release

  ==> Input File <==

--------------------------------------------------------------------------
#psi4
#
memory 32 gb

molecule  {
0 1
  N       -0.0337150    -0.9783820    -0.0001030
  H       -0.0465630    -1.9952990     0.0000230
  C       -1.2924060    -0.3478390    -0.0002800
  O       -2.3237930    -1.0132930     0.0001830
  C       -1.2062280     1.1067970     0.0000000
  H       -2.1261180     1.6763830     0.0001840
  C        0.0030670     1.7105540     0.0000260
  H        0.1119144     2.6897811     0.0001413
  N        1.1742530     0.9863660    -0.0000120
  H        2.0766210     1.4468080     0.0000740
  C        1.2261220    -0.4021520    -0.0000880
  O        2.2745420    -1.0338450     0.0001200
units angstrom
no_reorient  #important for SAPT in psi4, default
symmetry c1  #important for SAPT in psi4, default
}

set PROPERTIES_ORIGIN ["COM"]
properties('MP2/aug-cc-pvtz', properties = ['dipole'])
--------------------------------------------------------------------------

    Molecular point group: c1
  Charge       = 0
  Multiplicity = 1
  Basis Set: AUG-CC-PVTZ
    Blend: AUG-CC-PVTZ
  Basis Set: (AUG-CC-PVTZ AUX)
    Blend: AUG-CC-PVTZ-JKFIT

    Orbital Energies [Eh]
    ---------------------

    Doubly Occupied:

       1A    -20.549274     2A    -20.544092     3A    -15.646724
       4A    -15.630683     5A    -11.422805     6A    -11.385048
       7A    -11.333662     8A    -11.259717     9A     -1.431523
      10A     -1.394007    11A     -1.311039    12A     -1.243912
      13A     -1.091091    14A     -0.941798    15A     -0.901340
      16A     -0.804916    17A     -0.764921    18A     -0.730590
      19A     -0.677714    20A     -0.666422    21A     -0.654194
      22A     -0.616462    23A     -0.603316    24A     -0.568787
      25A     -0.524864    26A     -0.484794    27A     -0.450764
      28A     -0.437270    29A     -0.370459

  @DF-RHF Final Energy:  -412.61505251076147

   => Energetics <=

    Nuclear Repulsion Energy =            355.9258578150846688
    One-Electron Energy =               -1268.1974464517088563
    Two-Electron Energy =                 499.6565361258627149
    Total Energy =                       -412.6150525107614726
  Basis Set: (AUG-CC-PVTZ AUX)
    Blend: AUG-CC-PVTZ-RI
    Molecular point group: c1

    Geometry (in Angstrom), charge = 0, multiplicity = 1:

       Center              X                  Y                   Z               Mass
    ------------   -----------------  -----------------  -----------------  -----------------
         N           -0.033410707504    -0.942889479253    -0.000099051945    14.003074004430
         H           -0.046258707504    -1.959806479253     0.000026948055     1.007825032230
         C           -1.292101707504    -0.312346479253    -0.000276051945    12.000000000000
         O           -2.323488707504    -0.977800479253     0.000186948055    15.994914619570
         C           -1.205923707504     1.142289520747     0.000003948055    12.000000000000
         H           -2.125813707504     1.711875520747     0.000187948055     1.007825032230
         C            0.003371292496     1.746046520747     0.000029948055    12.000000000000
         H            0.112218692496     2.725273620747     0.000145248055     1.007825032230
         N            1.174557292496     1.021858520747    -0.000008051945    14.003074004430
         H            2.076925292496     1.482300520747     0.000077948055     1.007825032230
         C            1.226426292496    -0.366659479253    -0.000084051945    12.000000000000
         O            2.274846292496    -0.998352479253     0.000123948055    15.994914619570

  Basis Set: AUG-CC-PVTZ
    Blend: AUG-CC-PVTZ
  Basis Set: (AUG-CC-PVTZ AUX)
    Blend: AUG-CC-PVTZ-JKFIT
	 Reference Energy          =    -412.6150525107614726 [Eh]
	 Singles Energy            =      -0.0000000000000000 [Eh]
	 Same-Spin Energy          =      -0.4145325028582286 [Eh]
	 Opposite-Spin Energy      =      -1.2278690324715384 [Eh]
	 Correlation Energy        =      -1.6424015353297672 [Eh]
	 Total Energy              =    -414.2574540460912544 [Eh]

	 ================> DF-SCS-MP2 Energies <==================
	-----------------------------------------------------------
	 SCS Same-Spin Scale       =       0.3333333333333333 [-]
	 SCS Opposite-Spin Scale   =       1.2000000000000000 [-]
	 SCS Same-Spin Energy      =      -0.1381775009527429 [Eh]
	 SCS Opposite-Spin Energy  =      -1.4734428389658460 [Eh]
	 SCS Correlation Energy    =      -1.6116203399185889 [Eh]
	 SCS Total Energy          =    -414.2266728506800746 [Eh]
	-----------------------------------------------------------

  Dipole Moment: [D]
     X:     1.1641      Y:     4.1878      Z:    -0.0005     Total:     4.3466

*** Psi4 exiting successfully. Buy a developer a beer!
