                               Psi4 1.3.2 release

  ==> Input File <==

--------------------------------------------------------------------------
#psi4
#
memory 32 gb

molecule  {
0 1
  N       -0.0337150    -0.9783820    -0.0001030
  H       -0.0490897    -2.1952830     0.0000478
  C       -1.2924060    -0.3478390    -0.0002800
  O       -2.3237930    -1.0132930     0.0001830
  C       -1.2062280     1.1067970     0.0000000
  H       -2.1261180     1.6763830     0.0001840
  C        0.0030670     1.7105540     0.0000260
  H        0.1229620     2.7891690     0.0001530
  N        1.1742530     0.9863660    -0.0000120
  H        2.0766210     1.4468080     0.0000740
  C        1.2261220    -0.4021520    -0.0000880
  O        2.2745420    -1.0338450     0.0001200
units angstrom
no_reorient  #important for SAPT in psi4, default
symmetry c1  #important for SAPT in psi4, default
}

set PROPERTIES_ORIGIN ["COM"]
properties('MP2/aug-cc-pvtz', properties = ['dipole'])
--------------------------------------------------------------------------

    Molecular point group: c1
  Charge       = 0
  Multiplicity = 1
  Basis Set: AUG-CC-PVTZ
    Blend: AUG-CC-PVTZ
  Basis Set: (AUG-CC-PVTZ AUX)
    Blend: AUG-CC-PVTZ-JKFIT

    Orbital Energies [Eh]
    ---------------------

    Doubly Occupied:

       1A    -20.546911     2A    -20.541782     3A    -15.646265
       4A    -15.642093     5A    -11.421048     6A    -11.383598
       7A    -11.343278     8A    -11.259064     9A     -1.427556
      10A     -1.391191    11A     -1.308559    12A     -1.227184
      13A     -1.086419    14A     -0.921355    15A     -0.897789
      16A     -0.790478    17A     -0.760034    18A     -0.692682
      19A     -0.663999    20A     -0.662598    21A     -0.650544
      22A     -0.612021    23A     -0.586477    24A     -0.566585
      25A     -0.522883    26A     -0.482470    27A     -0.448449
      28A     -0.432982    29A     -0.369338

  @DF-RHF Final Energy:  -412.59130636183818

   => Energetics <=

    Nuclear Repulsion Energy =            354.2633551849198739
    One-Electron Energy =               -1265.1380582461392805
    Two-Electron Energy =                 498.2833966993812282
    Total Energy =                       -412.5913063618381784
  Basis Set: (AUG-CC-PVTZ AUX)
    Blend: AUG-CC-PVTZ-RI
    Molecular point group: c1

    Geometry (in Angstrom), charge = 0, multiplicity = 1:

       Center              X                  Y                   Z               Mass
    ------------   -----------------  -----------------  -----------------  -----------------
         N           -0.033487363623    -0.941984491913    -0.000099380308    14.003074004430
         H           -0.048862063623    -2.158885491913     0.000051419692     1.007825032230
         C           -1.292178363623    -0.311441491913    -0.000276380308    12.000000000000
         O           -2.323565363623    -0.976895491913     0.000186619692    15.994914619570
         C           -1.206000363623     1.143194508087     0.000003619692    12.000000000000
         H           -2.125890363623     1.712780508087     0.000187619692     1.007825032230
         C            0.003294636377     1.746951508087     0.000029619692    12.000000000000
         H            0.123189636377     2.825566508087     0.000156619692     1.007825032230
         N            1.174480636377     1.022763508087    -0.000008380308    14.003074004430
         H            2.076848636377     1.483205508087     0.000077619692     1.007825032230
         C            1.226349636377    -0.365754491913    -0.000084380308    12.000000000000
         O            2.274769636377    -0.997447491913     0.000123619692    15.994914619570

  Basis Set: AUG-CC-PVTZ
    Blend: AUG-CC-PVTZ
  Basis Set: (AUG-CC-PVTZ AUX)
    Blend: AUG-CC-PVTZ-JKFIT
	 Reference Energy          =    -412.5913063618381784 [Eh]
	 Singles Energy            =      -0.0000000000000000 [Eh]
	 Same-Spin Energy          =      -0.4165266590060922 [Eh]
	 Opposite-Spin Energy      =      -1.2324643638119190 [Eh]
	 Correlation Energy        =      -1.6489910228180111 [Eh]
	 Total Energy              =    -414.2402973846561736 [Eh]

	 ================> DF-SCS-MP2 Energies <==================
	-----------------------------------------------------------
	 SCS Same-Spin Scale       =       0.3333333333333333 [-]
	 SCS Opposite-Spin Scale   =       1.2000000000000000 [-]
	 SCS Same-Spin Energy      =      -0.1388422196686974 [Eh]
	 SCS Opposite-Spin Energy  =      -1.4789572365743029 [Eh]
	 SCS Correlation Energy    =      -1.6177994562430003 [Eh]
	 SCS Total Energy          =    -414.2091058180811842 [Eh]
	-----------------------------------------------------------

  Dipole Moment: [D]
     X:     1.1594      Y:     3.9340      Z:    -0.0005     Total:     4.1013

*** Psi4 exiting successfully. Buy a developer a beer!
