                               Psi4 1.3.2 release

  ==> Input File <==

--------------------------------------------------------------------------
#psi4
#
memory 32 gb

molecule  {
0 1
  N       -0.0337150    -0.9783820    -0.0001030
  H       -0.0465630    -1.9952990     0.0000230
  C       -1.3177798    -0.3461134    -0.0002777
  O       -2.3237930    -1.0132930     0.0001830
  C       -1.2062280     1.1067970     0.0000000
  H       -2.1261180     1.6763830     0.0001840
  C        0.0030670     1.7105540     0.0000260
  H        0.1229620     2.7891690     0.0001530
  N        1.1742530     0.9863660    -0.0000120
  H        2.0766210     1.4468080     0.0000740
  C        1.2261220    -0.4021520    -0.0000880
  O        2.2745420    -1.0338450     0.0001200
units angstrom
no_reorient  #important for SAPT in psi4, default
symmetry c1  #important for SAPT in psi4, default
}

set PROPERTIES_ORIGIN ["COM"]
properties('MP2/aug-cc-pvtz', properties = ['dipole'])
--------------------------------------------------------------------------

    Molecular point group: c1
  Charge       = 0
  Multiplicity = 1
  Basis Set: AUG-CC-PVTZ
    Blend: AUG-CC-PVTZ
  Basis Set: (AUG-CC-PVTZ AUX)
    Blend: AUG-CC-PVTZ-JKFIT

    Orbital Energies [Eh]
    ---------------------

    Doubly Occupied:

       1A    -20.549219     2A    -20.546810     3A    -15.645692
       4A    -15.626089     5A    -11.420363     6A    -11.385758
       7A    -11.344786     8A    -11.259061     9A     -1.430479
      10A     -1.406115    11A     -1.308930    12A     -1.237927
      13A     -1.087694    14A     -0.931135    15A     -0.895602
      16A     -0.801896    17A     -0.762030    18A     -0.710943
      19A     -0.678604    20A     -0.663901    21A     -0.651377
      22A     -0.620470    23A     -0.600075    24A     -0.573527
      25A     -0.523294    26A     -0.484157    27A     -0.451778
      28A     -0.437417    29A     -0.370609

  @DF-RHF Final Energy:  -412.62139677142574

   => Energetics <=

    Nuclear Repulsion Energy =            355.2249116874542665
    One-Electron Energy =               -1266.8811420227216331
    Two-Electron Energy =                 499.0348335638415733
    Total Energy =                       -412.6213967714257365
  Basis Set: (AUG-CC-PVTZ AUX)
    Blend: AUG-CC-PVTZ-RI
    Molecular point group: c1

    Geometry (in Angstrom), charge = 0, multiplicity = 1:

       Center              X                  Y                   Z               Mass
    ------------   -----------------  -----------------  -----------------  -----------------
         N           -0.030792134965    -0.943968438024    -0.000099403570    14.003074004430
         H           -0.043640134965    -1.960885438024     0.000026596430     1.007825032230
         C           -1.314856934965    -0.311699838024    -0.000274103570    12.000000000000
         O           -2.320870134965    -0.978879438024     0.000186596430    15.994914619570
         C           -1.203305134965     1.141210561976     0.000003596430    12.000000000000
         H           -2.123195134965     1.710796561976     0.000187596430     1.007825032230
         C            0.005989865035     1.744967561976     0.000029596430    12.000000000000
         H            0.125884865035     2.823582561976     0.000156596430     1.007825032230
         N            1.177175865035     1.020779561976    -0.000008403570    14.003074004430
         H            2.079543865035     1.481221561976     0.000077596430     1.007825032230
         C            1.229044865035    -0.367738438024    -0.000084403570    12.000000000000
         O            2.277464865035    -0.999431438024     0.000123596430    15.994914619570

  Basis Set: AUG-CC-PVTZ
    Blend: AUG-CC-PVTZ
  Basis Set: (AUG-CC-PVTZ AUX)
    Blend: AUG-CC-PVTZ-JKFIT
	 Reference Energy          =    -412.6213967714257365 [Eh]
	 Singles Energy            =      -0.0000000000000000 [Eh]
	 Same-Spin Energy          =      -0.4143582390948462 [Eh]
	 Opposite-Spin Energy      =      -1.2276799073588140 [Eh]
	 Correlation Energy        =      -1.6420381464536602 [Eh]
	 Total Energy              =    -414.2634349178794082 [Eh]

	 ================> DF-SCS-MP2 Energies <==================
	-----------------------------------------------------------
	 SCS Same-Spin Scale       =       0.3333333333333333 [-]
	 SCS Opposite-Spin Scale   =       1.2000000000000000 [-]
	 SCS Same-Spin Energy      =      -0.1381194130316154 [Eh]
	 SCS Opposite-Spin Energy  =      -1.4732158888305769 [Eh]
	 SCS Correlation Energy    =      -1.6113353018621923 [Eh]
	 SCS Total Energy          =    -414.2327320732879343 [Eh]
	-----------------------------------------------------------

  Dipole Moment: [D]
     X:     0.9525      Y:     4.1786      Z:    -0.0005     Total:     4.2858

*** Psi4 exiting successfully. Buy a developer a beer!
