                               Psi4 1.3.2 release

  ==> Input File <==

--------------------------------------------------------------------------
#psi4
#
memory 32 gb

molecule  {
0 1
  N       -0.0128374    -1.0219987    -0.0001056
  H       -0.0465630    -1.9952990     0.0000230
  C       -1.2924060    -0.3478390    -0.0002800
  O       -2.3237930    -1.0132930     0.0001830
  C       -1.2062280     1.1067970     0.0000000
  H       -2.1261180     1.6763830     0.0001840
  C        0.0030670     1.7105540     0.0000260
  H        0.1229620     2.7891690     0.0001530
  N        1.1742530     0.9863660    -0.0000120
  H        2.0766210     1.4468080     0.0000740
  C        1.2261220    -0.4021520    -0.0000880
  O        2.2745420    -1.0338450     0.0001200
units angstrom
no_reorient  #important for SAPT in psi4, default
symmetry c1  #important for SAPT in psi4, default
}

set PROPERTIES_ORIGIN ["COM"]
properties('MP2/aug-cc-pvtz', properties = ['dipole'])
--------------------------------------------------------------------------

    Molecular point group: c1
  Charge       = 0
  Multiplicity = 1
  Basis Set: AUG-CC-PVTZ
    Blend: AUG-CC-PVTZ
  Basis Set: (AUG-CC-PVTZ AUX)
    Blend: AUG-CC-PVTZ-JKFIT

    Orbital Energies [Eh]
    ---------------------

    Doubly Occupied:

       1A    -20.547776     2A    -20.545177     3A    -15.648415
       4A    -15.625774     5A    -11.420471     6A    -11.388915
       7A    -11.346588     8A    -11.261776     9A     -1.429189
      10A     -1.394212    11A     -1.308454    12A     -1.241186
      13A     -1.089069    14A     -0.935973    15A     -0.890648
      16A     -0.807720    17A     -0.762960    18A     -0.721932
      19A     -0.677849    20A     -0.663353    21A     -0.650752
      22A     -0.616653    23A     -0.603756    24A     -0.566828
      25A     -0.525305    26A     -0.483120    27A     -0.449399
      28A     -0.435763    29A     -0.371486

  @DF-RHF Final Energy:  -412.61893461717818

   => Energetics <=

    Nuclear Repulsion Energy =            354.6413886719564061
    One-Electron Energy =               -1265.6996474480683901
    Two-Electron Energy =                 498.4393241589338004
    Total Energy =                       -412.6189346171781835
  Basis Set: (AUG-CC-PVTZ AUX)
    Blend: AUG-CC-PVTZ-RI
    Molecular point group: c1

    Geometry (in Angstrom), charge = 0, multiplicity = 1:

       Center              X                  Y                   Z               Mass
    ------------   -----------------  -----------------  -----------------  -----------------
         N           -0.015242131884    -0.981948340516    -0.000101432209    14.003074004430
         H           -0.048967731884    -1.955248640516     0.000027167791     1.007825032230
         C           -1.294810731884    -0.307788640516    -0.000275832209    12.000000000000
         O           -2.326197731884    -0.973242640516     0.000187167791    15.994914619570
         C           -1.208632731884     1.146847359484     0.000004167791    12.000000000000
         H           -2.128522731884     1.716433359484     0.000188167791     1.007825032230
         C            0.000662268116     1.750604359484     0.000030167791    12.000000000000
         H            0.120557268116     2.829219359484     0.000157167791     1.007825032230
         N            1.171848268116     1.026416359484    -0.000007832209    14.003074004430
         H            2.074216268116     1.486858359484     0.000078167791     1.007825032230
         C            1.223717268116    -0.362101640516    -0.000083832209    12.000000000000
         O            2.272137268116    -0.993794640516     0.000124167791    15.994914619570

  Basis Set: AUG-CC-PVTZ
    Blend: AUG-CC-PVTZ
  Basis Set: (AUG-CC-PVTZ AUX)
    Blend: AUG-CC-PVTZ-JKFIT
	 Reference Energy          =    -412.6189346171781835 [Eh]
	 Singles Energy            =      -0.0000000000000000 [Eh]
	 Same-Spin Energy          =      -0.4141249918110905 [Eh]
	 Opposite-Spin Energy      =      -1.2277968538213306 [Eh]
	 Correlation Energy        =      -1.6419218456324212 [Eh]
	 Total Energy              =    -414.2608564628105796 [Eh]

	 ================> DF-SCS-MP2 Energies <==================
	-----------------------------------------------------------
	 SCS Same-Spin Scale       =       0.3333333333333333 [-]
	 SCS Opposite-Spin Scale   =       1.2000000000000000 [-]
	 SCS Same-Spin Energy      =      -0.1380416639370302 [Eh]
	 SCS Opposite-Spin Energy  =      -1.4733562245855967 [Eh]
	 SCS Correlation Energy    =      -1.6113978885226268 [Eh]
	 SCS Total Energy          =    -414.2303325057008010 [Eh]
	-----------------------------------------------------------

  Dipole Moment: [D]
     X:     1.0002      Y:     4.2803      Z:    -0.0005     Total:     4.3956

*** Psi4 exiting successfully. Buy a developer a beer!
