                               Psi4 1.3.2 release

  ==> Input File <==

--------------------------------------------------------------------------
#psi4
#
memory 32 gb

molecule  {
0 1
  N        0.0072033    -0.8890442    -0.0000776
  H       -0.0465630    -1.9952990     0.0000230
  C       -1.2924060    -0.3478390    -0.0002800
  O       -2.3237930    -1.0132930     0.0001830
  C       -1.2062280     1.1067970     0.0000000
  H       -2.1261180     1.6763830     0.0001840
  C        0.0030670     1.7105540     0.0000260
  H        0.1229620     2.7891690     0.0001530
  N        1.1742530     0.9863660    -0.0000120
  H        2.0766210     1.4468080     0.0000740
  C        1.2261220    -0.4021520    -0.0000880
  O        2.2745420    -1.0338450     0.0001200
units angstrom
no_reorient  #important for SAPT in psi4, default
symmetry c1  #important for SAPT in psi4, default
}

set PROPERTIES_ORIGIN ["COM"]
properties('MP2/aug-cc-pvtz', properties = ['dipole'])
--------------------------------------------------------------------------

    Molecular point group: c1
  Charge       = 0
  Multiplicity = 1
  Basis Set: AUG-CC-PVTZ
    Blend: AUG-CC-PVTZ
  Basis Set: (AUG-CC-PVTZ AUX)
    Blend: AUG-CC-PVTZ-JKFIT

    Orbital Energies [Eh]
    ---------------------

    Doubly Occupied:

       1A    -20.552584     2A    -20.542671     3A    -15.641989
       4A    -15.638374     5A    -11.415097     6A    -11.391783
       7A    -11.343340     8A    -11.257159     9A     -1.436570
      10A     -1.396989    11A     -1.314995    12A     -1.249208
      13A     -1.090552    14A     -0.927582    15A     -0.921711
      16A     -0.797450    17A     -0.763681    18A     -0.697764
      19A     -0.676104    20A     -0.675585    21A     -0.650785
      22A     -0.618432    23A     -0.587946    24A     -0.569293
      25A     -0.525111    26A     -0.481339    27A     -0.455835
      28A     -0.441903    29A     -0.369287

  @DF-RHF Final Energy:  -412.60414126419579

   => Energetics <=

    Nuclear Repulsion Energy =            357.0074767946077827
    One-Electron Energy =               -1270.3609957060925808
    Two-Electron Energy =                 500.7493776472890090
    Total Energy =                       -412.6041412641957891
  Basis Set: (AUG-CC-PVTZ AUX)
    Blend: AUG-CC-PVTZ-RI
    Molecular point group: c1

    Geometry (in Angstrom), charge = 0, multiplicity = 1:

       Center              X                  Y                   Z               Mass
    ------------   -----------------  -----------------  -----------------  -----------------
         N            0.002293540664    -0.865612754644    -0.000076932125    14.003074004430
         H           -0.051472759336    -1.971867554644     0.000023667875     1.007825032230
         C           -1.297315759336    -0.324407554644    -0.000279332125    12.000000000000
         O           -2.328702759336    -0.989861554644     0.000183667875    15.994914619570
         C           -1.211137759336     1.130228445356     0.000000667875    12.000000000000
         H           -2.131027759336     1.699814445356     0.000184667875     1.007825032230
         C           -0.001842759336     1.733985445356     0.000026667875    12.000000000000
         H            0.118052240664     2.812600445356     0.000153667875     1.007825032230
         N            1.169343240664     1.009797445356    -0.000011332125    14.003074004430
         H            2.071711240664     1.470239445356     0.000074667875     1.007825032230
         C            1.221212240664    -0.378720554644    -0.000087332125    12.000000000000
         O            2.269632240664    -1.010413554644     0.000120667875    15.994914619570

  Basis Set: AUG-CC-PVTZ
    Blend: AUG-CC-PVTZ
  Basis Set: (AUG-CC-PVTZ AUX)
    Blend: AUG-CC-PVTZ-JKFIT
	 Reference Energy          =    -412.6041412641957891 [Eh]
	 Singles Energy            =      -0.0000000000000000 [Eh]
	 Same-Spin Energy          =      -0.4164749007718321 [Eh]
	 Opposite-Spin Energy      =      -1.2305727084997640 [Eh]
	 Correlation Energy        =      -1.6470476092715960 [Eh]
	 Total Energy              =    -414.2511888734674130 [Eh]

	 ================> DF-SCS-MP2 Energies <==================
	-----------------------------------------------------------
	 SCS Same-Spin Scale       =       0.3333333333333333 [-]
	 SCS Opposite-Spin Scale   =       1.2000000000000000 [-]
	 SCS Same-Spin Energy      =      -0.1388249669239440 [Eh]
	 SCS Opposite-Spin Energy  =      -1.4766872501997168 [Eh]
	 SCS Correlation Energy    =      -1.6155122171236609 [Eh]
	 SCS Total Energy          =    -414.2196534813194262 [Eh]
	-----------------------------------------------------------

  Dipole Moment: [D]
     X:     0.8684      Y:     4.0596      Z:    -0.0006     Total:     4.1514

*** Psi4 exiting successfully. Buy a developer a beer!
