                               Psi4 1.4a3.dev225

  ==> Input File <==

--------------------------------------------------------------------------
#psi4
#
memory 32 gb

molecule  {
0 1
  N        0.0336940    -0.9783750    -0.0000010
  H        0.0471450    -1.9953050    -0.0000010
  C        1.2925930    -0.3474800     0.0000000
  O        2.3237090    -1.0134020     0.0000010
  C        1.2062870     1.1068390     0.0000000
  H        2.1256600     1.6771670     0.0000010
  C       -0.0033680     1.7103630     0.0000000
  H       -0.1227300     2.7890550     0.0000000
  N       -1.1742180     0.9864080    -0.0000010
  H       -2.0766200     1.4467250     0.0000010
  C       -1.2259650    -0.4025210     0.0000010
  O       -2.2317541    -1.0079471     0.0000010
units angstrom
no_reorient  #important for SAPT in psi4, default
symmetry c1  #important for SAPT in psi4, default
}

set PROPERTIES_ORIGIN ["COM"]
properties('MP2/aug-cc-pvtz', properties = ['dipole'])
--------------------------------------------------------------------------

    Molecular point group: c1
  Charge       = 0
  Multiplicity = 1
  Basis Set: AUG-CC-PVTZ
    Blend: AUG-CC-PVTZ
  Basis Set: (AUG-CC-PVTZ AUX)
    Blend: AUG-CC-PVTZ-JKFIT

    Orbital Energies [Eh]
    ---------------------

    Doubly Occupied:

       1A    -20.551159     2A    -20.540778     3A    -15.641264
       4A    -15.624475     5A    -11.413886     6A    -11.381644
       7A    -11.341414     8A    -11.255865     9A     -1.458148
      10A     -1.394338    11A     -1.312995    12A     -1.240329
      13A     -1.084747    14A     -0.929293    15A     -0.896890
      16A     -0.800944    17A     -0.763632    18A     -0.710983
      19A     -0.680092    20A     -0.671601    21A     -0.658696
      22A     -0.613739    23A     -0.599834    24A     -0.570138
      25A     -0.529521    26A     -0.489526    27A     -0.448350
      28A     -0.437437    29A     -0.367626

  @DF-RHF Final Energy:  -412.62337437512485

   => Energetics <=

    Nuclear Repulsion Energy =            357.1395579647149248
    One-Electron Energy =               -1270.7071799098912379
    Two-Electron Energy =                 500.9442475700515160
    Total Energy =                       -412.6233743751248539
  Basis Set: (AUG-CC-PVTZ AUX)
    Blend: AUG-CC-PVTZ-RI
    Molecular point group: c1

    Geometry (in Angstrom), charge = 0, multiplicity = 1:

       Center              X                  Y                   Z               Mass
    ------------   -----------------  -----------------  -----------------  -----------------
         N            0.027376073691    -0.947452978296    -0.000001151673    14.003074004430
         H            0.040827073691    -1.964382978296    -0.000001151673     1.007825032230
         C            1.286275073691    -0.316557978296    -0.000000151673    12.000000000000
         O            2.317391073691    -0.982479978296     0.000000848327    15.994914619570
         C            1.199969073691     1.137761021704    -0.000000151673    12.000000000000
         H            2.119342073691     1.708089021704     0.000000848327     1.007825032230
         C           -0.009685926309     1.741285021704    -0.000000151673    12.000000000000
         H           -0.129047926309     2.819977021704    -0.000000151673     1.007825032230
         N           -1.180535926309     1.017330021704    -0.000001151673    14.003074004430
         H           -2.082937926309     1.477647021704     0.000000848327     1.007825032230
         C           -1.232282926309    -0.371598978296     0.000000848327    12.000000000000
         O           -2.238072026309    -0.977025078296     0.000000848327    15.994914619570

  Basis Set: AUG-CC-PVTZ
    Blend: AUG-CC-PVTZ
  Basis Set: (AUG-CC-PVTZ AUX)
    Blend: AUG-CC-PVTZ-JKFIT
	 Reference Energy          =    -412.6233743751248539 [Eh]
	 Singles Energy            =      -0.0000000000000000 [Eh]
	 Same-Spin Energy          =      -0.4134399048713475 [Eh]
	 Opposite-Spin Energy      =      -1.2252885346339326 [Eh]
	 Correlation Energy        =      -1.6387284395052801 [Eh]
	 Total Energy              =    -414.2621028146301114 [Eh]

	 ================> DF-SCS-MP2 Energies <==================
	-----------------------------------------------------------
	 SCS Same-Spin Scale       =       0.3333333333333333 [-]
	 SCS Opposite-Spin Scale   =       1.2000000000000000 [-]
	 SCS Same-Spin Energy      =      -0.1378133016237825 [Eh]
	 SCS Opposite-Spin Energy  =      -1.4703462415607191 [Eh]
	 SCS Correlation Energy    =      -1.6081595431845017 [Eh]
	 SCS Total Energy          =    -414.2315339183093670 [Eh]
	-----------------------------------------------------------

  Dipole Moment: [D]
     X:    -1.5119      Y:     4.0038      Z:     0.0000     Total:     4.2798

*** Psi4 exiting successfully. Buy a developer a beer!
