                               Psi4 1.4a3.dev225

  ==> Input File <==

--------------------------------------------------------------------------
#psi4
#
memory 32 gb

molecule  {
0 1
  N        0.0336940    -0.9783750    -0.0000010
  H        0.0464837    -1.9453094    -0.0000010
  C        1.2925930    -0.3474800     0.0000000
  O        2.3237090    -1.0134020     0.0000010
  C        1.2062870     1.1068390     0.0000000
  H        2.1256600     1.6771670     0.0000010
  C       -0.0033680     1.7103630     0.0000000
  H       -0.1227300     2.7890550     0.0000000
  N       -1.1742180     0.9864080    -0.0000010
  H       -2.0766200     1.4467250     0.0000010
  C       -1.2259650    -0.4025210     0.0000010
  O       -2.2745920    -1.0337330     0.0000010
units angstrom
no_reorient  #important for SAPT in psi4, default
symmetry c1  #important for SAPT in psi4, default
}

set PROPERTIES_ORIGIN ["COM"]
properties('MP2/aug-cc-pvtz', properties = ['dipole'])
--------------------------------------------------------------------------

    Molecular point group: c1
  Charge       = 0
  Multiplicity = 1
  Basis Set: AUG-CC-PVTZ
    Blend: AUG-CC-PVTZ
  Basis Set: (AUG-CC-PVTZ AUX)
    Blend: AUG-CC-PVTZ-JKFIT

    Orbital Energies [Eh]
    ---------------------

    Doubly Occupied:

       1A    -20.550215     2A    -20.544734     3A    -15.647552
       4A    -15.626845     5A    -11.423674     6A    -11.385750
       7A    -11.344960     8A    -11.259893     9A     -1.433074
      10A     -1.394866    11A     -1.311398    12A     -1.249473
      13A     -1.088983    14A     -0.936395    15A     -0.901911
      16A     -0.810300    17A     -0.763938    18A     -0.720059
      19A     -0.678725    20A     -0.667348    21A     -0.652958
      22A     -0.615377    23A     -0.602988    24A     -0.569493
      25A     -0.525613    26A     -0.484755    27A     -0.451271
      28A     -0.438602    29A     -0.370755

  @DF-RHF Final Energy:  -412.62063397840001

   => Energetics <=

    Nuclear Repulsion Energy =            355.6948728792773409
    One-Electron Energy =               -1267.7272047387700695
    Two-Electron Energy =                 499.4116978810927208
    Total Energy =                       -412.6206339784000079
  Basis Set: (AUG-CC-PVTZ AUX)
    Blend: AUG-CC-PVTZ-RI
    Molecular point group: c1

    Geometry (in Angstrom), charge = 0, multiplicity = 1:

       Center              X                  Y                   Z               Mass
    ------------   -----------------  -----------------  -----------------  -----------------
         N            0.033498288242    -0.944221118519    -0.000001151673    14.003074004430
         H            0.046287988242    -1.911155518519    -0.000001151673     1.007825032230
         C            1.292397288242    -0.313326118519    -0.000000151673    12.000000000000
         O            2.323513288242    -0.979248118519     0.000000848327    15.994914619570
         C            1.206091288242     1.140992881481    -0.000000151673    12.000000000000
         H            2.125464288242     1.711320881481     0.000000848327     1.007825032230
         C           -0.003563711758     1.744516881481    -0.000000151673    12.000000000000
         H           -0.122925711758     2.823208881481    -0.000000151673     1.007825032230
         N           -1.174413711758     1.020561881481    -0.000001151673    14.003074004430
         H           -2.076815711758     1.480878881481     0.000000848327     1.007825032230
         C           -1.226160711758    -0.368367118519     0.000000848327    12.000000000000
         O           -2.274787711758    -0.999579118519     0.000000848327    15.994914619570

  Basis Set: AUG-CC-PVTZ
    Blend: AUG-CC-PVTZ
  Basis Set: (AUG-CC-PVTZ AUX)
    Blend: AUG-CC-PVTZ-JKFIT
	 Reference Energy          =    -412.6206339784000079 [Eh]
	 Singles Energy            =      -0.0000000000000000 [Eh]
	 Same-Spin Energy          =      -0.4143196577611315 [Eh]
	 Opposite-Spin Energy      =      -1.2275498214959790 [Eh]
	 Correlation Energy        =      -1.6418694792571105 [Eh]
	 Total Energy              =    -414.2625034576571466 [Eh]

	 ================> DF-SCS-MP2 Energies <==================
	-----------------------------------------------------------
	 SCS Same-Spin Scale       =       0.3333333333333333 [-]
	 SCS Opposite-Spin Scale   =       1.2000000000000000 [-]
	 SCS Same-Spin Energy      =      -0.1381065525870438 [Eh]
	 SCS Opposite-Spin Energy  =      -1.4730597857951748 [Eh]
	 SCS Correlation Energy    =      -1.6111663383822186 [Eh]
	 SCS Total Energy          =    -414.2318003167821985 [Eh]
	-----------------------------------------------------------

  Dipole Moment: [D]
     X:    -1.1744      Y:     4.2551      Z:     0.0000     Total:     4.4142

*** Psi4 exiting successfully. Buy a developer a beer!
