                               Psi4 1.3.2 release

  ==> Input File <==

--------------------------------------------------------------------------
#psi4
#
memory 32 gb

molecule  {
0 1
  N       -0.0337150    -0.9783820    -0.0001030
  H       -0.0465630    -1.9952990     0.0000230
  C       -1.2924060    -0.3478390    -0.0002800
  O       -2.3237930    -1.0132930     0.0001830
  C       -1.1844205     1.0649610    -0.0000021
  H       -2.1261180     1.6763830     0.0001840
  C        0.0030670     1.7105540     0.0000260
  H        0.1229620     2.7891690     0.0001530
  N        1.1742530     0.9863660    -0.0000120
  H        2.0766210     1.4468080     0.0000740
  C        1.2261220    -0.4021520    -0.0000880
  O        2.2745420    -1.0338450     0.0001200
units angstrom
no_reorient  #important for SAPT in psi4, default
symmetry c1  #important for SAPT in psi4, default
}

set PROPERTIES_ORIGIN ["COM"]
properties('MP2/aug-cc-pvtz', properties = ['dipole'])
--------------------------------------------------------------------------

    Molecular point group: c1
  Charge       = 0
  Multiplicity = 1
  Basis Set: AUG-CC-PVTZ
    Blend: AUG-CC-PVTZ
  Basis Set: (AUG-CC-PVTZ AUX)
    Blend: AUG-CC-PVTZ-JKFIT

    Orbital Energies [Eh]
    ---------------------

    Doubly Occupied:

       1A    -20.548994     2A    -20.542398     3A    -15.647751
       4A    -15.629512     5A    -11.422893     6A    -11.381842
       7A    -11.347761     8A    -11.259230     9A     -1.431798
      10A     -1.393594    11A     -1.311940    12A     -1.243621
      13A     -1.091519    14A     -0.938162    15A     -0.901994
      16A     -0.800981    17A     -0.766981    18A     -0.715801
      19A     -0.677064    20A     -0.667548    21A     -0.650548
      22A     -0.616199    23A     -0.588500    24A     -0.569833
      25A     -0.525431    26A     -0.485260    27A     -0.451299
      28A     -0.436731    29A     -0.370622

  @DF-RHF Final Energy:  -412.61710394621701

   => Energetics <=

    Nuclear Repulsion Energy =            356.1974427449906671
    One-Electron Energy =               -1268.7974783090476194
    Two-Electron Energy =                 499.9829316178399381
    Total Energy =                       -412.6171039462170143
  Basis Set: (AUG-CC-PVTZ AUX)
    Blend: AUG-CC-PVTZ-RI
    Molecular point group: c1

    Geometry (in Angstrom), charge = 0, multiplicity = 1:

       Center              X                  Y                   Z               Mass
    ------------   -----------------  -----------------  -----------------  -----------------
         N           -0.035846043381    -0.939302260176    -0.000098932256    14.003074004430
         H           -0.048694043381    -1.956219260176     0.000027067744     1.007825032230
         C           -1.294537043381    -0.308759260176    -0.000275932256    12.000000000000
         O           -2.325924043381    -0.974213260176     0.000187067744    15.994914619570
         C           -1.186551543381     1.104040739824     0.000001967744    12.000000000000
         H           -2.128249043381     1.715462739824     0.000188067744     1.007825032230
         C            0.000935956619     1.749633739824     0.000030067744    12.000000000000
         H            0.120830956619     2.828248739824     0.000157067744     1.007825032230
         N            1.172121956619     1.025445739824    -0.000007932256    14.003074004430
         H            2.074489956619     1.485887739824     0.000078067744     1.007825032230
         C            1.223990956619    -0.363072260176    -0.000083932256    12.000000000000
         O            2.272410956619    -0.994765260176     0.000124067744    15.994914619570

  Basis Set: AUG-CC-PVTZ
    Blend: AUG-CC-PVTZ
  Basis Set: (AUG-CC-PVTZ AUX)
    Blend: AUG-CC-PVTZ-JKFIT
	 Reference Energy          =    -412.6171039462170143 [Eh]
	 Singles Energy            =      -0.0000000000000000 [Eh]
	 Same-Spin Energy          =      -0.4154546558693404 [Eh]
	 Opposite-Spin Energy      =      -1.2291326419581101 [Eh]
	 Correlation Energy        =      -1.6445872978274505 [Eh]
	 Total Energy              =    -414.2616912440444707 [Eh]

	 ================> DF-SCS-MP2 Energies <==================
	-----------------------------------------------------------
	 SCS Same-Spin Scale       =       0.3333333333333333 [-]
	 SCS Opposite-Spin Scale   =       1.2000000000000000 [-]
	 SCS Same-Spin Energy      =      -0.1384848852897801 [Eh]
	 SCS Opposite-Spin Energy  =      -1.4749591703497320 [Eh]
	 SCS Correlation Energy    =      -1.6134440556395122 [Eh]
	 SCS Total Energy          =    -414.2305480018565049 [Eh]
	-----------------------------------------------------------

  Dipole Moment: [D]
     X:     1.2248      Y:     4.2931      Z:    -0.0005     Total:     4.4644

*** Psi4 exiting successfully. Buy a developer a beer!
