                               Psi4 1.3.2 release

  ==> Input File <==

--------------------------------------------------------------------------
#psi4
#
memory 32 gb

molecule  {
0 1
  N       -0.0337150    -0.9783820    -0.0001030
  H       -0.0465630    -1.9952990     0.0000230
  C       -1.2924060    -0.3478390    -0.0002800
  O       -2.3237930    -1.0132930     0.0001830
  C       -1.2062280     1.1067970     0.0000000
  H       -2.1261180     1.6763830     0.0001840
  C        0.0030670     1.7105540     0.0000260
  H        0.1229620     2.7891690     0.0001530
  N        1.1742530     0.9863660    -0.0000120
  H        2.1656952     1.4922590     0.0000825
  C        1.2261220    -0.4021520    -0.0000880
  O        2.2745420    -1.0338450     0.0001200
units angstrom
no_reorient  #important for SAPT in psi4, default
symmetry c1  #important for SAPT in psi4, default
}

set PROPERTIES_ORIGIN ["COM"]
properties('MP2/aug-cc-pvtz', properties = ['dipole'])
--------------------------------------------------------------------------

    Molecular point group: c1
  Charge       = 0
  Multiplicity = 1
  Basis Set: AUG-CC-PVTZ
    Blend: AUG-CC-PVTZ
  Basis Set: (AUG-CC-PVTZ AUX)
    Blend: AUG-CC-PVTZ-JKFIT

    Orbital Energies [Eh]
    ---------------------

    Doubly Occupied:

       1A    -20.548454     2A    -20.543247     3A    -15.654308
       4A    -15.630308     5A    -11.422392     6A    -11.384494
       7A    -11.343970     8A    -11.258744     9A     -1.429788
      10A     -1.393160    11A     -1.305425    12A     -1.239241
      13A     -1.084969    14A     -0.930999    15A     -0.894164
      16A     -0.790902    17A     -0.760276    18A     -0.711091
      19A     -0.670395    20A     -0.665405    21A     -0.649734
      22A     -0.609548    23A     -0.599869    24A     -0.567841
      25A     -0.523470    26A     -0.483515    27A     -0.449875
      28A     -0.436777    29A     -0.368987

  @DF-RHF Final Energy:  -412.61040736852925

   => Energetics <=

    Nuclear Repulsion Energy =            354.7929126287403392
    One-Electron Energy =               -1266.1039438908276225
    Two-Electron Energy =                 498.7006238935579745
    Total Energy =                       -412.6104073685292519
  Basis Set: (AUG-CC-PVTZ AUX)
    Blend: AUG-CC-PVTZ-RI
    Molecular point group: c1

    Geometry (in Angstrom), charge = 0, multiplicity = 1:

       Center              X                  Y                   Z               Mass
    ------------   -----------------  -----------------  -----------------  -----------------
         N           -0.034311427924    -0.944192485739    -0.000099233669    14.003074004430
         H           -0.047159427924    -1.961109485739     0.000026766331     1.007825032230
         C           -1.293002427924    -0.313649485739    -0.000276233669    12.000000000000
         O           -2.324389427924    -0.979103485739     0.000186766331    15.994914619570
         C           -1.206824427924     1.140986514261     0.000003766331    12.000000000000
         H           -2.126714427924     1.710572514261     0.000187766331     1.007825032230
         C            0.002470572076     1.744743514261     0.000029766331    12.000000000000
         H            0.122365572076     2.823358514261     0.000156766331     1.007825032230
         N            1.173656572076     1.020555514261    -0.000008233669    14.003074004430
         H            2.165098772076     1.526448514261     0.000086266331     1.007825032230
         C            1.225525572076    -0.367962485739    -0.000084233669    12.000000000000
         O            2.273945572076    -0.999655485739     0.000123766331    15.994914619570

  Basis Set: AUG-CC-PVTZ
    Blend: AUG-CC-PVTZ
  Basis Set: (AUG-CC-PVTZ AUX)
    Blend: AUG-CC-PVTZ-JKFIT
	 Reference Energy          =    -412.6104073685292519 [Eh]
	 Singles Energy            =      -0.0000000000000000 [Eh]
	 Same-Spin Energy          =      -0.4155215262612647 [Eh]
	 Opposite-Spin Energy      =      -1.2302080321244162 [Eh]
	 Correlation Energy        =      -1.6457295583856808 [Eh]
	 Total Energy              =    -414.2561369269149054 [Eh]

	 ================> DF-SCS-MP2 Energies <==================
	-----------------------------------------------------------
	 SCS Same-Spin Scale       =       0.3333333333333333 [-]
	 SCS Opposite-Spin Scale   =       1.2000000000000000 [-]
	 SCS Same-Spin Energy      =      -0.1385071754204215 [Eh]
	 SCS Opposite-Spin Energy  =      -1.4762496385492994 [Eh]
	 SCS Correlation Energy    =      -1.6147568139697208 [Eh]
	 SCS Total Energy          =    -414.2251641824989861 [Eh]
	-----------------------------------------------------------

  Dipole Moment: [D]
     X:     1.3073      Y:     4.2656      Z:    -0.0005     Total:     4.4614

*** Psi4 exiting successfully. Buy a developer a beer!
