                               Psi4 1.4a3.dev225

  ==> Input File <==

--------------------------------------------------------------------------
#psi4
#
memory 32 gb

molecule  {
0 1
  N        0.0336940    -0.9783750    -0.0000010
  H        0.0478063    -2.0453006    -0.0000010
  C        1.2925930    -0.3474800     0.0000000
  O        2.3237090    -1.0134020     0.0000010
  C        1.2062870     1.1068390     0.0000000
  H        2.1256600     1.6771670     0.0000010
  C       -0.0033680     1.7103630     0.0000000
  H       -0.1227300     2.7890550     0.0000000
  N       -1.1742180     0.9864080    -0.0000010
  H       -2.0766200     1.4467250     0.0000010
  C       -1.2259650    -0.4025210     0.0000010
  O       -2.2745920    -1.0337330     0.0000010
units angstrom
no_reorient  #important for SAPT in psi4, default
symmetry c1  #important for SAPT in psi4, default
}

set PROPERTIES_ORIGIN ["COM"]
properties('MP2/aug-cc-pvtz', properties = ['dipole'])
--------------------------------------------------------------------------

    Molecular point group: c1
  Charge       = 0
  Multiplicity = 1
  Basis Set: AUG-CC-PVTZ
    Blend: AUG-CC-PVTZ
  Basis Set: (AUG-CC-PVTZ AUX)
    Blend: AUG-CC-PVTZ-JKFIT

    Orbital Energies [Eh]
    ---------------------

    Doubly Occupied:

       1A    -20.548913     2A    -20.543554     3A    -15.647037
       4A    -15.634270     5A    -11.422632     6A    -11.384894
       7A    -11.344298     8A    -11.259521     9A     -1.430597
      10A     -1.393344    11A     -1.310162    12A     -1.238665
      13A     -1.087864    14A     -0.928818    15A     -0.900226
      16A     -0.800326    17A     -0.762311    18A     -0.706978
      19A     -0.674581    20A     -0.665990    21A     -0.652034
      22A     -0.613937    23A     -0.598207    24A     -0.568328
      25A     -0.524551    26A     -0.483942    27A     -0.450183
      28A     -0.436276    29A     -0.370164

  @DF-RHF Final Energy:  -412.61727371728591

   => Energetics <=

    Nuclear Repulsion Energy =            355.0729858312516285
    One-Electron Energy =               -1266.6153140655924290
    Two-Electron Energy =                 498.9250545170549458
    Total Energy =                       -412.6172737172859115
  Basis Set: (AUG-CC-PVTZ AUX)
    Blend: AUG-CC-PVTZ-RI
    Molecular point group: c1

    Geometry (in Angstrom), charge = 0, multiplicity = 1:

       Center              X                  Y                   Z               Mass
    ------------   -----------------  -----------------  -----------------  -----------------
         N            0.033486389806    -0.943321573009    -0.000001151673    14.003074004430
         H            0.047598689806    -2.010247173009    -0.000001151673     1.007825032230
         C            1.292385389806    -0.312426573009    -0.000000151673    12.000000000000
         O            2.323501389806    -0.978348573009     0.000000848327    15.994914619570
         C            1.206079389806     1.141892426991    -0.000000151673    12.000000000000
         H            2.125452389806     1.712220426991     0.000000848327     1.007825032230
         C           -0.003575610194     1.745416426991    -0.000000151673    12.000000000000
         H           -0.122937610194     2.824108426991    -0.000000151673     1.007825032230
         N           -1.174425610194     1.021461426991    -0.000001151673    14.003074004430
         H           -2.076827610194     1.481778426991     0.000000848327     1.007825032230
         C           -1.226172610194    -0.367467573009     0.000000848327    12.000000000000
         O           -2.274799610194    -0.998679573009     0.000000848327    15.994914619570

  Basis Set: AUG-CC-PVTZ
    Blend: AUG-CC-PVTZ
  Basis Set: (AUG-CC-PVTZ AUX)
    Blend: AUG-CC-PVTZ-JKFIT
	 Reference Energy          =    -412.6172737172859115 [Eh]
	 Singles Energy            =      -0.0000000000000000 [Eh]
	 Same-Spin Energy          =      -0.4151605707618566 [Eh]
	 Opposite-Spin Energy      =      -1.2292481682499823 [Eh]
	 Correlation Energy        =      -1.6444087390118389 [Eh]
	 Total Energy              =    -414.2616824562977627 [Eh]

	 ================> DF-SCS-MP2 Energies <==================
	-----------------------------------------------------------
	 SCS Same-Spin Scale       =       0.3333333333333333 [-]
	 SCS Opposite-Spin Scale   =       1.2000000000000000 [-]
	 SCS Same-Spin Energy      =      -0.1383868569206189 [Eh]
	 SCS Opposite-Spin Energy  =      -1.4750978018999787 [Eh]
	 SCS Correlation Energy    =      -1.6134846588205976 [Eh]
	 SCS Total Energy          =    -414.2307583761065075 [Eh]
	-----------------------------------------------------------

  Dipole Moment: [D]
     X:    -1.1689      Y:     4.1276      Z:     0.0000     Total:     4.2899

*** Psi4 exiting successfully. Buy a developer a beer!
