                               Psi4 1.4a3.dev225

  ==> Input File <==

--------------------------------------------------------------------------
#psi4
#
memory 32 gb

molecule  {
0 1
  N        0.0336940    -0.9783750    -0.0000010
  H        0.0471450    -1.9953050    -0.0000010
  C        1.2925930    -0.3474800     0.0000000
  O        2.3237090    -1.0134020     0.0000010
  C        1.2062870     1.1068390     0.0000000
  H        2.1256600     1.6771670     0.0000010
  C       -0.0033680     1.7103630     0.0000000
  H       -0.1227300     2.7890550     0.0000000
  N       -1.1742180     0.9864080    -0.0000010
  H       -2.0766200     1.4467250     0.0000010
  C       -1.2259650    -0.4025210     0.0000010
  O       -2.3174299    -1.0595189     0.0000010
units angstrom
no_reorient  #important for SAPT in psi4, default
symmetry c1  #important for SAPT in psi4, default
}

set PROPERTIES_ORIGIN ["COM"]
properties('MP2/aug-cc-pvtz', properties = ['dipole'])
--------------------------------------------------------------------------

    Molecular point group: c1
  Charge       = 0
  Multiplicity = 1
  Basis Set: AUG-CC-PVTZ
    Blend: AUG-CC-PVTZ
  Basis Set: (AUG-CC-PVTZ AUX)
    Blend: AUG-CC-PVTZ-JKFIT

    Orbital Energies [Eh]
    ---------------------

    Doubly Occupied:

       1A    -20.547716     2A    -20.547383     3A    -15.653040
       4A    -15.636798     5A    -11.431436     6A    -11.388825
       7A    -11.347692     8A    -11.263459     9A     -1.417823
      10A     -1.388114    11A     -1.304409    12A     -1.246786
      13A     -1.091942    14A     -0.935470    15A     -0.905086
      16A     -0.808809    17A     -0.763462    18A     -0.716419
      19A     -0.677423    20A     -0.664097    21A     -0.644027
      22A     -0.614982    23A     -0.600815    24A     -0.568962
      25A     -0.519912    26A     -0.479001    27A     -0.452242
      28A     -0.436513    29A     -0.373118

  @DF-RHF Final Energy:  -412.61201125475048

   => Energetics <=

    Nuclear Repulsion Energy =            353.7009261821376640
    One-Electron Energy =               -1263.7743493545267484
    Two-Electron Energy =                 497.4614119176385998
    Total Energy =                       -412.6120112547504846
  Basis Set: (AUG-CC-PVTZ AUX)
    Blend: AUG-CC-PVTZ-RI
    Molecular point group: c1

    Geometry (in Angstrom), charge = 0, multiplicity = 1:

       Center              X                  Y                   Z               Mass
    ------------   -----------------  -----------------  -----------------  -----------------
         N            0.039608604357    -0.940089713232    -0.000001151673    14.003074004430
         H            0.053059604357    -1.957019713232    -0.000001151673     1.007825032230
         C            1.298507604357    -0.309194713232    -0.000000151673    12.000000000000
         O            2.329623604357    -0.975116713232     0.000000848327    15.994914619570
         C            1.212201604357     1.145124286768    -0.000000151673    12.000000000000
         H            2.131574604357     1.715452286768     0.000000848327     1.007825032230
         C            0.002546604357     1.748648286768    -0.000000151673    12.000000000000
         H           -0.116815395643     2.827340286768    -0.000000151673     1.007825032230
         N           -1.168303395643     1.024693286768    -0.000001151673    14.003074004430
         H           -2.070705395643     1.485010286768     0.000000848327     1.007825032230
         C           -1.220050395643    -0.364235713232     0.000000848327    12.000000000000
         O           -2.311515295643    -1.021233613232     0.000000848327    15.994914619570

  Basis Set: AUG-CC-PVTZ
    Blend: AUG-CC-PVTZ
  Basis Set: (AUG-CC-PVTZ AUX)
    Blend: AUG-CC-PVTZ-JKFIT
	 Reference Energy          =    -412.6120112547504846 [Eh]
	 Singles Energy            =      -0.0000000000000000 [Eh]
	 Same-Spin Energy          =      -0.4159700774456770 [Eh]
	 Opposite-Spin Energy      =      -1.2313139478772943 [Eh]
	 Correlation Energy        =      -1.6472840253229712 [Eh]
	 Total Energy              =    -414.2592952800734452 [Eh]

	 ================> DF-SCS-MP2 Energies <==================
	-----------------------------------------------------------
	 SCS Same-Spin Scale       =       0.3333333333333333 [-]
	 SCS Opposite-Spin Scale   =       1.2000000000000000 [-]
	 SCS Same-Spin Energy      =      -0.1386566924818923 [Eh]
	 SCS Opposite-Spin Energy  =      -1.4775767374527531 [Eh]
	 SCS Correlation Energy    =      -1.6162334299346455 [Eh]
	 SCS Total Energy          =    -414.2282446846851371 [Eh]
	-----------------------------------------------------------

  Dipole Moment: [D]
     X:    -0.8463      Y:     4.3720      Z:     0.0000     Total:     4.4531

*** Psi4 exiting successfully. Buy a developer a beer!
