                               Psi4 1.3.2 release

  ==> Input File <==

--------------------------------------------------------------------------
#psi4
#
memory 32 gb

molecule  {
0 1
  N       -0.0337150    -0.9783820    -0.0001030
  H       -0.0465630    -1.9952990     0.0000230
  C       -1.2924060    -0.3478390    -0.0002800
  O       -2.3237930    -1.0132930     0.0001830
  C       -1.2062280     1.1067970     0.0000000
  H       -2.0410969     1.6237388     0.0001670
  C        0.0030670     1.7105540     0.0000260
  H        0.1229620     2.7891690     0.0001530
  N        1.1742530     0.9863660    -0.0000120
  H        2.0766210     1.4468080     0.0000740
  C        1.2261220    -0.4021520    -0.0000880
  O        2.2745420    -1.0338450     0.0001200
units angstrom
no_reorient  #important for SAPT in psi4, default
symmetry c1  #important for SAPT in psi4, default
}

set PROPERTIES_ORIGIN ["COM"]
properties('MP2/aug-cc-pvtz', properties = ['dipole'])
--------------------------------------------------------------------------

    Molecular point group: c1
  Charge       = 0
  Multiplicity = 1
  Basis Set: AUG-CC-PVTZ
    Blend: AUG-CC-PVTZ
  Basis Set: (AUG-CC-PVTZ AUX)
    Blend: AUG-CC-PVTZ-JKFIT

    Orbital Energies [Eh]
    ---------------------

    Doubly Occupied:

       1A    -20.549485     2A    -20.544158     3A    -15.647199
       4A    -15.630331     5A    -11.423039     6A    -11.384725
       7A    -11.344551     8A    -11.248831     9A     -1.431625
      10A     -1.394127    11A     -1.310584    12A     -1.243434
      13A     -1.092752    14A     -0.933856    15A     -0.901215
      16A     -0.815468    17A     -0.763007    18A     -0.713625
      19A     -0.676853    20A     -0.666466    21A     -0.659892
      22A     -0.621040    23A     -0.608849    24A     -0.568855
      25A     -0.524880    26A     -0.484298    27A     -0.450547
      28A     -0.437269    29A     -0.370664

  @DF-RHF Final Energy:  -412.61481601560496

   => Energetics <=

    Nuclear Repulsion Energy =            355.9222708070784620
    One-Electron Energy =               -1268.1909175349594534
    Two-Electron Energy =                 499.6538307122760330
    Total Energy =                       -412.6148160156049585
  Basis Set: (AUG-CC-PVTZ AUX)
    Blend: AUG-CC-PVTZ-RI
    Molecular point group: c1

    Geometry (in Angstrom), charge = 0, multiplicity = 1:

       Center              X                  Y                   Z               Mass
    ------------   -----------------  -----------------  -----------------  -----------------
         N           -0.034274965236    -0.943309997113    -0.000099004265    14.003074004430
         H           -0.047122965236    -1.960226997113     0.000026995735     1.007825032230
         C           -1.292965965236    -0.312766997113    -0.000276004265    12.000000000000
         O           -2.324352965236    -0.978220997113     0.000186995735    15.994914619570
         C           -1.206787965236     1.141869002887     0.000003995735    12.000000000000
         H           -2.041656865236     1.658810802887     0.000170995735     1.007825032230
         C            0.002507034764     1.745626002887     0.000029995735    12.000000000000
         H            0.122402034764     2.824241002887     0.000156995735     1.007825032230
         N            1.173693034764     1.021438002887    -0.000008004265    14.003074004430
         H            2.076061034764     1.481880002887     0.000077995735     1.007825032230
         C            1.225562034764    -0.367079997113    -0.000084004265    12.000000000000
         O            2.273982034764    -0.998772997113     0.000123995735    15.994914619570

  Basis Set: AUG-CC-PVTZ
    Blend: AUG-CC-PVTZ
  Basis Set: (AUG-CC-PVTZ AUX)
    Blend: AUG-CC-PVTZ-JKFIT
	 Reference Energy          =    -412.6148160156049585 [Eh]
	 Singles Energy            =      -0.0000000000000000 [Eh]
	 Same-Spin Energy          =      -0.4145753905173633 [Eh]
	 Opposite-Spin Energy      =      -1.2279790676431888 [Eh]
	 Correlation Energy        =      -1.6425544581605520 [Eh]
	 Total Energy              =    -414.2573704737654907 [Eh]

	 ================> DF-SCS-MP2 Energies <==================
	-----------------------------------------------------------
	 SCS Same-Spin Scale       =       0.3333333333333333 [-]
	 SCS Opposite-Spin Scale   =       1.2000000000000000 [-]
	 SCS Same-Spin Energy      =      -0.1381917968391211 [Eh]
	 SCS Opposite-Spin Energy  =      -1.4735748811718266 [Eh]
	 SCS Correlation Energy    =      -1.6117666780109476 [Eh]
	 SCS Total Energy          =    -414.2265826936159101 [Eh]
	-----------------------------------------------------------

  Dipole Moment: [D]
     X:     1.1991      Y:     4.1917      Z:    -0.0005     Total:     4.3598

*** Psi4 exiting successfully. Buy a developer a beer!
