                               Psi4 1.4a3.dev225

  ==> Input File <==

--------------------------------------------------------------------------
#psi4
#
memory 32 gb

molecule  {
0 1
  N        0.0336940    -0.9783750    -0.0000010
  H        0.0471450    -1.9953050    -0.0000010
  C        1.2925930    -0.3474800     0.0000000
  O        2.3237090    -1.0134020     0.0000010
  C        1.2062870     1.1068390     0.0000000
  H        2.1086646     1.6666240     0.0000010
  C       -0.0033680     1.7103630     0.0000000
  H       -0.1227300     2.7890550     0.0000000
  N       -1.1742180     0.9864080    -0.0000010
  H       -2.0766200     1.4467250     0.0000010
  C       -1.2259650    -0.4025210     0.0000010
  O       -2.2745920    -1.0337330     0.0000010
units angstrom
no_reorient  #important for SAPT in psi4, default
symmetry c1  #important for SAPT in psi4, default
}

set PROPERTIES_ORIGIN ["COM"]
properties('MP2/aug-cc-pvtz', properties = ['dipole'])
--------------------------------------------------------------------------

    Molecular point group: c1
  Charge       = 0
  Multiplicity = 1
  Basis Set: AUG-CC-PVTZ
    Blend: AUG-CC-PVTZ
  Basis Set: (AUG-CC-PVTZ AUX)
    Blend: AUG-CC-PVTZ-JKFIT

    Orbital Energies [Eh]
    ---------------------

    Doubly Occupied:

       1A    -20.549547     2A    -20.544145     3A    -15.647263
       4A    -15.630682     5A    -11.423124     6A    -11.385192
       7A    -11.344598     8A    -11.257567     9A     -1.431740
      10A     -1.394095    11A     -1.310714    12A     -1.243631
      13A     -1.089133    14A     -0.932523    15A     -0.901076
      16A     -0.806797    17A     -0.763083    18A     -0.713497
      19A     -0.676929    20A     -0.666617    21A     -0.653654
      22A     -0.615384    23A     -0.603428    24A     -0.568890
      25A     -0.525046    26A     -0.484349    27A     -0.450694
      28A     -0.437391    29A     -0.370467

  @DF-RHF Final Energy:  -412.62111162337271

   => Energetics <=

    Nuclear Repulsion Energy =            355.4788999610892120
    One-Electron Energy =               -1267.3575147415149331
    Two-Electron Energy =                 499.2575031570530655
    Total Energy =                       -412.6211116233727125
  Basis Set: (AUG-CC-PVTZ AUX)
    Blend: AUG-CC-PVTZ-RI
    Molecular point group: c1

    Geometry (in Angstrom), charge = 0, multiplicity = 1:

       Center              X                  Y                   Z               Mass
    ------------   -----------------  -----------------  -----------------  -----------------
         N            0.033645233837    -0.943676498334    -0.000001151673    14.003074004430
         H            0.047096233837    -1.960606498334    -0.000001151673     1.007825032230
         C            1.292544233837    -0.312781498334    -0.000000151673    12.000000000000
         O            2.323660233837    -0.978703498334     0.000000848327    15.994914619570
         C            1.206238233837     1.141537501666    -0.000000151673    12.000000000000
         H            2.108615833837     1.701322501666     0.000000848327     1.007825032230
         C           -0.003416766163     1.745061501666    -0.000000151673    12.000000000000
         H           -0.122778766163     2.823753501666    -0.000000151673     1.007825032230
         N           -1.174266766163     1.021106501666    -0.000001151673    14.003074004430
         H           -2.076668766163     1.481423501666     0.000000848327     1.007825032230
         C           -1.226013766163    -0.367822498334     0.000000848327    12.000000000000
         O           -2.274640766163    -0.999034498334     0.000000848327    15.994914619570

  Basis Set: AUG-CC-PVTZ
    Blend: AUG-CC-PVTZ
  Basis Set: (AUG-CC-PVTZ AUX)
    Blend: AUG-CC-PVTZ-JKFIT
	 Reference Energy          =    -412.6211116233727125 [Eh]
	 Singles Energy            =      -0.0000000000000000 [Eh]
	 Same-Spin Energy          =      -0.4146933058258885 [Eh]
	 Opposite-Spin Energy      =      -1.2282370588144202 [Eh]
	 Correlation Energy        =      -1.6429303646403088 [Eh]
	 Total Energy              =    -414.2640419880130480 [Eh]

	 ================> DF-SCS-MP2 Energies <==================
	-----------------------------------------------------------
	 SCS Same-Spin Scale       =       0.3333333333333333 [-]
	 SCS Opposite-Spin Scale   =       1.2000000000000000 [-]
	 SCS Same-Spin Energy      =      -0.1382311019419628 [Eh]
	 SCS Opposite-Spin Energy  =      -1.4738844705773042 [Eh]
	 SCS Correlation Energy    =      -1.6121155725192671 [Eh]
	 SCS Total Energy          =    -414.2332271958919705 [Eh]
	-----------------------------------------------------------

  Dipole Moment: [D]
     X:    -1.1768      Y:     4.1919      Z:     0.0000     Total:     4.3540

*** Psi4 exiting successfully. Buy a developer a beer!
