                               Psi4 1.3.2 release

  ==> Input File <==

--------------------------------------------------------------------------
#psi4
#
memory 32 gb

molecule  {
0 1
  N       -0.0337150    -0.9783820    -0.0001030
  H       -0.0465630    -1.9952990     0.0000230
  C       -1.2924060    -0.3478390    -0.0002800
  O       -2.3237930    -1.0132930     0.0001830
  C       -1.2062280     1.1067970     0.0000000
  H       -2.2961602     1.7816713     0.0002180
  C        0.0030670     1.7105540     0.0000260
  H        0.1229620     2.7891690     0.0001530
  N        1.1742530     0.9863660    -0.0000120
  H        2.0766210     1.4468080     0.0000740
  C        1.2261220    -0.4021520    -0.0000880
  O        2.2745420    -1.0338450     0.0001200
units angstrom
no_reorient  #important for SAPT in psi4, default
symmetry c1  #important for SAPT in psi4, default
}

set PROPERTIES_ORIGIN ["COM"]
properties('MP2/aug-cc-pvtz', properties = ['dipole'])
--------------------------------------------------------------------------

    Molecular point group: c1
  Charge       = 0
  Multiplicity = 1
  Basis Set: AUG-CC-PVTZ
    Blend: AUG-CC-PVTZ
  Basis Set: (AUG-CC-PVTZ AUX)
    Blend: AUG-CC-PVTZ-JKFIT

    Orbital Energies [Eh]
    ---------------------

    Doubly Occupied:

       1A    -20.549980     2A    -20.544257     3A    -15.647929
       4A    -15.631963     5A    -11.423679     6A    -11.386915
       7A    -11.345417     8A    -11.279003     9A     -1.432273
      10A     -1.394242    11A     -1.311336    12A     -1.244447
      13A     -1.083944    14A     -0.931079    15A     -0.901405
      16A     -0.791888    17A     -0.763704    18A     -0.713712
      19A     -0.677355    20A     -0.667374    21A     -0.646635
      22A     -0.613270    23A     -0.569342    24A     -0.562517
      25A     -0.525641    26A     -0.484547    27A     -0.451161
      28A     -0.437898    29A     -0.370951

  @DF-RHF Final Energy:  -412.59815892998915

   => Energetics <=

    Nuclear Repulsion Energy =            354.4414510715260462
    One-Electron Energy =               -1265.3114950832825798
    Two-Electron Energy =                 498.2718850817674365
    Total Energy =                       -412.5981589299891539
  Basis Set: (AUG-CC-PVTZ AUX)
    Blend: AUG-CC-PVTZ-RI
    Molecular point group: c1

    Geometry (in Angstrom), charge = 0, multiplicity = 1:

       Center              X                  Y                   Z               Mass
    ------------   -----------------  -----------------  -----------------  -----------------
         N           -0.031980352847    -0.944730796856    -0.000099463073    14.003074004430
         H           -0.044828352847    -1.961647796856     0.000026536927     1.007825032230
         C           -1.290671352847    -0.314187796856    -0.000276463073    12.000000000000
         O           -2.322058352847    -0.979641796856     0.000186536927    15.994914619570
         C           -1.204493352847     1.140448203144     0.000003536927    12.000000000000
         H           -2.294425552847     1.815322503144     0.000221536927     1.007825032230
         C            0.004801647153     1.744205203144     0.000029536927    12.000000000000
         H            0.124696647153     2.822820203144     0.000156536927     1.007825032230
         N            1.175987647153     1.020017203144    -0.000008463073    14.003074004430
         H            2.078355647153     1.480459203144     0.000077536927     1.007825032230
         C            1.227856647153    -0.368500796856    -0.000084463073    12.000000000000
         O            2.276276647153    -1.000193796856     0.000123536927    15.994914619570

  Basis Set: AUG-CC-PVTZ
    Blend: AUG-CC-PVTZ
  Basis Set: (AUG-CC-PVTZ AUX)
    Blend: AUG-CC-PVTZ-JKFIT
	 Reference Energy          =    -412.5981589299891539 [Eh]
	 Singles Energy            =      -0.0000000000000000 [Eh]
	 Same-Spin Energy          =      -0.4152037668188918 [Eh]
	 Opposite-Spin Energy      =      -1.2303242683158233 [Eh]
	 Correlation Energy        =      -1.6455280351347152 [Eh]
	 Total Energy              =    -414.2436869651238567 [Eh]

	 ================> DF-SCS-MP2 Energies <==================
	-----------------------------------------------------------
	 SCS Same-Spin Scale       =       0.3333333333333333 [-]
	 SCS Opposite-Spin Scale   =       1.2000000000000000 [-]
	 SCS Same-Spin Energy      =      -0.1384012556062973 [Eh]
	 SCS Opposite-Spin Energy  =      -1.4763891219789880 [Eh]
	 SCS Correlation Energy    =      -1.6147903775852852 [Eh]
	 SCS Total Energy          =    -414.2129493075744335 [Eh]
	-----------------------------------------------------------

  Dipole Moment: [D]
     X:     1.1339      Y:     4.1816      Z:    -0.0005     Total:     4.3326

*** Psi4 exiting successfully. Buy a developer a beer!
