                               Psi4 1.3.2 release

  ==> Input File <==

--------------------------------------------------------------------------
#psi4
#
memory 32 gb

molecule  {
0 1
  N       -0.0337150    -0.9783820    -0.0001030
  H       -0.0465630    -1.9952990     0.0000230
  C       -1.2924060    -0.3478390    -0.0002800
  O       -2.3237930    -1.0132930     0.0001830
  C       -1.2062280     1.1067970     0.0000000
  H       -2.1261180     1.6763830     0.0001840
  C        0.0030670     1.7105540     0.0000260
  H        0.1229620     2.7891690     0.0001530
  N        1.1742530     0.9863660    -0.0000120
  H        1.8984726     1.3559061     0.0000570
  C        1.2261220    -0.4021520    -0.0000880
  O        2.2745420    -1.0338450     0.0001200
units angstrom
no_reorient  #important for SAPT in psi4, default
symmetry c1  #important for SAPT in psi4, default
}

set PROPERTIES_ORIGIN ["COM"]
properties('MP2/aug-cc-pvtz', properties = ['dipole'])
--------------------------------------------------------------------------

    Molecular point group: c1
  Charge       = 0
  Multiplicity = 1
  Basis Set: AUG-CC-PVTZ
    Blend: AUG-CC-PVTZ
  Basis Set: (AUG-CC-PVTZ AUX)
    Blend: AUG-CC-PVTZ-JKFIT

    Orbital Energies [Eh]
    ---------------------

    Doubly Occupied:

       1A    -20.551671     2A    -20.546004     3A    -15.631775
       4A    -15.628464     5A    -11.424750     6A    -11.386977
       7A    -11.345938     8A    -11.261885     9A     -1.437674
      10A     -1.396172    11A     -1.330031    12A     -1.254390
      13A     -1.098274    14A     -0.934956    15A     -0.926147
      16A     -0.834585    17A     -0.767379    18A     -0.717636
      19A     -0.687533    20A     -0.669336    21A     -0.655919
      22A     -0.620932    23A     -0.602650    24A     -0.571301
      25A     -0.528221    26A     -0.485893    27A     -0.452403
      28A     -0.438655    29A     -0.373901

  @DF-RHF Final Energy:  -412.57620978592774

   => Energetics <=

    Nuclear Repulsion Energy =            356.8018940589312820
    One-Electron Energy =               -1269.6333064873431340
    Two-Electron Energy =                 500.2552026424840506
    Total Energy =                       -412.5762097859277446
  Basis Set: (AUG-CC-PVTZ AUX)
    Blend: AUG-CC-PVTZ-RI
    Molecular point group: c1

    Geometry (in Angstrom), charge = 0, multiplicity = 1:

       Center              X                  Y                   Z               Mass
    ------------   -----------------  -----------------  -----------------  -----------------
         N           -0.031907427472    -0.942965821403    -0.000099004265    14.003074004430
         H           -0.044755427472    -1.959882821403     0.000026995735     1.007825032230
         C           -1.290598427472    -0.312422821403    -0.000276004265    12.000000000000
         O           -2.321985427472    -0.977876821403     0.000186995735    15.994914619570
         C           -1.204420427472     1.142213178597     0.000003995735    12.000000000000
         H           -2.124310427472     1.711799178597     0.000187995735     1.007825032230
         C            0.004874572528     1.745970178597     0.000029995735    12.000000000000
         H            0.124769572528     2.824585178597     0.000156995735     1.007825032230
         N            1.176060572528     1.021782178597    -0.000008004265    14.003074004430
         H            1.900280172528     1.391322278597     0.000060995735     1.007825032230
         C            1.227929572528    -0.366735821403    -0.000084004265    12.000000000000
         O            2.276349572528    -0.998428821403     0.000123995735    15.994914619570

  Basis Set: AUG-CC-PVTZ
    Blend: AUG-CC-PVTZ
  Basis Set: (AUG-CC-PVTZ AUX)
    Blend: AUG-CC-PVTZ-JKFIT
	 Reference Energy          =    -412.5762097859277446 [Eh]
	 Singles Energy            =      -0.0000000000000000 [Eh]
	 Same-Spin Energy          =      -0.4134104990264542 [Eh]
	 Opposite-Spin Energy      =      -1.2259222851008860 [Eh]
	 Correlation Energy        =      -1.6393327841273402 [Eh]
	 Total Energy              =    -414.2155425700551064 [Eh]

	 ================> DF-SCS-MP2 Energies <==================
	-----------------------------------------------------------
	 SCS Same-Spin Scale       =       0.3333333333333333 [-]
	 SCS Opposite-Spin Scale   =       1.2000000000000000 [-]
	 SCS Same-Spin Energy      =      -0.1378034996754847 [Eh]
	 SCS Opposite-Spin Energy  =      -1.4711067421210631 [Eh]
	 SCS Correlation Energy    =      -1.6089102417965477 [Eh]
	 SCS Total Energy          =    -414.1851200277242810 [Eh]
	-----------------------------------------------------------

  Dipole Moment: [D]
     X:     0.9119      Y:     4.0495      Z:    -0.0005     Total:     4.1509

*** Psi4 exiting successfully. Buy a developer a beer!
