                               Psi4 1.4a3.dev225

  ==> Input File <==

--------------------------------------------------------------------------
#psi4
#
memory 32 gb

molecule  {
0 1
  N        0.0336940    -0.9783750    -0.0000010
  H        0.0471450    -1.9953050    -0.0000010
  C        1.2925930    -0.3474800     0.0000000
  O        2.3405098    -1.0242524     0.0000010
  C        1.2062870     1.1068390     0.0000000
  H        2.1256600     1.6771670     0.0000010
  C       -0.0033680     1.7103630     0.0000000
  H       -0.1227300     2.7890550     0.0000000
  N       -1.1742180     0.9864080    -0.0000010
  H       -2.0766200     1.4467250     0.0000010
  C       -1.2259650    -0.4025210     0.0000010
  O       -2.2745920    -1.0337330     0.0000010
units angstrom
no_reorient  #important for SAPT in psi4, default
symmetry c1  #important for SAPT in psi4, default
}

set PROPERTIES_ORIGIN ["COM"]
properties('MP2/aug-cc-pvtz', properties = ['dipole'])
--------------------------------------------------------------------------

    Molecular point group: c1
  Charge       = 0
  Multiplicity = 1
  Basis Set: AUG-CC-PVTZ
    Blend: AUG-CC-PVTZ
  Basis Set: (AUG-CC-PVTZ AUX)
    Blend: AUG-CC-PVTZ-JKFIT

    Orbital Energies [Eh]
    ---------------------

    Doubly Occupied:

       1A    -20.550840     2A    -20.543594     3A    -15.648833
       4A    -15.633248     5A    -11.424587     6A    -11.388773
       7A    -11.346214     8A    -11.261373     9A     -1.432191
      10A     -1.382986    11A     -1.311354    12A     -1.244344
      13A     -1.089813    14A     -0.933554    15A     -0.902937
      16A     -0.806169    17A     -0.763054    18A     -0.714814
      19A     -0.675907    20A     -0.667239    21A     -0.653162
      22A     -0.611489    23A     -0.599969    24A     -0.564402
      25A     -0.526235    26A     -0.484853    27A     -0.450105
      28A     -0.436562    29A     -0.371213

  @DF-RHF Final Energy:  -412.61796811059145

   => Energetics <=

    Nuclear Repulsion Energy =            354.7120664087284467
    One-Electron Energy =               -1265.8204478492873477
    Two-Electron Energy =                 498.4904133299674527
    Total Energy =                       -412.6179681105914483
  Basis Set: (AUG-CC-PVTZ AUX)
    Blend: AUG-CC-PVTZ-RI
    Molecular point group: c1

    Geometry (in Angstrom), charge = 0, multiplicity = 1:

       Center              X                  Y                   Z               Mass
    ------------   -----------------  -----------------  -----------------  -----------------
         N            0.031093571797    -0.942222158587    -0.000001151673    14.003074004430
         H            0.044544571797    -1.959152158587    -0.000001151673     1.007825032230
         C            1.289992571797    -0.311327158587    -0.000000151673    12.000000000000
         O            2.337909371797    -0.988099558587     0.000000848327    15.994914619570
         C            1.203686571797     1.142991841413    -0.000000151673    12.000000000000
         H            2.123059571797     1.713319841413     0.000000848327     1.007825032230
         C           -0.005968428203     1.746515841413    -0.000000151673    12.000000000000
         H           -0.125330428203     2.825207841413    -0.000000151673     1.007825032230
         N           -1.176818428203     1.022560841413    -0.000001151673    14.003074004430
         H           -2.079220428203     1.482877841413     0.000000848327     1.007825032230
         C           -1.228565428203    -0.366368158587     0.000000848327    12.000000000000
         O           -2.277192428203    -0.997580158587     0.000000848327    15.994914619570

  Basis Set: AUG-CC-PVTZ
    Blend: AUG-CC-PVTZ
  Basis Set: (AUG-CC-PVTZ AUX)
    Blend: AUG-CC-PVTZ-JKFIT
	 Reference Energy          =    -412.6179681105914483 [Eh]
	 Singles Energy            =      -0.0000000000000000 [Eh]
	 Same-Spin Energy          =      -0.4152919835521270 [Eh]
	 Opposite-Spin Energy      =      -1.2296314302950808 [Eh]
	 Correlation Energy        =      -1.6449234138472080 [Eh]
	 Total Energy              =    -414.2628915244386576 [Eh]

	 ================> DF-SCS-MP2 Energies <==================
	-----------------------------------------------------------
	 SCS Same-Spin Scale       =       0.3333333333333333 [-]
	 SCS Opposite-Spin Scale   =       1.2000000000000000 [-]
	 SCS Same-Spin Energy      =      -0.1384306611840423 [Eh]
	 SCS Opposite-Spin Energy  =      -1.4755577163540969 [Eh]
	 SCS Correlation Energy    =      -1.6139883775381392 [Eh]
	 SCS Total Energy          =    -414.2319564881295832 [Eh]
	-----------------------------------------------------------

  Dipole Moment: [D]
     X:    -1.2889      Y:     4.2511      Z:     0.0000     Total:     4.4422

*** Psi4 exiting successfully. Buy a developer a beer!
