                               Psi4 1.4a3.dev225

  ==> Input File <==

--------------------------------------------------------------------------
#psi4
#
memory 32 gb

molecule  {
0 1
  N        0.0336940    -0.9783750    -0.0000010
  H        0.0471450    -1.9953050    -0.0000010
  C        1.2925930    -0.3474800     0.0000000
  O        2.3237090    -1.0134020     0.0000010
  C        1.2062870     1.1068390     0.0000000
  H        2.1426554     1.6877100     0.0000010
  C       -0.0033680     1.7103630     0.0000000
  H       -0.1227300     2.7890550     0.0000000
  N       -1.1742180     0.9864080    -0.0000010
  H       -2.0766200     1.4467250     0.0000010
  C       -1.2259650    -0.4025210     0.0000010
  O       -2.2745920    -1.0337330     0.0000010
units angstrom
no_reorient  #important for SAPT in psi4, default
symmetry c1  #important for SAPT in psi4, default
}

set PROPERTIES_ORIGIN ["COM"]
properties('MP2/aug-cc-pvtz', properties = ['dipole'])
--------------------------------------------------------------------------

    Molecular point group: c1
  Charge       = 0
  Multiplicity = 1
  Basis Set: AUG-CC-PVTZ
    Blend: AUG-CC-PVTZ
  Basis Set: (AUG-CC-PVTZ AUX)
    Blend: AUG-CC-PVTZ-JKFIT

    Orbital Energies [Eh]
    ---------------------

    Doubly Occupied:

       1A    -20.549592     2A    -20.544148     3A    -15.647330
       4A    -15.630880     5A    -11.423188     6A    -11.385458
       7A    -11.344669     8A    -11.261808     9A     -1.431806
      10A     -1.394097    11A     -1.310789    12A     -1.243746
      13A     -1.087742    14A     -0.932055    15A     -0.901064
      16A     -0.803182    17A     -0.763148    18A     -0.713474
      19A     -0.676979    20A     -0.666717    21A     -0.651492
      22A     -0.614139    23A     -0.597822    24A     -0.568940
      25A     -0.525122    26A     -0.484380    27A     -0.450772
      28A     -0.437461    29A     -0.370463

  @DF-RHF Final Energy:  -412.62036042385756

   => Energetics <=

    Nuclear Repulsion Energy =            355.2717186405510006
    One-Electron Energy =               -1266.9592278777761294
    Two-Electron Energy =                 499.0671488133676235
    Total Energy =                       -412.6203604238575622
  Basis Set: (AUG-CC-PVTZ AUX)
    Blend: AUG-CC-PVTZ-RI
    Molecular point group: c1

    Geometry (in Angstrom), charge = 0, multiplicity = 1:

       Center              X                  Y                   Z               Mass
    ------------   -----------------  -----------------  -----------------  -----------------
         N            0.033339444212    -0.943866193194    -0.000001151673    14.003074004430
         H            0.046790444212    -1.960796193194    -0.000001151673     1.007825032230
         C            1.292238444212    -0.312971193194    -0.000000151673    12.000000000000
         O            2.323354444212    -0.978893193194     0.000000848327    15.994914619570
         C            1.205932444212     1.141347806806    -0.000000151673    12.000000000000
         H            2.142300844212     1.722218806806     0.000000848327     1.007825032230
         C           -0.003722555788     1.744871806806    -0.000000151673    12.000000000000
         H           -0.123084555788     2.823563806806    -0.000000151673     1.007825032230
         N           -1.174572555788     1.020916806806    -0.000001151673    14.003074004430
         H           -2.076974555788     1.481233806806     0.000000848327     1.007825032230
         C           -1.226319555788    -0.368012193194     0.000000848327    12.000000000000
         O           -2.274946555788    -0.999224193194     0.000000848327    15.994914619570

  Basis Set: AUG-CC-PVTZ
    Blend: AUG-CC-PVTZ
  Basis Set: (AUG-CC-PVTZ AUX)
    Blend: AUG-CC-PVTZ-JKFIT
	 Reference Energy          =    -412.6203604238575622 [Eh]
	 Singles Energy            =      -0.0000000000000000 [Eh]
	 Same-Spin Energy          =      -0.4147687528173717 [Eh]
	 Opposite-Spin Energy      =      -1.2284750196149208 [Eh]
	 Correlation Energy        =      -1.6432437724322926 [Eh]
	 Total Energy              =    -414.2636041962898616 [Eh]

	 ================> DF-SCS-MP2 Energies <==================
	-----------------------------------------------------------
	 SCS Same-Spin Scale       =       0.3333333333333333 [-]
	 SCS Opposite-Spin Scale   =       1.2000000000000000 [-]
	 SCS Same-Spin Energy      =      -0.1382562509391239 [Eh]
	 SCS Opposite-Spin Energy  =      -1.4741700235379049 [Eh]
	 SCS Correlation Energy    =      -1.6124262744770288 [Eh]
	 SCS Total Energy          =    -414.2327866983345643 [Eh]
	-----------------------------------------------------------

  Dipole Moment: [D]
     X:    -1.1669      Y:     4.1915      Z:     0.0000     Total:     4.3509

*** Psi4 exiting successfully. Buy a developer a beer!
