                               Psi4 1.4a3.dev225

  ==> Input File <==

--------------------------------------------------------------------------
#psi4
#
memory 32 gb

molecule  {
0 1
  N        0.0336940    -0.9783750    -0.0000010
  H        0.0471450    -1.9953050    -0.0000010
  C        1.2925930    -0.3474800     0.0000000
  O        2.3237090    -1.0134020     0.0000010
  C        1.2062870     1.1068390     0.0000000
  H        2.1256600     1.6771670     0.0000010
  C       -0.0033680     1.7103630     0.0000000
  H       -0.1282292     2.8387517     0.0000000
  N       -1.1742180     0.9864080    -0.0000010
  H       -2.0766200     1.4467250     0.0000010
  C       -1.2259650    -0.4025210     0.0000010
  O       -2.2745920    -1.0337330     0.0000010
units angstrom
no_reorient  #important for SAPT in psi4, default
symmetry c1  #important for SAPT in psi4, default
}

set PROPERTIES_ORIGIN ["COM"]
properties('MP2/aug-cc-pvtz', properties = ['dipole'])
--------------------------------------------------------------------------

    Molecular point group: c1
  Charge       = 0
  Multiplicity = 1
  Basis Set: AUG-CC-PVTZ
    Blend: AUG-CC-PVTZ
  Basis Set: (AUG-CC-PVTZ AUX)
    Blend: AUG-CC-PVTZ-JKFIT

    Orbital Energies [Eh]
    ---------------------

    Doubly Occupied:

       1A    -20.549739     2A    -20.544234     3A    -15.647633
       4A    -15.630865     5A    -11.423371     6A    -11.385521
       7A    -11.349820     8A    -11.259829     9A     -1.431921
      10A     -1.394196    11A     -1.310705    12A     -1.243656
      13A     -1.087532    14A     -0.928682    15A     -0.900954
      16A     -0.804987    17A     -0.762715    18A     -0.705817
      19A     -0.676364    20A     -0.666827    21A     -0.651339
      22A     -0.613814    23A     -0.598748    24A     -0.569039
      25A     -0.525206    26A     -0.484100    27A     -0.450751
      28A     -0.437534    29A     -0.370554

  @DF-RHF Final Energy:  -412.61847792493262

   => Energetics <=

    Nuclear Repulsion Energy =            355.1211701070757272
    One-Electron Energy =               -1266.6663832937942971
    Two-Electron Energy =                 498.9267352617859501
    Total Energy =                       -412.6184779249326198
  Basis Set: (AUG-CC-PVTZ AUX)
    Blend: AUG-CC-PVTZ-RI
    Molecular point group: c1

    Geometry (in Angstrom), charge = 0, multiplicity = 1:

       Center              X                  Y                   Z               Mass
    ------------   -----------------  -----------------  -----------------  -----------------
         N            0.033541811185    -0.944218429541    -0.000001151673    14.003074004430
         H            0.046992811185    -1.961148429541    -0.000001151673     1.007825032230
         C            1.292440811185    -0.313323429541    -0.000000151673    12.000000000000
         O            2.323556811185    -0.979245429541     0.000000848327    15.994914619570
         C            1.206134811185     1.140995570459    -0.000000151673    12.000000000000
         H            2.125507811185     1.711323570459     0.000000848327     1.007825032230
         C           -0.003520188815     1.744519570459    -0.000000151673    12.000000000000
         H           -0.128381388815     2.872908270459    -0.000000151673     1.007825032230
         N           -1.174370188815     1.020564570459    -0.000001151673    14.003074004430
         H           -2.076772188815     1.480881570459     0.000000848327     1.007825032230
         C           -1.226117188815    -0.368364429541     0.000000848327    12.000000000000
         O           -2.274744188815    -0.999576429541     0.000000848327    15.994914619570

  Basis Set: AUG-CC-PVTZ
    Blend: AUG-CC-PVTZ
  Basis Set: (AUG-CC-PVTZ AUX)
    Blend: AUG-CC-PVTZ-JKFIT
	 Reference Energy          =    -412.6184779249326198 [Eh]
	 Singles Energy            =      -0.0000000000000000 [Eh]
	 Same-Spin Energy          =      -0.4148638534086851 [Eh]
	 Opposite-Spin Energy      =      -1.2287588938646428 [Eh]
	 Correlation Energy        =      -1.6436227472733278 [Eh]
	 Total Energy              =    -414.2621006722059747 [Eh]

	 ================> DF-SCS-MP2 Energies <==================
	-----------------------------------------------------------
	 SCS Same-Spin Scale       =       0.3333333333333333 [-]
	 SCS Opposite-Spin Scale   =       1.2000000000000000 [-]
	 SCS Same-Spin Energy      =      -0.1382879511362284 [Eh]
	 SCS Opposite-Spin Energy  =      -1.4745106726375712 [Eh]
	 SCS Correlation Energy    =      -1.6127986237737995 [Eh]
	 SCS Total Energy          =    -414.2312765487064325 [Eh]
	-----------------------------------------------------------

  Dipole Moment: [D]
     X:    -1.1743      Y:     4.1892      Z:     0.0000     Total:     4.3507

*** Psi4 exiting successfully. Buy a developer a beer!
