                               Psi4 1.3.2 release

  ==> Input File <==

--------------------------------------------------------------------------
#psi4
#
memory 32 gb

molecule  {
0 1
  N       -0.1065199    -1.1064969    -0.0001427
  H       -0.0465630    -1.9952990     0.0000230
  C       -1.2924060    -0.3478390    -0.0002800
  O       -2.3237930    -1.0132930     0.0001830
  C       -1.2062280     1.1067970     0.0000000
  H       -2.1261180     1.6763830     0.0001840
  C        0.0030670     1.7105540     0.0000260
  H        0.1229620     2.7891690     0.0001530
  N        1.1742530     0.9863660    -0.0000120
  H        2.0766210     1.4468080     0.0000740
  C        1.2261220    -0.4021520    -0.0000880
  O        2.2745420    -1.0338450     0.0001200
units angstrom
no_reorient  #important for SAPT in psi4, default
symmetry c1  #important for SAPT in psi4, default
}

set PROPERTIES_ORIGIN ["COM"]
properties('MP2/aug-cc-pvtz', properties = ['dipole'])
--------------------------------------------------------------------------

    Molecular point group: c1
  Charge       = 0
  Multiplicity = 1
  Basis Set: AUG-CC-PVTZ
    Blend: AUG-CC-PVTZ
  Basis Set: (AUG-CC-PVTZ AUX)
    Blend: AUG-CC-PVTZ-JKFIT

    Orbital Energies [Eh]
    ---------------------

    Doubly Occupied:

       1A    -20.559482     2A    -20.532822     3A    -15.654478
       4A    -15.617534     5A    -11.432957     6A    -11.379609
       7A    -11.347141     8A    -11.264543     9A     -1.428614
      10A     -1.391263    11A     -1.309627    12A     -1.234960
      13A     -1.089265    14A     -0.943950    15A     -0.871747
      16A     -0.823500    17A     -0.758067    18A     -0.733678
      19A     -0.675852    20A     -0.656475    21A     -0.654596
      22A     -0.613740    23A     -0.605961    24A     -0.569755
      25A     -0.524560    26A     -0.486555    27A     -0.440499
      28A     -0.430051    29A     -0.372804

  @DF-RHF Final Energy:  -412.58981914646301

   => Energetics <=

    Nuclear Repulsion Energy =            353.1541548507530024
    One-Electron Energy =               -1262.6797780998736016
    Two-Electron Energy =                 496.9358041026575847
    Total Energy =                       -412.5898191464630145
  Basis Set: (AUG-CC-PVTZ AUX)
    Blend: AUG-CC-PVTZ-RI
    Molecular point group: c1

    Geometry (in Angstrom), charge = 0, multiplicity = 1:

       Center              X                  Y                   Z               Mass
    ------------   -----------------  -----------------  -----------------  -----------------
         N           -0.097214600085    -1.055884518698    -0.000133894820    14.003074004430
         H           -0.037257700085    -1.944686618698     0.000031805180     1.007825032230
         C           -1.283100700085    -0.297226618698    -0.000271194820    12.000000000000
         O           -2.314487700085    -0.962680618698     0.000191805180    15.994914619570
         C           -1.196922700085     1.157409381302     0.000008805180    12.000000000000
         H           -2.116812700085     1.726995381302     0.000192805180     1.007825032230
         C            0.012372299915     1.761166381302     0.000034805180    12.000000000000
         H            0.132267299915     2.839781381302     0.000161805180     1.007825032230
         N            1.183558299915     1.036978381302    -0.000003194820    14.003074004430
         H            2.085926299915     1.497420381302     0.000082805180     1.007825032230
         C            1.235427299915    -0.351539618698    -0.000079194820    12.000000000000
         O            2.283847299915    -0.983232618698     0.000128805180    15.994914619570

  Basis Set: AUG-CC-PVTZ
    Blend: AUG-CC-PVTZ
  Basis Set: (AUG-CC-PVTZ AUX)
    Blend: AUG-CC-PVTZ-JKFIT
	 Reference Energy          =    -412.5898191464630145 [Eh]
	 Singles Energy            =      -0.0000000000000000 [Eh]
	 Same-Spin Energy          =      -0.4135248479691043 [Eh]
	 Opposite-Spin Energy      =      -1.2285898908593875 [Eh]
	 Correlation Energy        =      -1.6421147388284918 [Eh]
	 Total Energy              =    -414.2319338852914825 [Eh]

	 ================> DF-SCS-MP2 Energies <==================
	-----------------------------------------------------------
	 SCS Same-Spin Scale       =       0.3333333333333333 [-]
	 SCS Opposite-Spin Scale   =       1.2000000000000000 [-]
	 SCS Same-Spin Energy      =      -0.1378416159897014 [Eh]
	 SCS Opposite-Spin Energy  =      -1.4743078690312650 [Eh]
	 SCS Correlation Energy    =      -1.6121494850209663 [Eh]
	 SCS Total Energy          =    -414.2019686314839646 [Eh]
	-----------------------------------------------------------

  Dipole Moment: [D]
     X:     1.5977      Y:     4.4373      Z:    -0.0004     Total:     4.7162

*** Psi4 exiting successfully. Buy a developer a beer!
