                               Psi4 1.3.2 release

  ==> Input File <==

--------------------------------------------------------------------------
#psi4
#
memory 32 gb

molecule  {
0 1
  N       -0.0870459    -0.8435365    -0.0000950
  H       -0.0465630    -1.9952990     0.0000230
  C       -1.2924060    -0.3478390    -0.0002800
  O       -2.3237930    -1.0132930     0.0001830
  C       -1.2062280     1.1067970     0.0000000
  H       -2.1261180     1.6763830     0.0001840
  C        0.0030670     1.7105540     0.0000260
  H        0.1229620     2.7891690     0.0001530
  N        1.1742530     0.9863660    -0.0000120
  H        2.0766210     1.4468080     0.0000740
  C        1.2261220    -0.4021520    -0.0000880
  O        2.2745420    -1.0338450     0.0001200
units angstrom
no_reorient  #important for SAPT in psi4, default
symmetry c1  #important for SAPT in psi4, default
}

set PROPERTIES_ORIGIN ["COM"]
properties('MP2/aug-cc-pvtz', properties = ['dipole'])
--------------------------------------------------------------------------

    Molecular point group: c1
  Charge       = 0
  Multiplicity = 1
  Basis Set: AUG-CC-PVTZ
    Blend: AUG-CC-PVTZ
  Basis Set: (AUG-CC-PVTZ AUX)
    Blend: AUG-CC-PVTZ-JKFIT

    Orbital Energies [Eh]
    ---------------------

    Doubly Occupied:

       1A    -20.563292     2A    -20.533549     3A    -15.644985
       4A    -15.643868     5A    -11.434157     6A    -11.374312
       7A    -11.338601     8A    -11.254355     9A     -1.441299
      10A     -1.396225    11A     -1.320525    12A     -1.252367
      13A     -1.088333    14A     -0.937804    15A     -0.922613
      16A     -0.796287    17A     -0.762681    18A     -0.691970
      19A     -0.679249    20A     -0.673248    21A     -0.657355
      22A     -0.611688    23A     -0.577592    24A     -0.577189
      25A     -0.524810    26A     -0.490108    27A     -0.449144
      28A     -0.440795    29A     -0.368205

  @DF-RHF Final Energy:  -412.58691284202308

   => Energetics <=

    Nuclear Repulsion Energy =            357.7096096282261897
    One-Electron Energy =               -1271.6998301699741205
    Two-Electron Energy =                 501.4033076997248486
    Total Energy =                       -412.5869128420230822
  Basis Set: (AUG-CC-PVTZ AUX)
    Blend: AUG-CC-PVTZ-RI
    Molecular point group: c1

    Geometry (in Angstrom), charge = 0, multiplicity = 1:

       Center              X                  Y                   Z               Mass
    ------------   -----------------  -----------------  -----------------  -----------------
         N           -0.080174791735    -0.825793380789    -0.000092157177    14.003074004430
         H           -0.039691891735    -1.977555880789     0.000025842823     1.007825032230
         C           -1.285534891735    -0.330095880789    -0.000277157177    12.000000000000
         O           -2.316921891735    -0.995549880789     0.000185842823    15.994914619570
         C           -1.199356891735     1.124540119211     0.000002842823    12.000000000000
         H           -2.119246891735     1.694126119211     0.000186842823     1.007825032230
         C            0.009938108265     1.728297119211     0.000028842823    12.000000000000
         H            0.129833108265     2.806912119211     0.000155842823     1.007825032230
         N            1.181124108265     1.004109119211    -0.000009157177    14.003074004430
         H            2.083492108265     1.464551119211     0.000076842823     1.007825032230
         C            1.232993108265    -0.384408880789    -0.000085157177    12.000000000000
         O            2.281413108265    -1.016101880789     0.000122842823    15.994914619570

  Basis Set: AUG-CC-PVTZ
    Blend: AUG-CC-PVTZ
  Basis Set: (AUG-CC-PVTZ AUX)
    Blend: AUG-CC-PVTZ-JKFIT
	 Reference Energy          =    -412.5869128420230822 [Eh]
	 Singles Energy            =      -0.0000000000000000 [Eh]
	 Same-Spin Energy          =      -0.4176858880876569 [Eh]
	 Opposite-Spin Energy      =      -1.2328751457335283 [Eh]
	 Correlation Energy        =      -1.6505610338211851 [Eh]
	 Total Energy              =    -414.2374738758442732 [Eh]

	 ================> DF-SCS-MP2 Energies <==================
	-----------------------------------------------------------
	 SCS Same-Spin Scale       =       0.3333333333333333 [-]
	 SCS Opposite-Spin Scale   =       1.2000000000000000 [-]
	 SCS Same-Spin Energy      =      -0.1392286293625523 [Eh]
	 SCS Opposite-Spin Energy  =      -1.4794501748802340 [Eh]
	 SCS Correlation Energy    =      -1.6186788042427862 [Eh]
	 SCS Total Energy          =    -414.2055916462658729 [Eh]
	-----------------------------------------------------------

  Dipole Moment: [D]
     X:     1.6880      Y:     3.9925      Z:    -0.0006     Total:     4.3347

*** Psi4 exiting successfully. Buy a developer a beer!
