                               Psi4 1.3.2 release

  ==> Input File <==

--------------------------------------------------------------------------
#psi4
#
memory 32 gb

molecule  {
0 1
  N       -0.0337150    -0.9783820    -0.0001030
  H       -0.0465630    -1.9952990     0.0000230
  C       -1.2924060    -0.3478390    -0.0002800
  O       -2.3237930    -1.0132930     0.0001830
  C       -1.2062280     1.1067970     0.0000000
  H       -2.1261180     1.6763830     0.0001840
  C        0.0030670     1.7105540     0.0000260
  H        0.1450572     2.9879448     0.0001764
  N        1.1742530     0.9863660    -0.0000120
  H        2.0766210     1.4468080     0.0000740
  C        1.2261220    -0.4021520    -0.0000880
  O        2.2745420    -1.0338450     0.0001200
units angstrom
no_reorient  #important for SAPT in psi4, default
symmetry c1  #important for SAPT in psi4, default
}

set PROPERTIES_ORIGIN ["COM"]
properties('MP2/aug-cc-pvtz', properties = ['dipole'])
--------------------------------------------------------------------------

    Molecular point group: c1
  Charge       = 0
  Multiplicity = 1
  Basis Set: AUG-CC-PVTZ
    Blend: AUG-CC-PVTZ
  Basis Set: (AUG-CC-PVTZ AUX)
    Blend: AUG-CC-PVTZ-JKFIT

    Orbital Energies [Eh]
    ---------------------

    Doubly Occupied:

       1A    -20.550364     2A    -20.544727     3A    -15.648838
       4A    -15.631278     5A    -11.424185     6A    -11.386360
       7A    -11.363822     8A    -11.260621     9A     -1.432493
      10A     -1.394702    11A     -1.310915    12A     -1.243846
      13A     -1.086165    14A     -0.921450    15A     -0.900756
      16A     -0.805339    17A     -0.762428    18A     -0.690928
      19A     -0.673362    20A     -0.667467    21A     -0.646517
      22A     -0.612223    23A     -0.587293    24A     -0.569621
      25A     -0.525710    26A     -0.482980    27A     -0.450926
      28A     -0.437999    29A     -0.371120

  @DF-RHF Final Energy:  -412.59825823181450

   => Energetics <=

    Nuclear Repulsion Energy =            354.4378806979991055
    One-Electron Energy =               -1265.3034109946011085
    Two-Electron Energy =                 498.2672720647874485
    Total Energy =                       -412.5982582318144978
  Basis Set: (AUG-CC-PVTZ AUX)
    Blend: AUG-CC-PVTZ-RI
    Molecular point group: c1

    Geometry (in Angstrom), charge = 0, multiplicity = 1:

       Center              X                  Y                   Z               Mass
    ------------   -----------------  -----------------  -----------------  -----------------
         N           -0.033708868311    -0.945571833476    -0.000099367713    14.003074004430
         H           -0.046556868311    -1.962488833476     0.000026632287     1.007825032230
         C           -1.292399868311    -0.315028833476    -0.000276367713    12.000000000000
         O           -2.323786868311    -0.980482833476     0.000186632287    15.994914619570
         C           -1.206221868311     1.139607166524     0.000003632287    12.000000000000
         H           -2.126111868311     1.709193166524     0.000187632287     1.007825032230
         C            0.003073131689     1.743364166524     0.000029632287    12.000000000000
         H            0.145063331689     3.020754966524     0.000180032287     1.007825032230
         N            1.174259131689     1.019176166524    -0.000008367713    14.003074004430
         H            2.076627131689     1.479618166524     0.000077632287     1.007825032230
         C            1.226128131689    -0.369341833476    -0.000084367713    12.000000000000
         O            2.274548131689    -1.001034833476     0.000123632287    15.994914619570

  Basis Set: AUG-CC-PVTZ
    Blend: AUG-CC-PVTZ
  Basis Set: (AUG-CC-PVTZ AUX)
    Blend: AUG-CC-PVTZ-JKFIT
	 Reference Energy          =    -412.5982582318144978 [Eh]
	 Singles Energy            =      -0.0000000000000000 [Eh]
	 Same-Spin Energy          =      -0.4153696997258891 [Eh]
	 Opposite-Spin Energy      =      -1.2305567591019231 [Eh]
	 Correlation Energy        =      -1.6459264588278122 [Eh]
	 Total Energy              =    -414.2441846906423280 [Eh]

	 ================> DF-SCS-MP2 Energies <==================
	-----------------------------------------------------------
	 SCS Same-Spin Scale       =       0.3333333333333333 [-]
	 SCS Opposite-Spin Scale   =       1.2000000000000000 [-]
	 SCS Same-Spin Energy      =      -0.1384565665752964 [Eh]
	 SCS Opposite-Spin Energy  =      -1.4766681109223077 [Eh]
	 SCS Correlation Energy    =      -1.6151246774976040 [Eh]
	 SCS Total Energy          =    -414.2133829093120880 [Eh]
	-----------------------------------------------------------

  Dipole Moment: [D]
     X:     1.1778      Y:     4.1622      Z:    -0.0005     Total:     4.3257

*** Psi4 exiting successfully. Buy a developer a beer!
