                               Psi4 1.3.2 release

  ==> Input File <==

--------------------------------------------------------------------------
#psi4
#
memory 32 gb

molecule  {
0 1
  N       -0.0337150    -0.9783820    -0.0001030
  H       -0.0465630    -1.9952990     0.0000230
  C       -1.1907258    -0.3503071    -0.0002883
  O       -2.3237930    -1.0132930     0.0001830
  C       -1.2062280     1.1067970     0.0000000
  H       -2.1261180     1.6763830     0.0001840
  C        0.0030670     1.7105540     0.0000260
  H        0.1229620     2.7891690     0.0001530
  N        1.1742530     0.9863660    -0.0000120
  H        2.0766210     1.4468080     0.0000740
  C        1.2261220    -0.4021520    -0.0000880
  O        2.2745420    -1.0338450     0.0001200
units angstrom
no_reorient  #important for SAPT in psi4, default
symmetry c1  #important for SAPT in psi4, default
}

set PROPERTIES_ORIGIN ["COM"]
properties('MP2/aug-cc-pvtz', properties = ['dipole'])
--------------------------------------------------------------------------

    Molecular point group: c1
  Charge       = 0
  Multiplicity = 1
  Basis Set: AUG-CC-PVTZ
    Blend: AUG-CC-PVTZ
  Basis Set: (AUG-CC-PVTZ AUX)
    Blend: AUG-CC-PVTZ-JKFIT

    Orbital Energies [Eh]
    ---------------------

    Doubly Occupied:

       1A    -20.560216     2A    -20.523262     3A    -15.654017
       4A    -15.647576     5A    -11.433428     6A    -11.382432
       7A    -11.344512     8A    -11.263919     9A     -1.443718
      10A     -1.363642    11A     -1.309001    12A     -1.256430
      13A     -1.091784    14A     -0.938454    15A     -0.923992
      16A     -0.817496    17A     -0.768240    18A     -0.726454
      19A     -0.679645    20A     -0.676359    21A     -0.654020
      22A     -0.612199    23A     -0.578522    24A     -0.562757
      25A     -0.530489    26A     -0.488107    27A     -0.436260
      28A     -0.430079    29A     -0.369502

  @DF-RHF Final Energy:  -412.60203249855681

   => Energetics <=

    Nuclear Repulsion Energy =            356.1091859972596581
    One-Electron Energy =               -1268.4894072165741363
    Two-Electron Energy =                 499.7781887207577256
    Total Energy =                       -412.6020324985568095
  Basis Set: (AUG-CC-PVTZ AUX)
    Blend: AUG-CC-PVTZ-RI
    Molecular point group: c1

    Geometry (in Angstrom), charge = 0, multiplicity = 1:

       Center              X                  Y                   Z               Mass
    ------------   -----------------  -----------------  -----------------  -----------------
         N           -0.044401748942    -0.943519222429    -0.000098268132    14.003074004430
         H           -0.057249748942    -1.960436222429     0.000027731868     1.007825032230
         C           -1.201412548942    -0.315444322429    -0.000283568132    12.000000000000
         O           -2.334479748942    -0.978430222429     0.000187731868    15.994914619570
         C           -1.216914748942     1.141659777571     0.000004731868    12.000000000000
         H           -2.136804748942     1.711245777571     0.000188731868     1.007825032230
         C           -0.007619748942     1.745416777571     0.000030731868    12.000000000000
         H            0.112275251058     2.824031777571     0.000157731868     1.007825032230
         N            1.163566251058     1.021228777571    -0.000007268132    14.003074004430
         H            2.065934251058     1.481670777571     0.000078731868     1.007825032230
         C            1.215435251058    -0.367289222429    -0.000083268132    12.000000000000
         O            2.263855251058    -0.998982222429     0.000124731868    15.994914619570

  Basis Set: AUG-CC-PVTZ
    Blend: AUG-CC-PVTZ
  Basis Set: (AUG-CC-PVTZ AUX)
    Blend: AUG-CC-PVTZ-JKFIT
	 Reference Energy          =    -412.6020324985568095 [Eh]
	 Singles Energy            =      -0.0000000000000000 [Eh]
	 Same-Spin Energy          =      -0.4164688792390242 [Eh]
	 Opposite-Spin Energy      =      -1.2314146241490058 [Eh]
	 Correlation Energy        =      -1.6478835033880301 [Eh]
	 Total Energy              =    -414.2499160019448254 [Eh]

	 ================> DF-SCS-MP2 Energies <==================
	-----------------------------------------------------------
	 SCS Same-Spin Scale       =       0.3333333333333333 [-]
	 SCS Opposite-Spin Scale   =       1.2000000000000000 [-]
	 SCS Same-Spin Energy      =      -0.1388229597463414 [Eh]
	 SCS Opposite-Spin Energy  =      -1.4776975489788069 [Eh]
	 SCS Correlation Energy    =      -1.6165205087251482 [Eh]
	 SCS Total Energy          =    -414.2185530072819688 [Eh]
	-----------------------------------------------------------

  Dipole Moment: [D]
     X:     1.9981      Y:     4.2702      Z:    -0.0005     Total:     4.7146

*** Psi4 exiting successfully. Buy a developer a beer!
