                               Psi4 1.3.2 release

  ==> Input File <==

--------------------------------------------------------------------------
#psi4
#
memory 32 gb

molecule  {
0 1
  N       -0.0564874    -1.0219256    -0.0001160
  H       -0.0465630    -1.9952990     0.0000230
  C       -1.2924060    -0.3478390    -0.0002800
  O       -2.3237930    -1.0132930     0.0001830
  C       -1.2062280     1.1067970     0.0000000
  H       -2.1261180     1.6763830     0.0001840
  C        0.0030670     1.7105540     0.0000260
  H        0.1229620     2.7891690     0.0001530
  N        1.1742530     0.9863660    -0.0000120
  H        2.0766210     1.4468080     0.0000740
  C        1.2261220    -0.4021520    -0.0000880
  O        2.2745420    -1.0338450     0.0001200
units angstrom
no_reorient  #important for SAPT in psi4, default
symmetry c1  #important for SAPT in psi4, default
}

set PROPERTIES_ORIGIN ["COM"]
properties('MP2/aug-cc-pvtz', properties = ['dipole'])
--------------------------------------------------------------------------

    Molecular point group: c1
  Charge       = 0
  Multiplicity = 1
  Basis Set: AUG-CC-PVTZ
    Blend: AUG-CC-PVTZ
  Basis Set: (AUG-CC-PVTZ AUX)
    Blend: AUG-CC-PVTZ-JKFIT

    Orbital Energies [Eh]
    ---------------------

    Doubly Occupied:

       1A    -20.552979     2A    -20.540141     3A    -15.649837
       4A    -15.626517     5A    -11.426857     6A    -11.382825
       7A    -11.345366     8A    -11.261263     9A     -1.430272
      10A     -1.392922    11A     -1.309800    12A     -1.240422
      13A     -1.088283    14A     -0.936039    15A     -0.890036
      16A     -0.810208    17A     -0.761647    18A     -0.721890
      19A     -0.676845    20A     -0.662750    21A     -0.653317
      22A     -0.612099    23A     -0.605689    24A     -0.569062
      25A     -0.524878    26A     -0.485476    27A     -0.447645
      28A     -0.434984    29A     -0.371263

  @DF-RHF Final Energy:  -412.61849718402556

   => Energetics <=

    Nuclear Repulsion Energy =            354.5970866239219390
    One-Electron Energy =               -1265.6085463441663705
    Two-Electron Energy =                 498.3929625362188176
    Total Energy =                       -412.6184971840255571
  Basis Set: (AUG-CC-PVTZ AUX)
    Blend: AUG-CC-PVTZ-RI
    Molecular point group: c1

    Geometry (in Angstrom), charge = 0, multiplicity = 1:

       Center              X                  Y                   Z               Mass
    ------------   -----------------  -----------------  -----------------  -----------------
         N           -0.053436012673    -0.981884377797    -0.000110532240    14.003074004430
         H           -0.043511612673    -1.955257777797     0.000028467760     1.007825032230
         C           -1.289354612673    -0.307797777797    -0.000274532240    12.000000000000
         O           -2.320741612673    -0.973251777797     0.000188467760    15.994914619570
         C           -1.203176612673     1.146838222203     0.000005467760    12.000000000000
         H           -2.123066612673     1.716424222203     0.000189467760     1.007825032230
         C            0.006118387327     1.750595222203     0.000031467760    12.000000000000
         H            0.126013387327     2.829210222203     0.000158467760     1.007825032230
         N            1.177304387327     1.026407222203    -0.000006532240    14.003074004430
         H            2.079672387327     1.486849222203     0.000079467760     1.007825032230
         C            1.229173387327    -0.362110777797    -0.000082532240    12.000000000000
         O            2.277593387327    -0.993803777797     0.000125467760    15.994914619570

  Basis Set: AUG-CC-PVTZ
    Blend: AUG-CC-PVTZ
  Basis Set: (AUG-CC-PVTZ AUX)
    Blend: AUG-CC-PVTZ-JKFIT
	 Reference Energy          =    -412.6184971840255571 [Eh]
	 Singles Energy            =      -0.0000000000000000 [Eh]
	 Same-Spin Energy          =      -0.4141274450363700 [Eh]
	 Opposite-Spin Energy      =      -1.2279402407859696 [Eh]
	 Correlation Energy        =      -1.6420676858223398 [Eh]
	 Total Energy              =    -414.2605648698478831 [Eh]

	 ================> DF-SCS-MP2 Energies <==================
	-----------------------------------------------------------
	 SCS Same-Spin Scale       =       0.3333333333333333 [-]
	 SCS Opposite-Spin Scale   =       1.2000000000000000 [-]
	 SCS Same-Spin Energy      =      -0.1380424816787900 [Eh]
	 SCS Opposite-Spin Energy  =      -1.4735282889431636 [Eh]
	 SCS Correlation Energy    =      -1.6115707706219535 [Eh]
	 SCS Total Energy          =    -414.2300679546474953 [Eh]
	-----------------------------------------------------------

  Dipole Moment: [D]
     X:     1.3197      Y:     4.2699      Z:    -0.0005     Total:     4.4691

*** Psi4 exiting successfully. Buy a developer a beer!
