                               Psi4 1.3.2 release

  ==> Input File <==

--------------------------------------------------------------------------
#psi4
#
memory 32 gb

molecule  {
0 1
  N       -0.0449112    -1.0002532    -0.0001095
  H       -0.0465630    -1.9952990     0.0000230
  C       -1.2924060    -0.3478390    -0.0002800
  O       -2.3237930    -1.0132930     0.0001830
  C       -1.2062280     1.1067970     0.0000000
  H       -2.1261180     1.6763830     0.0001840
  C        0.0030670     1.7105540     0.0000260
  H        0.1229620     2.7891690     0.0001530
  N        1.1742530     0.9863660    -0.0000120
  H        2.0766210     1.4468080     0.0000740
  C        1.2261220    -0.4021520    -0.0000880
  O        2.2745420    -1.0338450     0.0001200
units angstrom
no_reorient  #important for SAPT in psi4, default
symmetry c1  #important for SAPT in psi4, default
}

set PROPERTIES_ORIGIN ["COM"]
properties('MP2/aug-cc-pvtz', properties = ['dipole'])
--------------------------------------------------------------------------

    Molecular point group: c1
  Charge       = 0
  Multiplicity = 1
  Basis Set: AUG-CC-PVTZ
    Blend: AUG-CC-PVTZ
  Basis Set: (AUG-CC-PVTZ AUX)
    Blend: AUG-CC-PVTZ-JKFIT

    Orbital Energies [Eh]
    ---------------------

    Doubly Occupied:

       1A    -20.551271     2A    -20.542123     3A    -15.648576
       4A    -15.628675     5A    -11.425043     6A    -11.384002
       7A    -11.344973     8A    -11.260502     9A     -1.430939
      10A     -1.393490    11A     -1.310164    12A     -1.242044
      13A     -1.088297    14A     -0.934123    15A     -0.895464
      16A     -0.807421    17A     -0.762467    18A     -0.717756
      19A     -0.676930    20A     -0.664637    21A     -0.652927
      22A     -0.613438    23A     -0.603340    24A     -0.568984
      25A     -0.524942    26A     -0.484952    27A     -0.449225
      28A     -0.436209    29A     -0.370895

  @DF-RHF Final Energy:  -412.62070584021683

   => Energetics <=

    Nuclear Repulsion Energy =            354.9801281462148381
    One-Electron Energy =               -1266.3740441478223602
    Two-Electron Energy =                 498.7732101613906934
    Total Energy =                       -412.6207058402168286
  Basis Set: (AUG-CC-PVTZ AUX)
    Blend: AUG-CC-PVTZ-RI
    Molecular point group: c1

    Geometry (in Angstrom), charge = 0, multiplicity = 1:

       Center              X                  Y                   Z               Mass
    ------------   -----------------  -----------------  -----------------  -----------------
         N           -0.043306802987    -0.962920962860    -0.000104844720    14.003074004430
         H           -0.044958602987    -1.957966762860     0.000027655280     1.007825032230
         C           -1.290801602987    -0.310506762860    -0.000275344720    12.000000000000
         O           -2.322188602987    -0.975960762860     0.000187655280    15.994914619570
         C           -1.204623602987     1.144129237140     0.000004655280    12.000000000000
         H           -2.124513602987     1.713715237140     0.000188655280     1.007825032230
         C            0.004671397013     1.747886237140     0.000030655280    12.000000000000
         H            0.124566397013     2.826501237140     0.000157655280     1.007825032230
         N            1.175857397013     1.023698237140    -0.000007344720    14.003074004430
         H            2.078225397013     1.484140237140     0.000078655280     1.007825032230
         C            1.227726397013    -0.364819762860    -0.000083344720    12.000000000000
         O            2.276146397013    -0.996512762860     0.000124655280    15.994914619570

  Basis Set: AUG-CC-PVTZ
    Blend: AUG-CC-PVTZ
  Basis Set: (AUG-CC-PVTZ AUX)
    Blend: AUG-CC-PVTZ-JKFIT
	 Reference Energy          =    -412.6207058402168286 [Eh]
	 Singles Energy            =      -0.0000000000000000 [Eh]
	 Same-Spin Energy          =      -0.4144007047553144 [Eh]
	 Opposite-Spin Energy      =      -1.2280816239058794 [Eh]
	 Correlation Energy        =      -1.6424823286611938 [Eh]
	 Total Energy              =    -414.2631881688780027 [Eh]

	 ================> DF-SCS-MP2 Energies <==================
	-----------------------------------------------------------
	 SCS Same-Spin Scale       =       0.3333333333333333 [-]
	 SCS Opposite-Spin Scale   =       1.2000000000000000 [-]
	 SCS Same-Spin Energy      =      -0.1381335682517715 [Eh]
	 SCS Opposite-Spin Energy  =      -1.4736979486870552 [Eh]
	 SCS Correlation Energy    =      -1.6118315169388266 [Eh]
	 SCS Total Energy          =    -414.2325373571556497 [Eh]
	-----------------------------------------------------------

  Dipole Moment: [D]
     X:     1.2461      Y:     4.2306      Z:    -0.0005     Total:     4.4103

*** Psi4 exiting successfully. Buy a developer a beer!
