                               Psi4 1.3.2 release

  ==> Input File <==

--------------------------------------------------------------------------
#psi4
#
memory 32 gb

molecule  {
0 1
  N       -0.0337150    -0.9783820    -0.0001030
  H       -0.0465630    -1.9952990     0.0000230
  C       -1.1398830    -0.3488784    -0.0002919
  O       -2.3237930    -1.0132930     0.0001830
  C       -1.2062280     1.1067970     0.0000000
  H       -2.1261180     1.6763830     0.0001840
  C        0.0030670     1.7105540     0.0000260
  H        0.1229620     2.7891690     0.0001530
  N        1.1742530     0.9863660    -0.0000120
  H        2.0766210     1.4468080     0.0000740
  C        1.2261220    -0.4021520    -0.0000880
  O        2.2745420    -1.0338450     0.0001200
units angstrom
no_reorient  #important for SAPT in psi4, default
symmetry c1  #important for SAPT in psi4, default
}

set PROPERTIES_ORIGIN ["COM"]
properties('MP2/aug-cc-pvtz', properties = ['dipole'])
--------------------------------------------------------------------------

    Molecular point group: c1
  Charge       = 0
  Multiplicity = 1
  Basis Set: AUG-CC-PVTZ
    Blend: AUG-CC-PVTZ
  Basis Set: (AUG-CC-PVTZ AUX)
    Blend: AUG-CC-PVTZ-JKFIT

    Orbital Energies [Eh]
    ---------------------

    Doubly Occupied:

       1A    -20.565442     2A    -20.512450     3A    -15.657515
       4A    -15.655116     5A    -11.438113     6A    -11.379876
       7A    -11.344749     8A    -11.266566     9A     -1.451182
      10A     -1.366903    11A     -1.305723    12A     -1.249091
      13A     -1.093480    14A     -0.943207    15A     -0.934855
      16A     -0.823980    17A     -0.771038    18A     -0.733569
      19A     -0.687194    20A     -0.678726    21A     -0.653497
      22A     -0.617450    23A     -0.566012    24A     -0.559537
      25A     -0.532628    26A     -0.489872    27A     -0.425336
      28A     -0.423676    29A     -0.368198

  @DF-RHF Final Energy:  -412.58212623471695

   => Energetics <=

    Nuclear Repulsion Energy =            356.5740952399728485
    One-Electron Energy =               -1269.3224851305903940
    Two-Electron Energy =                 500.1662636559005932
    Total Energy =                       -412.5821262347169522
  Basis Set: (AUG-CC-PVTZ AUX)
    Blend: AUG-CC-PVTZ-RI
    Molecular point group: c1

    Geometry (in Angstrom), charge = 0, multiplicity = 1:

       Center              X                  Y                   Z               Mass
    ------------   -----------------  -----------------  -----------------  -----------------
         N           -0.049847865408    -0.943672260157    -0.000097882511    14.003074004430
         H           -0.062695865408    -1.960589260157     0.000028117489     1.007825032230
         C           -1.156015865408    -0.314168660157    -0.000286782511    12.000000000000
         O           -2.339925865408    -0.978583260157     0.000188117489    15.994914619570
         C           -1.222360865408     1.141506739843     0.000005117489    12.000000000000
         H           -2.142250865408     1.711092739843     0.000189117489     1.007825032230
         C           -0.013065865408     1.745263739843     0.000031117489    12.000000000000
         H            0.106829134592     2.823878739843     0.000158117489     1.007825032230
         N            1.158120134592     1.021075739843    -0.000006882511    14.003074004430
         H            2.060488134592     1.481517739843     0.000079117489     1.007825032230
         C            1.209989134592    -0.367442260157    -0.000082882511    12.000000000000
         O            2.258409134592    -0.999135260157     0.000125117489    15.994914619570

  Basis Set: AUG-CC-PVTZ
    Blend: AUG-CC-PVTZ
  Basis Set: (AUG-CC-PVTZ AUX)
    Blend: AUG-CC-PVTZ-JKFIT
	 Reference Energy          =    -412.5821262347169522 [Eh]
	 Singles Energy            =      -0.0000000000000000 [Eh]
	 Same-Spin Energy          =      -0.4173939447430295 [Eh]
	 Opposite-Spin Energy      =      -1.2330126221010440 [Eh]
	 Correlation Energy        =      -1.6504065668440735 [Eh]
	 Total Energy              =    -414.2325328015610353 [Eh]

	 ================> DF-SCS-MP2 Energies <==================
	-----------------------------------------------------------
	 SCS Same-Spin Scale       =       0.3333333333333333 [-]
	 SCS Opposite-Spin Scale   =       1.2000000000000000 [-]
	 SCS Same-Spin Energy      =      -0.1391313149143432 [Eh]
	 SCS Opposite-Spin Energy  =      -1.4796151465212528 [Eh]
	 SCS Correlation Energy    =      -1.6187464614355960 [Eh]
	 SCS Total Energy          =    -414.2008726961525440 [Eh]
	-----------------------------------------------------------

  Dipole Moment: [D]
     X:     2.3987      Y:     4.3253      Z:    -0.0005     Total:     4.9459

*** Psi4 exiting successfully. Buy a developer a beer!
