                               Psi4 1.3.2 release

  ==> Input File <==

--------------------------------------------------------------------------
#psi4
#
memory 32 gb

molecule  {
0 1
  N       -0.0337150    -0.9783820    -0.0001030
  H       -0.0465630    -1.9952990     0.0000230
  C       -1.2924060    -0.3478390    -0.0002800
  O       -2.3237930    -1.0132930     0.0001830
  C       -1.2062280     1.1067970     0.0000000
  H       -2.1261180     1.6763830     0.0001840
  C        0.0290543     1.7509866     0.0000283
  H        0.1229620     2.7891690     0.0001530
  N        1.1742530     0.9863660    -0.0000120
  H        2.0766210     1.4468080     0.0000740
  C        1.2261220    -0.4021520    -0.0000880
  O        2.2745420    -1.0338450     0.0001200
units angstrom
no_reorient  #important for SAPT in psi4, default
symmetry c1  #important for SAPT in psi4, default
}

set PROPERTIES_ORIGIN ["COM"]
properties('MP2/aug-cc-pvtz', properties = ['dipole'])
--------------------------------------------------------------------------

    Molecular point group: c1
  Charge       = 0
  Multiplicity = 1
  Basis Set: AUG-CC-PVTZ
    Blend: AUG-CC-PVTZ
  Basis Set: (AUG-CC-PVTZ AUX)
    Blend: AUG-CC-PVTZ-JKFIT

    Orbital Energies [Eh]
    ---------------------

    Doubly Occupied:

       1A    -20.550553     2A    -20.542951     3A    -15.649405
       4A    -15.630901     5A    -11.424911     6A    -11.384914
       7A    -11.348898     8A    -11.263526     9A     -1.432140
      10A     -1.393382    11A     -1.310711    12A     -1.244384
      13A     -1.079555    14A     -0.938733    15A     -0.900483
      16A     -0.802079    17A     -0.763333    18A     -0.725431
      19A     -0.675453    20A     -0.666202    21A     -0.651845
      22A     -0.611958    23A     -0.601066    24A     -0.568828
      25A     -0.523633    26A     -0.486453    27A     -0.450208
      28A     -0.437277    29A     -0.363616

  @DF-RHF Final Energy:  -412.61545264739186

   => Energetics <=

    Nuclear Repulsion Energy =            354.5892301450366517
    One-Electron Energy =               -1265.5637124256013522
    Two-Electron Energy =                 498.3590296331727814
    Total Energy =                       -412.6154526473918622
  Basis Set: (AUG-CC-PVTZ AUX)
    Blend: AUG-CC-PVTZ-RI
    Molecular point group: c1

    Geometry (in Angstrom), charge = 0, multiplicity = 1:

       Center              X                  Y                   Z               Mass
    ------------   -----------------  -----------------  -----------------  -----------------
         N           -0.036293770052    -0.948114606804    -0.000099403570    14.003074004430
         H           -0.049141770052    -1.965031606804     0.000026596430     1.007825032230
         C           -1.294984770052    -0.317571606804    -0.000276403570    12.000000000000
         O           -2.326371770052    -0.983025606804     0.000186596430    15.994914619570
         C           -1.208806770052     1.137064393196     0.000003596430    12.000000000000
         H           -2.128696770052     1.706650393196     0.000187596430     1.007825032230
         C            0.026475529948     1.781253993196     0.000031896430    12.000000000000
         H            0.120383229948     2.819436393196     0.000156596430     1.007825032230
         N            1.171674229948     1.016633393196    -0.000008403570    14.003074004430
         H            2.074042229948     1.477075393196     0.000077596430     1.007825032230
         C            1.223543229948    -0.371884606804    -0.000084403570    12.000000000000
         O            2.271963229948    -1.003577606804     0.000123596430    15.994914619570

  Basis Set: AUG-CC-PVTZ
    Blend: AUG-CC-PVTZ
  Basis Set: (AUG-CC-PVTZ AUX)
    Blend: AUG-CC-PVTZ-JKFIT
	 Reference Energy          =    -412.6154526473918622 [Eh]
	 Singles Energy            =      -0.0000000000000000 [Eh]
	 Same-Spin Energy          =      -0.4152580365922625 [Eh]
	 Opposite-Spin Energy      =      -1.2295665356550818 [Eh]
	 Correlation Energy        =      -1.6448245722473442 [Eh]
	 Total Energy              =    -414.2602772196391925 [Eh]

	 ================> DF-SCS-MP2 Energies <==================
	-----------------------------------------------------------
	 SCS Same-Spin Scale       =       0.3333333333333333 [-]
	 SCS Opposite-Spin Scale   =       1.2000000000000000 [-]
	 SCS Same-Spin Energy      =      -0.1384193455307542 [Eh]
	 SCS Opposite-Spin Energy  =      -1.4754798427860980 [Eh]
	 SCS Correlation Energy    =      -1.6138991883168521 [Eh]
	 SCS Total Energy          =    -414.2293518357087123 [Eh]
	-----------------------------------------------------------

  Dipole Moment: [D]
     X:     1.2370      Y:     4.2234      Z:    -0.0005     Total:     4.4008

*** Psi4 exiting successfully. Buy a developer a beer!
