                               Psi4 1.4a3.dev225

  ==> Input File <==

--------------------------------------------------------------------------
#psi4
#
memory 32 gb

molecule  {
0 1
  N        0.0336940    -0.9783750    -0.0000010
  H        0.0471450    -1.9953050    -0.0000010
  C        1.2925930    -0.3474800     0.0000000
  O        2.3237090    -1.0134020     0.0000010
  C        1.2062870     1.1068390     0.0000000
  H        2.1256600     1.6771670     0.0000010
  C       -0.0033680     1.7103630     0.0000000
  H       -0.1227300     2.7890550     0.0000000
  N       -1.1742180     0.9864080    -0.0000010
  H       -2.0944360     1.4558130     0.0000010
  C       -1.2259650    -0.4025210     0.0000010
  O       -2.2745920    -1.0337330     0.0000010
units angstrom
no_reorient  #important for SAPT in psi4, default
symmetry c1  #important for SAPT in psi4, default
}

set PROPERTIES_ORIGIN ["COM"]
properties('MP2/aug-cc-pvtz', properties = ['dipole'])
--------------------------------------------------------------------------

    Molecular point group: c1
  Charge       = 0
  Multiplicity = 1
  Basis Set: AUG-CC-PVTZ
    Blend: AUG-CC-PVTZ
  Basis Set: (AUG-CC-PVTZ AUX)
    Blend: AUG-CC-PVTZ-JKFIT

    Orbital Energies [Eh]
    ---------------------

    Doubly Occupied:

       1A    -20.549350     2A    -20.543963     3A    -15.648840
       4A    -15.630684     5A    -11.423001     6A    -11.385157
       7A    -11.344502     8A    -11.259497     9A     -1.431348
      10A     -1.393903    11A     -1.309529    12A     -1.242740
      13A     -1.087647    14A     -0.932021    15A     -0.899449
      16A     -0.801915    17A     -0.762596    18A     -0.713013
      19A     -0.675667    20A     -0.666410    21A     -0.652026
      22A     -0.613767    23A     -0.600649    24A     -0.568689
      25A     -0.524771    26A     -0.484201    27A     -0.450562
      28A     -0.437298    29A     -0.370143

  @DF-RHF Final Energy:  -412.61992755936774

   => Energetics <=

    Nuclear Repulsion Energy =            355.2524892075148273
    One-Electron Energy =               -1266.9381608122901071
    Two-Electron Energy =                 499.0657440454075413
    Total Energy =                       -412.6199275593677385
  Basis Set: (AUG-CC-PVTZ AUX)
    Blend: AUG-CC-PVTZ-RI
    Molecular point group: c1

    Geometry (in Angstrom), charge = 0, multiplicity = 1:

       Center              X                  Y                   Z               Mass
    ------------   -----------------  -----------------  -----------------  -----------------
         N            0.033652616157    -0.943853103655    -0.000001151673    14.003074004430
         H            0.047103616157    -1.960783103655    -0.000001151673     1.007825032230
         C            1.292551616157    -0.312958103655    -0.000000151673    12.000000000000
         O            2.323667616157    -0.978880103655     0.000000848327    15.994914619570
         C            1.206245616157     1.141360896345    -0.000000151673    12.000000000000
         H            2.125618616157     1.711688896345     0.000000848327     1.007825032230
         C           -0.003409383843     1.744884896345    -0.000000151673    12.000000000000
         H           -0.122771383843     2.823576896345    -0.000000151673     1.007825032230
         N           -1.174259383843     1.020929896345    -0.000001151673    14.003074004430
         H           -2.094477383843     1.490334896345     0.000000848327     1.007825032230
         C           -1.226006383843    -0.367999103655     0.000000848327    12.000000000000
         O           -2.274633383843    -0.999211103655     0.000000848327    15.994914619570

  Basis Set: AUG-CC-PVTZ
    Blend: AUG-CC-PVTZ
  Basis Set: (AUG-CC-PVTZ AUX)
    Blend: AUG-CC-PVTZ-JKFIT
	 Reference Energy          =    -412.6199275593677385 [Eh]
	 Singles Energy            =      -0.0000000000000000 [Eh]
	 Same-Spin Energy          =      -0.4148851166075945 [Eh]
	 Opposite-Spin Energy      =      -1.2286918602240360 [Eh]
	 Correlation Energy        =      -1.6435769768316304 [Eh]
	 Total Energy              =    -414.2635045361993775 [Eh]

	 ================> DF-SCS-MP2 Energies <==================
	-----------------------------------------------------------
	 SCS Same-Spin Scale       =       0.3333333333333333 [-]
	 SCS Opposite-Spin Scale   =       1.2000000000000000 [-]
	 SCS Same-Spin Energy      =      -0.1382950388691981 [Eh]
	 SCS Opposite-Spin Energy  =      -1.4744302322688432 [Eh]
	 SCS Correlation Energy    =      -1.6127252711380413 [Eh]
	 SCS Total Energy          =    -414.2326528305057991 [Eh]
	-----------------------------------------------------------

  Dipole Moment: [D]
     X:    -1.1987      Y:     4.2064      Z:     0.0000     Total:     4.3738

*** Psi4 exiting successfully. Buy a developer a beer!
