                               Psi4 1.4a3.dev225

  ==> Input File <==

--------------------------------------------------------------------------
#psi4
#
memory 32 gb

molecule  {
0 1
  N        0.0336940    -0.9783750    -0.0000010
  H        0.0471450    -1.9953050    -0.0000010
  C        1.2925930    -0.3474800     0.0000000
  O        2.2817069    -0.9862759     0.0000010
  C        1.2062870     1.1068390     0.0000000
  H        2.1256600     1.6771670     0.0000010
  C       -0.0033680     1.7103630     0.0000000
  H       -0.1227300     2.7890550     0.0000000
  N       -1.1742180     0.9864080    -0.0000010
  H       -2.0766200     1.4467250     0.0000010
  C       -1.2259650    -0.4025210     0.0000010
  O       -2.2745920    -1.0337330     0.0000010
units angstrom
no_reorient  #important for SAPT in psi4, default
symmetry c1  #important for SAPT in psi4, default
}

set PROPERTIES_ORIGIN ["COM"]
properties('MP2/aug-cc-pvtz', properties = ['dipole'])
--------------------------------------------------------------------------

    Molecular point group: c1
  Charge       = 0
  Multiplicity = 1
  Basis Set: AUG-CC-PVTZ
    Blend: AUG-CC-PVTZ
  Basis Set: (AUG-CC-PVTZ AUX)
    Blend: AUG-CC-PVTZ-JKFIT

    Orbital Energies [Eh]
    ---------------------

    Doubly Occupied:

       1A    -20.546318     2A    -20.545216     3A    -15.643443
       4A    -15.624395     5A    -11.419467     6A    -11.376158
       7A    -11.340653     8A    -11.255356     9A     -1.438958
      10A     -1.416710    11A     -1.308452    12A     -1.241387
      13A     -1.084848    14A     -0.929220    15A     -0.896300
      16A     -0.801905    17A     -0.763892    18A     -0.710285
      19A     -0.681419    20A     -0.665957    21A     -0.650750
      22A     -0.621168    23A     -0.602867    24A     -0.581738
      25A     -0.522103    26A     -0.483131    27A     -0.451172
      28A     -0.438930    29A     -0.368395

  @DF-RHF Final Energy:  -412.62364096322381

   => Energetics <=

    Nuclear Repulsion Energy =            357.0933232475047703
    One-Electron Energy =               -1270.6127441235316837
    Two-Electron Energy =                 500.8957799128031638
    Total Energy =                       -412.6236409632238065
  Basis Set: (AUG-CC-PVTZ AUX)
    Blend: AUG-CC-PVTZ-RI
    Molecular point group: c1

    Geometry (in Angstrom), charge = 0, multiplicity = 1:

       Center              X                  Y                   Z               Mass
    ------------   -----------------  -----------------  -----------------  -----------------
         N            0.039489271370    -0.947644327984    -0.000001151673    14.003074004430
         H            0.052940271370    -1.964574327984    -0.000001151673     1.007825032230
         C            1.298388271370    -0.316749327984    -0.000000151673    12.000000000000
         O            2.287502171370    -0.955545227984     0.000000848327    15.994914619570
         C            1.212082271370     1.137569672016    -0.000000151673    12.000000000000
         H            2.131455271370     1.707897672016     0.000000848327     1.007825032230
         C            0.002427271370     1.741093672016    -0.000000151673    12.000000000000
         H           -0.116934728630     2.819785672016    -0.000000151673     1.007825032230
         N           -1.168422728630     1.017138672016    -0.000001151673    14.003074004430
         H           -2.070824728630     1.477455672016     0.000000848327     1.007825032230
         C           -1.220169728630    -0.371790327984     0.000000848327    12.000000000000
         O           -2.268796728630    -1.003002327984     0.000000848327    15.994914619570

  Basis Set: AUG-CC-PVTZ
    Blend: AUG-CC-PVTZ
  Basis Set: (AUG-CC-PVTZ AUX)
    Blend: AUG-CC-PVTZ-JKFIT
	 Reference Energy          =    -412.6236409632238065 [Eh]
	 Singles Energy            =      -0.0000000000000000 [Eh]
	 Same-Spin Energy          =      -0.4133339225791711 [Eh]
	 Opposite-Spin Energy      =      -1.2251363215360782 [Eh]
	 Correlation Energy        =      -1.6384702441152492 [Eh]
	 Total Energy              =    -414.2621112073390464 [Eh]

	 ================> DF-SCS-MP2 Energies <==================
	-----------------------------------------------------------
	 SCS Same-Spin Scale       =       0.3333333333333333 [-]
	 SCS Opposite-Spin Scale   =       1.2000000000000000 [-]
	 SCS Same-Spin Energy      =      -0.1377779741930570 [Eh]
	 SCS Opposite-Spin Energy  =      -1.4701635858432938 [Eh]
	 SCS Correlation Energy    =      -1.6079415600363507 [Eh]
	 SCS Total Energy          =    -414.2315825232601583 [Eh]
	-----------------------------------------------------------

  Dipole Moment: [D]
     X:    -0.8639      Y:     4.0362      Z:     0.0000     Total:     4.1277

*** Psi4 exiting successfully. Buy a developer a beer!
