                               Psi4 1.3.2 release

  ==> Input File <==

--------------------------------------------------------------------------
#psi4
#
memory 32 gb

molecule  {
0 1
  N       -0.0337150    -0.9783820    -0.0001030
  H       -0.0465630    -1.9952990     0.0000230
  C       -1.2924060    -0.3478390    -0.0002800
  O       -2.3237930    -1.0132930     0.0001830
  C       -1.2062280     1.1067970     0.0000000
  H       -2.1261180     1.6763830     0.0001840
  C       -0.0445969     1.6270921     0.0000214
  H        0.1229620     2.7891690     0.0001530
  N        1.1742530     0.9863660    -0.0000120
  H        2.0766210     1.4468080     0.0000740
  C        1.2261220    -0.4021520    -0.0000880
  O        2.2745420    -1.0338450     0.0001200
units angstrom
no_reorient  #important for SAPT in psi4, default
symmetry c1  #important for SAPT in psi4, default
}

set PROPERTIES_ORIGIN ["COM"]
properties('MP2/aug-cc-pvtz', properties = ['dipole'])
--------------------------------------------------------------------------

    Molecular point group: c1
  Charge       = 0
  Multiplicity = 1
  Basis Set: AUG-CC-PVTZ
    Blend: AUG-CC-PVTZ
  Basis Set: (AUG-CC-PVTZ AUX)
    Blend: AUG-CC-PVTZ-JKFIT

    Orbital Energies [Eh]
    ---------------------

    Doubly Occupied:

       1A    -20.547992     2A    -20.546533     3A    -15.644541
       4A    -15.630897     5A    -11.420178     6A    -11.386222
       7A    -11.336976     8A    -11.252301     9A     -1.431600
      10A     -1.395621    11A     -1.311729    12A     -1.242616
      13A     -1.109295    14A     -0.919934    15A     -0.902550
      16A     -0.811835    17A     -0.766516    18A     -0.695081
      19A     -0.678082    20A     -0.668564    21A     -0.655925
      22A     -0.623559    23A     -0.585723    24A     -0.569538
      25A     -0.529288    26A     -0.479083    27A     -0.451468
      28A     -0.437978    29A     -0.384590

  @DF-RHF Final Energy:  -412.60980264159809

   => Energetics <=

    Nuclear Repulsion Energy =            357.0471422537070225
    One-Electron Energy =               -1270.4814577506831483
    Two-Electron Energy =                 500.8245128553779750
    Total Energy =                       -412.6098026415980939
  Basis Set: (AUG-CC-PVTZ AUX)
    Blend: AUG-CC-PVTZ-RI
    Molecular point group: c1

    Geometry (in Angstrom), charge = 0, multiplicity = 1:

       Center              X                  Y                   Z               Mass
    ------------   -----------------  -----------------  -----------------  -----------------
         N           -0.028404491470    -0.934843428259    -0.000098664464    14.003074004430
         H           -0.041252491470    -1.951760428259     0.000027335536     1.007825032230
         C           -1.287095491470    -0.304300428259    -0.000275664464    12.000000000000
         O           -2.318482491470    -0.969754428259     0.000187335536    15.994914619570
         C           -1.200917491471     1.150335571741     0.000004335536    12.000000000000
         H           -2.120807491470     1.719921571741     0.000188335536     1.007825032230
         C           -0.039286391470     1.670630671741     0.000025735536    12.000000000000
         H            0.128272508530     2.832707571741     0.000157335536     1.007825032230
         N            1.179563508530     1.029904571741    -0.000007664464    14.003074004430
         H            2.081931508529     1.490346571741     0.000078335536     1.007825032230
         C            1.231432508530    -0.358613428259    -0.000083664464    12.000000000000
         O            2.279852508529    -0.990306428259     0.000124335536    15.994914619570

  Basis Set: AUG-CC-PVTZ
    Blend: AUG-CC-PVTZ
  Basis Set: (AUG-CC-PVTZ AUX)
    Blend: AUG-CC-PVTZ-JKFIT
	 Reference Energy          =    -412.6098026415980939 [Eh]
	 Singles Energy            =      -0.0000000000000000 [Eh]
	 Same-Spin Energy          =      -0.4142116830476018 [Eh]
	 Opposite-Spin Energy      =      -1.2272084057738746 [Eh]
	 Correlation Energy        =      -1.6414200888214765 [Eh]
	 Total Energy              =    -414.2512227304195562 [Eh]

	 ================> DF-SCS-MP2 Energies <==================
	-----------------------------------------------------------
	 SCS Same-Spin Scale       =       0.3333333333333333 [-]
	 SCS Opposite-Spin Scale   =       1.2000000000000000 [-]
	 SCS Same-Spin Energy      =      -0.1380705610158673 [Eh]
	 SCS Opposite-Spin Energy  =      -1.4726500869286494 [Eh]
	 SCS Correlation Energy    =      -1.6107206479445166 [Eh]
	 SCS Total Energy          =    -414.2205232895425979 [Eh]
	-----------------------------------------------------------

  Dipole Moment: [D]
     X:     1.0284      Y:     4.0780      Z:    -0.0005     Total:     4.2056

*** Psi4 exiting successfully. Buy a developer a beer!
