                               Psi4 1.3.2 release

  ==> Input File <==

--------------------------------------------------------------------------
#psi4
#
memory 32 gb

molecule  {
0 1
  N       -0.0530577    -0.9340633    -0.0001003
  H       -0.0465630    -1.9952990     0.0000230
  C       -1.2924060    -0.3478390    -0.0002800
  O       -2.3237930    -1.0132930     0.0001830
  C       -1.2062280     1.1067970     0.0000000
  H       -2.1261180     1.6763830     0.0001840
  C        0.0030670     1.7105540     0.0000260
  H        0.1229620     2.7891690     0.0001530
  N        1.1742530     0.9863660    -0.0000120
  H        2.0766210     1.4468080     0.0000740
  C        1.2261220    -0.4021520    -0.0000880
  O        2.2745420    -1.0338450     0.0001200
units angstrom
no_reorient  #important for SAPT in psi4, default
symmetry c1  #important for SAPT in psi4, default
}

set PROPERTIES_ORIGIN ["COM"]
properties('MP2/aug-cc-pvtz', properties = ['dipole'])
--------------------------------------------------------------------------

    Molecular point group: c1
  Charge       = 0
  Multiplicity = 1
  Basis Set: AUG-CC-PVTZ
    Blend: AUG-CC-PVTZ
  Basis Set: (AUG-CC-PVTZ AUX)
    Blend: AUG-CC-PVTZ-JKFIT

    Orbital Energies [Eh]
    ---------------------

    Doubly Occupied:

       1A    -20.554058     2A    -20.540532     3A    -15.646332
       4A    -15.635467     5A    -11.426351     6A    -11.381606
       7A    -11.342588     8A    -11.257830     9A     -1.434620
      10A     -1.394345    11A     -1.313521    12A     -1.246445
      13A     -1.088059    14A     -0.928789    15A     -0.912937
      16A     -0.801908    17A     -0.763136    18A     -0.704896
      19A     -0.676033    20A     -0.670420    21A     -0.654320
      22A     -0.613420    23A     -0.595275    24A     -0.571402
      25A     -0.524802    26A     -0.486008    27A     -0.451016
      28A     -0.438804    29A     -0.369662

  @DF-RHF Final Energy:  -412.61607219053553

   => Energetics <=

    Nuclear Repulsion Energy =            356.1290913975086596
    One-Electron Energy =               -1268.6411626221231472
    Two-Electron Energy =                 499.8959990340789545
    Total Energy =                       -412.6160721905355331
  Basis Set: (AUG-CC-PVTZ AUX)
    Blend: AUG-CC-PVTZ-RI
    Molecular point group: c1

    Geometry (in Angstrom), charge = 0, multiplicity = 1:

       Center              X                  Y                   Z               Mass
    ------------   -----------------  -----------------  -----------------  -----------------
         N           -0.050435014896    -0.905004602035    -0.000096794693    14.003074004430
         H           -0.043940314896    -1.966240302035     0.000026505307     1.007825032230
         C           -1.289783314896    -0.318780302035    -0.000276494693    12.000000000000
         O           -2.321170314896    -0.984234302035     0.000186505307    15.994914619570
         C           -1.203605314896     1.135855697965     0.000003505307    12.000000000000
         H           -2.123495314896     1.705441697965     0.000187505307     1.007825032230
         C            0.005689685104     1.739612697965     0.000029505307    12.000000000000
         H            0.125584685104     2.818227697965     0.000156505307     1.007825032230
         N            1.176875685104     1.015424697965    -0.000008494693    14.003074004430
         H            2.079243685104     1.475866697965     0.000077505307     1.007825032230
         C            1.228744685104    -0.373093302035    -0.000084494693    12.000000000000
         O            2.277164685104    -1.004786302035     0.000123505307    15.994914619570

  Basis Set: AUG-CC-PVTZ
    Blend: AUG-CC-PVTZ
  Basis Set: (AUG-CC-PVTZ AUX)
    Blend: AUG-CC-PVTZ-JKFIT
	 Reference Energy          =    -412.6160721905355331 [Eh]
	 Singles Energy            =      -0.0000000000000000 [Eh]
	 Same-Spin Energy          =      -0.4155180859269663 [Eh]
	 Opposite-Spin Energy      =      -1.2293883352146242 [Eh]
	 Correlation Energy        =      -1.6449064211415905 [Eh]
	 Total Energy              =    -414.2609786116771033 [Eh]

	 ================> DF-SCS-MP2 Energies <==================
	-----------------------------------------------------------
	 SCS Same-Spin Scale       =       0.3333333333333333 [-]
	 SCS Opposite-Spin Scale   =       1.2000000000000000 [-]
	 SCS Same-Spin Energy      =      -0.1385060286423221 [Eh]
	 SCS Opposite-Spin Energy  =      -1.4752660022575490 [Eh]
	 SCS Correlation Energy    =      -1.6137720308998711 [Eh]
	 SCS Total Energy          =    -414.2298442214354282 [Eh]
	-----------------------------------------------------------

  Dipole Moment: [D]
     X:     1.3447      Y:     4.1139      Z:    -0.0005     Total:     4.3281

*** Psi4 exiting successfully. Buy a developer a beer!
