                               Psi4 1.3.2 release

  ==> Input File <==

--------------------------------------------------------------------------
#psi4
#
memory 32 gb

molecule  {
0 1
  N       -0.0337150    -0.9783820    -0.0001030
  H       -0.0465630    -1.9952990     0.0000230
  C       -1.2924060    -0.3478390    -0.0002800
  O       -2.3237930    -1.0132930     0.0001830
  C       -1.2627131     1.2365102     0.0000064
  H       -2.1261180     1.6763830     0.0001840
  C        0.0030670     1.7105540     0.0000260
  H        0.1229620     2.7891690     0.0001530
  N        1.1742530     0.9863660    -0.0000120
  H        2.0766210     1.4468080     0.0000740
  C        1.2261220    -0.4021520    -0.0000880
  O        2.2745420    -1.0338450     0.0001200
units angstrom
no_reorient  #important for SAPT in psi4, default
symmetry c1  #important for SAPT in psi4, default
}

set PROPERTIES_ORIGIN ["COM"]
properties('MP2/aug-cc-pvtz', properties = ['dipole'])
--------------------------------------------------------------------------

    Molecular point group: c1
  Charge       = 0
  Multiplicity = 1
  Basis Set: AUG-CC-PVTZ
    Blend: AUG-CC-PVTZ
  Basis Set: (AUG-CC-PVTZ AUX)
    Blend: AUG-CC-PVTZ-JKFIT

    Orbital Energies [Eh]
    ---------------------

    Doubly Occupied:

       1A    -20.551489     2A    -20.548237     3A    -15.647583
       4A    -15.633903     5A    -11.424256     6A    -11.392698
       7A    -11.339203     8A    -11.263005     9A     -1.432145
      10A     -1.394880    11A     -1.308476    12A     -1.244296
      13A     -1.082188    14A     -0.922798    15A     -0.896155
      16A     -0.819219    17A     -0.754029    18A     -0.709477
      19A     -0.676936    20A     -0.669302    21A     -0.665117
      22A     -0.634759    23A     -0.591074    24A     -0.567038
      25A     -0.524399    26A     -0.481361    27A     -0.443883
      28A     -0.439034    29A     -0.371627

  @DF-RHF Final Energy:  -412.59900523717795

   => Energetics <=

    Nuclear Repulsion Energy =            353.0637315570847363
    One-Electron Energy =               -1262.4683429563292520
    Two-Electron Energy =                 496.8056061620665105
    Total Energy =                       -412.5990052371779484
  Basis Set: (AUG-CC-PVTZ AUX)
    Blend: AUG-CC-PVTZ-RI
    Molecular point group: c1

    Geometry (in Angstrom), charge = 0, multiplicity = 1:

       Center              X                  Y                   Z               Mass
    ------------   -----------------  -----------------  -----------------  -----------------
         N           -0.027459593027    -0.957678056216    -0.000099842748    14.003074004430
         H           -0.040307593027    -1.974595056216     0.000026157252     1.007825032230
         C           -1.286150593027    -0.327135056216    -0.000276842748    12.000000000000
         O           -2.317537593027    -0.992589056216     0.000186157252    15.994914619570
         C           -1.256457693027     1.257214143784     0.000009557252    12.000000000000
         H           -2.119862593027     1.697086943784     0.000187157252     1.007825032230
         C            0.009322406973     1.731257943784     0.000029157252    12.000000000000
         H            0.129217406973     2.809872943784     0.000156157252     1.007825032230
         N            1.180508406973     1.007069943784    -0.000008842748    14.003074004430
         H            2.082876406973     1.467511943784     0.000077157252     1.007825032230
         C            1.232377406973    -0.381448056216    -0.000084842748    12.000000000000
         O            2.280797406973    -1.013141056216     0.000123157252    15.994914619570

  Basis Set: AUG-CC-PVTZ
    Blend: AUG-CC-PVTZ
  Basis Set: (AUG-CC-PVTZ AUX)
    Blend: AUG-CC-PVTZ-JKFIT
	 Reference Energy          =    -412.5990052371779484 [Eh]
	 Singles Energy            =      -0.0000000000000000 [Eh]
	 Same-Spin Energy          =      -0.4135444259938951 [Eh]
	 Opposite-Spin Energy      =      -1.2281709437873312 [Eh]
	 Correlation Energy        =      -1.6417153697812261 [Eh]
	 Total Energy              =    -414.2407206069592007 [Eh]

	 ================> DF-SCS-MP2 Energies <==================
	-----------------------------------------------------------
	 SCS Same-Spin Scale       =       0.3333333333333333 [-]
	 SCS Opposite-Spin Scale   =       1.2000000000000000 [-]
	 SCS Same-Spin Energy      =      -0.1378481419979650 [Eh]
	 SCS Opposite-Spin Energy  =      -1.4738051325447974 [Eh]
	 SCS Correlation Energy    =      -1.6116532745427623 [Eh]
	 SCS Total Energy          =    -414.2106585117207374 [Eh]
	-----------------------------------------------------------

  Dipole Moment: [D]
     X:     1.0524      Y:     3.8990      Z:    -0.0005     Total:     4.0385

*** Psi4 exiting successfully. Buy a developer a beer!
