                               Psi4 1.4a3.dev225

  ==> Input File <==

--------------------------------------------------------------------------
#psi4
#
memory 32 gb

molecule  {
0 1
  N        0.0336940    -0.9783750    -0.0000010
  H        0.0471450    -1.9953050    -0.0000010
  C        1.2925930    -0.3474800     0.0000000
  O        2.3237090    -1.0134020     0.0000010
  C        1.2062870     1.1068390     0.0000000
  H        2.1256600     1.6771670     0.0000010
  C       -0.0033680     1.7103630     0.0000000
  H       -0.1249297     2.8089337     0.0000000
  N       -1.1742180     0.9864080    -0.0000010
  H       -2.0766200     1.4467250     0.0000010
  C       -1.2259650    -0.4025210     0.0000010
  O       -2.2745920    -1.0337330     0.0000010
units angstrom
no_reorient  #important for SAPT in psi4, default
symmetry c1  #important for SAPT in psi4, default
}

set PROPERTIES_ORIGIN ["COM"]
properties('MP2/aug-cc-pvtz', properties = ['dipole'])
--------------------------------------------------------------------------

    Molecular point group: c1
  Charge       = 0
  Multiplicity = 1
  Basis Set: AUG-CC-PVTZ
    Blend: AUG-CC-PVTZ
  Basis Set: (AUG-CC-PVTZ AUX)
    Blend: AUG-CC-PVTZ-JKFIT

    Orbital Energies [Eh]
    ---------------------

    Doubly Occupied:

       1A    -20.549633     2A    -20.544176     3A    -15.647425
       4A    -15.630810     5A    -11.423237     6A    -11.385397
       7A    -11.346733     8A    -11.259747     9A     -1.431828
      10A     -1.394131    11A     -1.310722    12A     -1.243668
      13A     -1.088027    14A     -0.930753    15A     -0.901019
      16A     -0.804949    17A     -0.762926    18A     -0.710294
      19A     -0.676739    20A     -0.666726    21A     -0.652067
      22A     -0.614301    23A     -0.600084    24A     -0.568960
      25A     -0.525127    26A     -0.484262    27A     -0.450737
      28A     -0.437465    29A     -0.370494

  @DF-RHF Final Energy:  -412.62034181558147

   => Energetics <=

    Nuclear Repulsion Energy =            355.2711518266789881
    One-Electron Energy =               -1266.9581133754711573
    Two-Electron Energy =                 499.0666197332107004
    Total Energy =                       -412.6203418155814688
  Basis Set: (AUG-CC-PVTZ AUX)
    Blend: AUG-CC-PVTZ-RI
    Molecular point group: c1

    Geometry (in Angstrom), charge = 0, multiplicity = 1:

       Center              X                  Y                   Z               Mass
    ------------   -----------------  -----------------  -----------------  -----------------
         N            0.033512128068    -0.943950179455    -0.000001151673    14.003074004430
         H            0.046963128068    -1.960880179455    -0.000001151673     1.007825032230
         C            1.292411128068    -0.313055179455    -0.000000151673    12.000000000000
         O            2.323527128068    -0.978977179455     0.000000848327    15.994914619570
         C            1.206105128068     1.141263820545    -0.000000151673    12.000000000000
         H            2.125478128068     1.711591820545     0.000000848327     1.007825032230
         C           -0.003549871932     1.744787820545    -0.000000151673    12.000000000000
         H           -0.125111571932     2.843358520545    -0.000000151673     1.007825032230
         N           -1.174399871932     1.020832820545    -0.000001151673    14.003074004430
         H           -2.076801871932     1.481149820545     0.000000848327     1.007825032230
         C           -1.226146871932    -0.368096179455     0.000000848327    12.000000000000
         O           -2.274773871932    -0.999308179455     0.000000848327    15.994914619570

  Basis Set: AUG-CC-PVTZ
    Blend: AUG-CC-PVTZ
  Basis Set: (AUG-CC-PVTZ AUX)
    Blend: AUG-CC-PVTZ-JKFIT
	 Reference Energy          =    -412.6203418155814688 [Eh]
	 Singles Energy            =      -0.0000000000000000 [Eh]
	 Same-Spin Energy          =      -0.4147805594369946 [Eh]
	 Opposite-Spin Energy      =      -1.2284986711713319 [Eh]
	 Correlation Energy        =      -1.6432792306083266 [Eh]
	 Total Energy              =    -414.2636210461897690 [Eh]

	 ================> DF-SCS-MP2 Energies <==================
	-----------------------------------------------------------
	 SCS Same-Spin Scale       =       0.3333333333333333 [-]
	 SCS Opposite-Spin Scale   =       1.2000000000000000 [-]
	 SCS Same-Spin Energy      =      -0.1382601864789982 [Eh]
	 SCS Opposite-Spin Energy  =      -1.4741984054055983 [Eh]
	 SCS Correlation Energy    =      -1.6124585918845966 [Eh]
	 SCS Total Energy          =    -414.2328004074660726 [Eh]
	-----------------------------------------------------------

  Dipole Moment: [D]
     X:    -1.1728      Y:     4.1912      Z:     0.0000     Total:     4.3522

*** Psi4 exiting successfully. Buy a developer a beer!
