                               Psi4 1.4a3.dev225

  ==> Input File <==

--------------------------------------------------------------------------
#psi4
#
memory 32 gb

molecule  {
0 1
  N        0.0336940    -0.9783750    -0.0000010
  H        0.0471450    -1.9953050    -0.0000010
  C        1.2925930    -0.3474800     0.0000000
  O        2.3657111    -1.0405281     0.0000010
  C        1.2062870     1.1068390     0.0000000
  H        2.1256600     1.6771670     0.0000010
  C       -0.0033680     1.7103630     0.0000000
  H       -0.1227300     2.7890550     0.0000000
  N       -1.1742180     0.9864080    -0.0000010
  H       -2.0766200     1.4467250     0.0000010
  C       -1.2259650    -0.4025210     0.0000010
  O       -2.2745920    -1.0337330     0.0000010
units angstrom
no_reorient  #important for SAPT in psi4, default
symmetry c1  #important for SAPT in psi4, default
}

set PROPERTIES_ORIGIN ["COM"]
properties('MP2/aug-cc-pvtz', properties = ['dipole'])
--------------------------------------------------------------------------

    Molecular point group: c1
  Charge       = 0
  Multiplicity = 1
  Basis Set: AUG-CC-PVTZ
    Blend: AUG-CC-PVTZ
  Basis Set: (AUG-CC-PVTZ AUX)
    Blend: AUG-CC-PVTZ-JKFIT

    Orbital Energies [Eh]
    ---------------------

    Doubly Occupied:

       1A    -20.552716     2A    -20.542631     3A    -15.651138
       4A    -15.636859     5A    -11.426689     6A    -11.393680
       7A    -11.348581     8A    -11.263798     9A     -1.433457
      10A     -1.367401    11A     -1.311667    12A     -1.244917
      13A     -1.091893    14A     -0.935515    15A     -0.905697
      16A     -0.808037    17A     -0.763194    18A     -0.716831
      19A     -0.675036    20A     -0.668286    21A     -0.654152
      22A     -0.606773    23A     -0.598099    24A     -0.558370
      25A     -0.527912    26A     -0.485609    27A     -0.448698
      28A     -0.435020    29A     -0.372256

  @DF-RHF Final Energy:  -412.61174584201763

   => Energetics <=

    Nuclear Repulsion Energy =            353.7447536629624665
    One-Electron Energy =               -1263.8631807585338720
    Two-Electron Energy =                 497.5066812535537792
    Total Energy =                       -412.6117458420176263
  Basis Set: (AUG-CC-PVTZ AUX)
    Blend: AUG-CC-PVTZ-RI
    Molecular point group: c1

    Geometry (in Angstrom), charge = 0, multiplicity = 1:

       Center              X                  Y                   Z               Mass
    ------------   -----------------  -----------------  -----------------  -----------------
         N            0.027495406678    -0.939898363544    -0.000001151673    14.003074004430
         H            0.040946406678    -1.956828363544    -0.000001151673     1.007825032230
         C            1.286394406678    -0.309003363544    -0.000000151673    12.000000000000
         O            2.359512506678    -1.002051463544     0.000000848327    15.994914619570
         C            1.200088406678     1.145315636456    -0.000000151673    12.000000000000
         H            2.119461406678     1.715643636456     0.000000848327     1.007825032230
         C           -0.009566593322     1.748839636456    -0.000000151673    12.000000000000
         H           -0.128928593322     2.827531636456    -0.000000151673     1.007825032230
         N           -1.180416593322     1.024884636456    -0.000001151673    14.003074004430
         H           -2.082818593322     1.485201636456     0.000000848327     1.007825032230
         C           -1.232163593322    -0.364044363544     0.000000848327    12.000000000000
         O           -2.280790593322    -0.995256363544     0.000000848327    15.994914619570

  Basis Set: AUG-CC-PVTZ
    Blend: AUG-CC-PVTZ
  Basis Set: (AUG-CC-PVTZ AUX)
    Blend: AUG-CC-PVTZ-JKFIT
	 Reference Energy          =    -412.6117458420176263 [Eh]
	 Singles Energy            =      -0.0000000000000000 [Eh]
	 Same-Spin Energy          =      -0.4161282188953502 [Eh]
	 Opposite-Spin Energy      =      -1.2315376501715936 [Eh]
	 Correlation Energy        =      -1.6476658690669437 [Eh]
	 Total Energy              =    -414.2594117110845673 [Eh]

	 ================> DF-SCS-MP2 Energies <==================
	-----------------------------------------------------------
	 SCS Same-Spin Scale       =       0.3333333333333333 [-]
	 SCS Opposite-Spin Scale   =       1.2000000000000000 [-]
	 SCS Same-Spin Energy      =      -0.1387094062984500 [Eh]
	 SCS Opposite-Spin Energy  =      -1.4778451802059123 [Eh]
	 SCS Correlation Energy    =      -1.6165545865043622 [Eh]
	 SCS Total Energy          =    -414.2283004285220045 [Eh]
	-----------------------------------------------------------

  Dipole Moment: [D]
     X:    -1.4587      Y:     4.3369      Z:     0.0000     Total:     4.5757

*** Psi4 exiting successfully. Buy a developer a beer!
