                               Psi4 1.4a3.dev225

  ==> Input File <==

--------------------------------------------------------------------------
#psi4
#
memory 32 gb

molecule  {
0 1
  N        0.0336940    -0.9783750    -0.0000010
  H        0.0471450    -1.9953050    -0.0000010
  C        1.2925930    -0.3474800     0.0000000
  O        2.3237090    -1.0134020     0.0000010
  C        1.2062870     1.1068390     0.0000000
  H        2.1256600     1.6771670     0.0000010
  C       -0.0033680     1.7103630     0.0000000
  H       -0.1227300     2.7890550     0.0000000
  N       -1.1742180     0.9864080    -0.0000010
  H       -2.0766200     1.4467250     0.0000010
  C       -1.2259650    -0.4025210     0.0000010
  O       -2.2917272    -1.0440474     0.0000010
units angstrom
no_reorient  #important for SAPT in psi4, default
symmetry c1  #important for SAPT in psi4, default
}

set PROPERTIES_ORIGIN ["COM"]
properties('MP2/aug-cc-pvtz', properties = ['dipole'])
--------------------------------------------------------------------------

    Molecular point group: c1
  Charge       = 0
  Multiplicity = 1
  Basis Set: AUG-CC-PVTZ
    Blend: AUG-CC-PVTZ
  Basis Set: (AUG-CC-PVTZ AUX)
    Blend: AUG-CC-PVTZ-JKFIT

    Orbital Energies [Eh]
    ---------------------

    Doubly Occupied:

       1A    -20.548855     2A    -20.545458     3A    -15.649628
       4A    -15.633223     5A    -11.426598     6A    -11.386746
       7A    -11.345874     8A    -11.261218     9A     -1.424446
      10A     -1.392548    11A     -1.308789    12A     -1.244971
      13A     -1.089839    14A     -0.933536    15A     -0.902695
      16A     -0.806498    17A     -0.763165    18A     -0.714632
      19A     -0.676870    20A     -0.665408    21A     -0.649106
      22A     -0.614887    23A     -0.601009    24A     -0.568802
      25A     -0.523038    26A     -0.482192    27A     -0.451470
      28A     -0.437167    29A     -0.371546

  @DF-RHF Final Energy:  -412.61807110821746

   => Energetics <=

    Nuclear Repulsion Energy =            354.6942531624965227
    One-Electron Energy =               -1265.7842233088956618
    Two-Electron Energy =                 498.4718990381816184
    Total Energy =                       -412.6180711082174639
  Basis Set: (AUG-CC-PVTZ AUX)
    Blend: AUG-CC-PVTZ-RI
    Molecular point group: c1

    Geometry (in Angstrom), charge = 0, multiplicity = 1:

       Center              X                  Y                   Z               Mass
    ------------   -----------------  -----------------  -----------------  -----------------
         N            0.035938850869    -0.942298687040    -0.000001151673    14.003074004430
         H            0.049389850869    -1.959228687040    -0.000001151673     1.007825032230
         C            1.294837850869    -0.311403687040    -0.000000151673    12.000000000000
         O            2.325953850869    -0.977325687040     0.000000848327    15.994914619570
         C            1.208531850869     1.142915312960    -0.000000151673    12.000000000000
         H            2.127904850869     1.713243312960     0.000000848327     1.007825032230
         C           -0.001123149131     1.746439312960    -0.000000151673    12.000000000000
         H           -0.120485149131     2.825131312960    -0.000000151673     1.007825032230
         N           -1.171973149131     1.022484312960    -0.000001151673    14.003074004430
         H           -2.074375149131     1.482801312960     0.000000848327     1.007825032230
         C           -1.223720149131    -0.366444687040     0.000000848327    12.000000000000
         O           -2.289482349131    -1.007971087040     0.000000848327    15.994914619570

  Basis Set: AUG-CC-PVTZ
    Blend: AUG-CC-PVTZ
  Basis Set: (AUG-CC-PVTZ AUX)
    Blend: AUG-CC-PVTZ-JKFIT
	 Reference Energy          =    -412.6180711082174639 [Eh]
	 Singles Energy            =      -0.0000000000000000 [Eh]
	 Same-Spin Energy          =      -0.4152353262340667 [Eh]
	 Opposite-Spin Energy      =      -1.2295505620827549 [Eh]
	 Correlation Energy        =      -1.6447858883168216 [Eh]
	 Total Energy              =    -414.2628569965343104 [Eh]

	 ================> DF-SCS-MP2 Energies <==================
	-----------------------------------------------------------
	 SCS Same-Spin Scale       =       0.3333333333333333 [-]
	 SCS Opposite-Spin Scale   =       1.2000000000000000 [-]
	 SCS Same-Spin Energy      =      -0.1384117754113555 [Eh]
	 SCS Opposite-Spin Energy  =      -1.4754606744993060 [Eh]
	 SCS Correlation Energy    =      -1.6138724499106616 [Eh]
	 SCS Total Energy          =    -414.2319435581281368 [Eh]
	-----------------------------------------------------------

  Dipole Moment: [D]
     X:    -1.0399      Y:     4.2647      Z:     0.0000     Total:     4.3897

*** Psi4 exiting successfully. Buy a developer a beer!
