                               Psi4 1.3.2 release

  ==> Input File <==

--------------------------------------------------------------------------
#psi4
#
memory 32 gb

molecule  {
0 1
  N       -0.0337150    -0.9783820    -0.0001030
  H       -0.0465630    -1.9952990     0.0000230
  C       -1.2696336    -0.3042954    -0.0002842
  O       -2.3237930    -1.0132930     0.0001830
  C       -1.2062280     1.1067970     0.0000000
  H       -2.1261180     1.6763830     0.0001840
  C        0.0030670     1.7105540     0.0000260
  H        0.1229620     2.7891690     0.0001530
  N        1.1742530     0.9863660    -0.0000120
  H        2.0766210     1.4468080     0.0000740
  C        1.2261220    -0.4021520    -0.0000880
  O        2.2745420    -1.0338450     0.0001200
units angstrom
no_reorient  #important for SAPT in psi4, default
symmetry c1  #important for SAPT in psi4, default
}

set PROPERTIES_ORIGIN ["COM"]
properties('MP2/aug-cc-pvtz', properties = ['dipole'])
--------------------------------------------------------------------------

    Molecular point group: c1
  Charge       = 0
  Multiplicity = 1
  Basis Set: AUG-CC-PVTZ
    Blend: AUG-CC-PVTZ
  Basis Set: (AUG-CC-PVTZ AUX)
    Blend: AUG-CC-PVTZ-JKFIT

    Orbital Energies [Eh]
    ---------------------

    Doubly Occupied:

       1A    -20.551031     2A    -20.535383     3A    -15.652372
       4A    -15.633559     5A    -11.424092     6A    -11.384775
       7A    -11.351760     8A    -11.260450     9A     -1.432717
      10A     -1.369577    11A     -1.312088    12A     -1.241361
      13A     -1.099129    14A     -0.941078    15A     -0.900048
      16A     -0.810265    17A     -0.767691    18A     -0.718097
      19A     -0.673938    20A     -0.668641    21A     -0.655391
      22A     -0.604989    23A     -0.601428    24A     -0.559331
      25A     -0.528387    26A     -0.484692    27A     -0.445672
      28A     -0.432211    29A     -0.373029

  @DF-RHF Final Energy:  -412.61328848482106

   => Energetics <=

    Nuclear Repulsion Energy =            355.4813225542848727
    One-Electron Energy =               -1267.3628614455114985
    Two-Electron Energy =                 499.2682504064056275
    Total Energy =                       -412.6132884848210551
  Basis Set: (AUG-CC-PVTZ AUX)
    Blend: AUG-CC-PVTZ-RI
    Molecular point group: c1

    Geometry (in Angstrom), charge = 0, multiplicity = 1:

       Center              X                  Y                   Z               Mass
    ------------   -----------------  -----------------  -----------------  -----------------
         N           -0.035949400352    -0.948447847072    -0.000098707311    14.003074004430
         H           -0.048797400352    -1.965364847072     0.000027292689     1.007825032230
         C           -1.271868000352    -0.274361247072    -0.000279907311    12.000000000000
         O           -2.326027400352    -0.983358847072     0.000187292689    15.994914619570
         C           -1.208462400352     1.136731152928     0.000004292689    12.000000000000
         H           -2.128352400352     1.706317152928     0.000188292689     1.007825032230
         C            0.000832599648     1.740488152928     0.000030292689    12.000000000000
         H            0.120727599648     2.819103152928     0.000157292689     1.007825032230
         N            1.172018599648     1.016300152928    -0.000007707311    14.003074004430
         H            2.074386599648     1.476742152928     0.000078292689     1.007825032230
         C            1.223887599648    -0.372217847072    -0.000083707311    12.000000000000
         O            2.272307599648    -1.003910847072     0.000124292689    15.994914619570

  Basis Set: AUG-CC-PVTZ
    Blend: AUG-CC-PVTZ
  Basis Set: (AUG-CC-PVTZ AUX)
    Blend: AUG-CC-PVTZ-JKFIT
	 Reference Energy          =    -412.6132884848210551 [Eh]
	 Singles Energy            =      -0.0000000000000000 [Eh]
	 Same-Spin Energy          =      -0.4161094517140997 [Eh]
	 Opposite-Spin Energy      =      -1.2306279716252670 [Eh]
	 Correlation Energy        =      -1.6467374233393668 [Eh]
	 Total Energy              =    -414.2600259081604008 [Eh]

	 ================> DF-SCS-MP2 Energies <==================
	-----------------------------------------------------------
	 SCS Same-Spin Scale       =       0.3333333333333333 [-]
	 SCS Opposite-Spin Scale   =       1.2000000000000000 [-]
	 SCS Same-Spin Energy      =      -0.1387031505713666 [Eh]
	 SCS Opposite-Spin Energy  =      -1.4767535659503204 [Eh]
	 SCS Correlation Energy    =      -1.6154567165216869 [Eh]
	 SCS Total Energy          =    -414.2287452013427469 [Eh]
	-----------------------------------------------------------

  Dipole Moment: [D]
     X:     1.4344      Y:     4.4563      Z:    -0.0005     Total:     4.6815

*** Psi4 exiting successfully. Buy a developer a beer!
