                               Psi4 1.3.2 release

  ==> Input File <==

--------------------------------------------------------------------------
#psi4
#
memory 32 gb

molecule  {
0 1
  N       -0.0337150    -0.9783820    -0.0001030
  H       -0.0465630    -1.9952990     0.0000230
  C       -1.4439848    -0.3308623    -0.0002650
  O       -2.3237930    -1.0132930     0.0001830
  C       -1.2062280     1.1067970     0.0000000
  H       -2.1261180     1.6763830     0.0001840
  C        0.0030670     1.7105540     0.0000260
  H        0.1229620     2.7891690     0.0001530
  N        1.1742530     0.9863660    -0.0000120
  H        2.0766210     1.4468080     0.0000740
  C        1.2261220    -0.4021520    -0.0000880
  O        2.2745420    -1.0338450     0.0001200
units angstrom
no_reorient  #important for SAPT in psi4, default
symmetry c1  #important for SAPT in psi4, default
}

set PROPERTIES_ORIGIN ["COM"]
properties('MP2/aug-cc-pvtz', properties = ['dipole'])
--------------------------------------------------------------------------

    Molecular point group: c1
  Charge       = 0
  Multiplicity = 1
  Basis Set: AUG-CC-PVTZ
    Blend: AUG-CC-PVTZ
  Basis Set: (AUG-CC-PVTZ AUX)
    Blend: AUG-CC-PVTZ-JKFIT

    Orbital Energies [Eh]
    ---------------------

    Doubly Occupied:

       1A    -20.574861     2A    -20.532163     3A    -15.638323
       4A    -15.598418     5A    -11.404639     6A    -11.387898
       7A    -11.347025     8A    -11.258339     9A     -1.491408
      10A     -1.409415    11A     -1.298318    12A     -1.205129
      13A     -1.085029    14A     -0.927772    15A     -0.871381
      16A     -0.788446    17A     -0.759246    18A     -0.717536
      19A     -0.682586    20A     -0.656423    21A     -0.641938
      22A     -0.636758    23A     -0.606738    24A     -0.602626
      25A     -0.513960    26A     -0.484025    27A     -0.442128
      28A     -0.426558    29A     -0.370584

  @DF-RHF Final Energy:  -412.59743911585679

   => Energetics <=

    Nuclear Repulsion Energy =            354.6827695534333316
    One-Electron Energy =               -1265.8410765294652265
    Two-Electron Energy =                 498.5608678601751080
    Total Energy =                       -412.5974391158567869
  Basis Set: (AUG-CC-PVTZ AUX)
    Blend: AUG-CC-PVTZ-RI
    Molecular point group: c1

    Geometry (in Angstrom), charge = 0, multiplicity = 1:

       Center              X                  Y                   Z               Mass
    ------------   -----------------  -----------------  -----------------  -----------------
         N           -0.017273463125    -0.945602086580    -0.000100763952    14.003074004430
         H           -0.030121463125    -1.962519086580     0.000025236048     1.007825032230
         C           -1.427543263125    -0.298082386580    -0.000262763952    12.000000000000
         O           -2.307351463125    -0.980513086580     0.000185236048    15.994914619570
         C           -1.189786463125     1.139576913420     0.000002236048    12.000000000000
         H           -2.109676463125     1.709162913420     0.000186236048     1.007825032230
         C            0.019508536875     1.743333913420     0.000028236048    12.000000000000
         H            0.139403536875     2.821948913420     0.000155236048     1.007825032230
         N            1.190694536875     1.019145913420    -0.000009763952    14.003074004430
         H            2.093062536875     1.479587913420     0.000076236048     1.007825032230
         C            1.242563536875    -0.369372086580    -0.000085763952    12.000000000000
         O            2.290983536875    -1.001065086580     0.000122236048    15.994914619570

  Basis Set: AUG-CC-PVTZ
    Blend: AUG-CC-PVTZ
  Basis Set: (AUG-CC-PVTZ AUX)
    Blend: AUG-CC-PVTZ-JKFIT
	 Reference Energy          =    -412.5974391158567869 [Eh]
	 Singles Energy            =      -0.0000000000000000 [Eh]
	 Same-Spin Energy          =      -0.4131525463174976 [Eh]
	 Opposite-Spin Energy      =      -1.2253177253453122 [Eh]
	 Correlation Energy        =      -1.6384702716628099 [Eh]
	 Total Energy              =    -414.2359093875195981 [Eh]

	 ================> DF-SCS-MP2 Energies <==================
	-----------------------------------------------------------
	 SCS Same-Spin Scale       =       0.3333333333333333 [-]
	 SCS Opposite-Spin Scale   =       1.2000000000000000 [-]
	 SCS Same-Spin Energy      =      -0.1377175154391659 [Eh]
	 SCS Opposite-Spin Energy  =      -1.4703812704143746 [Eh]
	 SCS Correlation Energy    =      -1.6080987858535405 [Eh]
	 SCS Total Energy          =    -414.2055379017103292 [Eh]
	-----------------------------------------------------------

  Dipole Moment: [D]
     X:    -0.2384      Y:     4.1489      Z:    -0.0005     Total:     4.1557

*** Psi4 exiting successfully. Buy a developer a beer!
