                               Psi4 1.3.2 release

  ==> Input File <==

--------------------------------------------------------------------------
#psi4
#
memory 32 gb

molecule  {
0 1
  N       -0.0337150    -0.9783820    -0.0001030
  H       -0.0465630    -1.9952990     0.0000230
  C       -1.2924060    -0.3478390    -0.0002800
  O       -2.3237930    -1.0132930     0.0001830
  C       -1.2062280     1.1067970     0.0000000
  H       -1.9560758     1.5710947     0.0001500
  C        0.0030670     1.7105540     0.0000260
  H        0.1229620     2.7891690     0.0001530
  N        1.1742530     0.9863660    -0.0000120
  H        2.0766210     1.4468080     0.0000740
  C        1.2261220    -0.4021520    -0.0000880
  O        2.2745420    -1.0338450     0.0001200
units angstrom
no_reorient  #important for SAPT in psi4, default
symmetry c1  #important for SAPT in psi4, default
}

set PROPERTIES_ORIGIN ["COM"]
properties('MP2/aug-cc-pvtz', properties = ['dipole'])
--------------------------------------------------------------------------

    Molecular point group: c1
  Charge       = 0
  Multiplicity = 1
  Basis Set: AUG-CC-PVTZ
    Blend: AUG-CC-PVTZ
  Basis Set: (AUG-CC-PVTZ AUX)
    Blend: AUG-CC-PVTZ-JKFIT

    Orbital Energies [Eh]
    ---------------------

    Doubly Occupied:

       1A    -20.549529     2A    -20.544179     3A    -15.647275
       4A    -15.630007     5A    -11.423041     6A    -11.384308
       7A    -11.344775     8A    -11.237842     9A     -1.431614
      10A     -1.394190    11A     -1.310601    12A     -1.243306
      13A     -1.099128    14A     -0.936572    15A     -0.901624
      16A     -0.829041    17A     -0.763066    18A     -0.714048
      19A     -0.676838    20A     -0.670753    21A     -0.666386
      22A     -0.628120    23A     -0.610312    24A     -0.568823
      25A     -0.524903    26A     -0.484322    27A     -0.450413
      28A     -0.437189    29A     -0.371023

  @DF-RHF Final Energy:  -412.58483713258994

   => Energetics <=

    Nuclear Repulsion Energy =            356.5521532807998142
    One-Electron Energy =               -1269.3275215769504030
    Two-Electron Energy =                 500.1905311635607063
    Total Energy =                       -412.5848371325899393
  Basis Set: (AUG-CC-PVTZ AUX)
    Blend: AUG-CC-PVTZ-RI
    Molecular point group: c1

    Geometry (in Angstrom), charge = 0, multiplicity = 1:

       Center              X                  Y                   Z               Mass
    ------------   -----------------  -----------------  -----------------  -----------------
         N           -0.035039836032    -0.942836397798    -0.000098851329    14.003074004430
         H           -0.047887836032    -1.959753397798     0.000027148671     1.007825032230
         C           -1.293730836032    -0.312293397798    -0.000275851329    12.000000000000
         O           -2.325117836032    -0.977747397798     0.000187148671    15.994914619570
         C           -1.207552836032     1.142342602202     0.000004148671    12.000000000000
         H           -1.957400636032     1.606640302202     0.000154148671     1.007825032230
         C            0.001742163968     1.746099602202     0.000030148671    12.000000000000
         H            0.121637163968     2.824714602202     0.000157148671     1.007825032230
         N            1.172928163968     1.021911602202    -0.000007851329    14.003074004430
         H            2.075296163968     1.482353602202     0.000078148671     1.007825032230
         C            1.224797163968    -0.366606397798    -0.000083851329    12.000000000000
         O            2.273217163968    -0.998299397798     0.000124148671    15.994914619570

  Basis Set: AUG-CC-PVTZ
    Blend: AUG-CC-PVTZ
  Basis Set: (AUG-CC-PVTZ AUX)
    Blend: AUG-CC-PVTZ-JKFIT
	 Reference Energy          =    -412.5848371325899393 [Eh]
	 Singles Energy            =      -0.0000000000000000 [Eh]
	 Same-Spin Energy          =      -0.4145321913319867 [Eh]
	 Opposite-Spin Energy      =      -1.2280501284463088 [Eh]
	 Correlation Energy        =      -1.6425823197782954 [Eh]
	 Total Energy              =    -414.2274194523682240 [Eh]

	 ================> DF-SCS-MP2 Energies <==================
	-----------------------------------------------------------
	 SCS Same-Spin Scale       =       0.3333333333333333 [-]
	 SCS Opposite-Spin Scale   =       1.2000000000000000 [-]
	 SCS Same-Spin Energy      =      -0.1381773971106622 [Eh]
	 SCS Opposite-Spin Energy  =      -1.4736601541355705 [Eh]
	 SCS Correlation Energy    =      -1.6118375512462326 [Eh]
	 SCS Total Energy          =    -414.1966746838361928 [Eh]
	-----------------------------------------------------------

  Dipole Moment: [D]
     X:     1.2330      Y:     4.1862      Z:    -0.0005     Total:     4.3640

*** Psi4 exiting successfully. Buy a developer a beer!
