                               Psi4 1.3.2 release

  ==> Input File <==

--------------------------------------------------------------------------
#psi4
#
memory 32 gb

molecule  {
0 1
  N       -0.0337150    -0.9783820    -0.0001030
  H       -0.0478263    -2.0952910     0.0000354
  C       -1.2924060    -0.3478390    -0.0002800
  O       -2.3237930    -1.0132930     0.0001830
  C       -1.2062280     1.1067970     0.0000000
  H       -2.1261180     1.6763830     0.0001840
  C        0.0030670     1.7105540     0.0000260
  H        0.1229620     2.7891690     0.0001530
  N        1.1742530     0.9863660    -0.0000120
  H        2.0766210     1.4468080     0.0000740
  C        1.2261220    -0.4021520    -0.0000880
  O        2.2745420    -1.0338450     0.0001200
units angstrom
no_reorient  #important for SAPT in psi4, default
symmetry c1  #important for SAPT in psi4, default
}

set PROPERTIES_ORIGIN ["COM"]
properties('MP2/aug-cc-pvtz', properties = ['dipole'])
--------------------------------------------------------------------------

    Molecular point group: c1
  Charge       = 0
  Multiplicity = 1
  Basis Set: AUG-CC-PVTZ
    Blend: AUG-CC-PVTZ
  Basis Set: (AUG-CC-PVTZ AUX)
    Blend: AUG-CC-PVTZ-JKFIT

    Orbital Energies [Eh]
    ---------------------

    Doubly Occupied:

       1A    -20.548235     2A    -20.542967     3A    -15.646776
       4A    -15.637306     5A    -11.422104     6A    -11.384458
       7A    -11.343939     8A    -11.259407     9A     -1.429491
      10A     -1.392622    11A     -1.309575    12A     -1.234290
      13A     -1.087381    14A     -0.925898    15A     -0.899410
      16A     -0.796410    17A     -0.761517    18A     -0.701106
      19A     -0.671382    20A     -0.665316    21A     -0.651570
      22A     -0.613295    23A     -0.594969    24A     -0.567772
      25A     -0.523939    26A     -0.483473    27A     -0.449612
      28A     -0.435144    29A     -0.369944

  @DF-RHF Final Energy:  -412.61056230835209

   => Energetics <=

    Nuclear Repulsion Energy =            354.7864630607489289
    One-Electron Energy =               -1266.0954351957834660
    Two-Electron Energy =                 498.6984098266824503
    Total Energy =                       -412.6105623083520868
  Basis Set: (AUG-CC-PVTZ AUX)
    Blend: AUG-CC-PVTZ-RI
    Molecular point group: c1

    Geometry (in Angstrom), charge = 0, multiplicity = 1:

       Center              X                  Y                   Z               Mass
    ------------   -----------------  -----------------  -----------------  -----------------
         N           -0.033498729481    -0.942884044620    -0.000099268754    14.003074004430
         H           -0.047610029481    -2.059793044620     0.000039131246     1.007825032230
         C           -1.292189729481    -0.312341044620    -0.000276268754    12.000000000000
         O           -2.323576729481    -0.977795044620     0.000186731246    15.994914619570
         C           -1.206011729481     1.142294955380     0.000003731246    12.000000000000
         H           -2.125901729481     1.711880955380     0.000187731246     1.007825032230
         C            0.003283270519     1.746051955380     0.000029731246    12.000000000000
         H            0.123178270519     2.824666955380     0.000156731246     1.007825032230
         N            1.174469270519     1.021863955380    -0.000008268754    14.003074004430
         H            2.076837270519     1.482305955380     0.000077731246     1.007825032230
         C            1.226338270519    -0.366654044620    -0.000084268754    12.000000000000
         O            2.274758270519    -0.998347044620     0.000123731246    15.994914619570

  Basis Set: AUG-CC-PVTZ
    Blend: AUG-CC-PVTZ
  Basis Set: (AUG-CC-PVTZ AUX)
    Blend: AUG-CC-PVTZ-JKFIT
	 Reference Energy          =    -412.6105623083520868 [Eh]
	 Singles Energy            =      -0.0000000000000000 [Eh]
	 Same-Spin Energy          =      -0.4155991802345208 [Eh]
	 Opposite-Spin Energy      =      -1.2302383121263389 [Eh]
	 Correlation Energy        =      -1.6458374923608599 [Eh]
	 Total Energy              =    -414.2563998007129271 [Eh]

	 ================> DF-SCS-MP2 Energies <==================
	-----------------------------------------------------------
	 SCS Same-Spin Scale       =       0.3333333333333333 [-]
	 SCS Opposite-Spin Scale   =       1.2000000000000000 [-]
	 SCS Same-Spin Energy      =      -0.1385330600781736 [Eh]
	 SCS Opposite-Spin Energy  =      -1.4762859745516066 [Eh]
	 SCS Correlation Energy    =      -1.6148190346297802 [Eh]
	 SCS Total Energy          =    -414.2253813429818479 [Eh]
	-----------------------------------------------------------

  Dipole Moment: [D]
     X:     1.1658      Y:     4.0638      Z:    -0.0005     Total:     4.2277

*** Psi4 exiting successfully. Buy a developer a beer!
