                               Psi4 1.3.2 release

  ==> Input File <==

--------------------------------------------------------------------------
#psi4
#
memory 32 gb

molecule  {
0 1
  N       -0.0337150    -0.9783820    -0.0001030
  H       -0.0465630    -1.9952990     0.0000230
  C       -1.2924060    -0.3478390    -0.0002800
  O       -2.4918491    -1.1217233     0.0002584
  C       -1.2062280     1.1067970     0.0000000
  H       -2.1261180     1.6763830     0.0001840
  C        0.0030670     1.7105540     0.0000260
  H        0.1229620     2.7891690     0.0001530
  N        1.1742530     0.9863660    -0.0000120
  H        2.0766210     1.4468080     0.0000740
  C        1.2261220    -0.4021520    -0.0000880
  O        2.2745420    -1.0338450     0.0001200
units angstrom
no_reorient  #important for SAPT in psi4, default
symmetry c1  #important for SAPT in psi4, default
}

set PROPERTIES_ORIGIN ["COM"]
properties('MP2/aug-cc-pvtz', properties = ['dipole'])
--------------------------------------------------------------------------

    Molecular point group: c1
  Charge       = 0
  Multiplicity = 1
  Basis Set: AUG-CC-PVTZ
    Blend: AUG-CC-PVTZ
  Basis Set: (AUG-CC-PVTZ AUX)
    Blend: AUG-CC-PVTZ-JKFIT

    Orbital Energies [Eh]
    ---------------------

    Doubly Occupied:

       1A    -20.561343     2A    -20.535693     3A    -15.662403
       4A    -15.653093     5A    -11.436151     6A    -11.412058
       7A    -11.359994     8A    -11.274330     9A     -1.441571
      10A     -1.336012    11A     -1.293466    12A     -1.231237
      13A     -1.101460    14A     -0.945385    15A     -0.918372
      16A     -0.817076    17A     -0.766456    18A     -0.726592
      19A     -0.677528    20A     -0.674797    21A     -0.659830
      22A     -0.602281    23A     -0.564568    24A     -0.541696
      25A     -0.533673    26A     -0.489219    27A     -0.435517
      28A     -0.425153    29A     -0.376045

  @DF-RHF Final Energy:  -412.56260794525815

   => Energetics <=

    Nuclear Repulsion Energy =            349.3149051016777662
    One-Electron Energy =               -1254.8490243008332072
    Two-Electron Energy =                 492.9715112538972335
    Total Energy =                       -412.5626079452581507
  Basis Set: (AUG-CC-PVTZ AUX)
    Blend: AUG-CC-PVTZ-RI
    Molecular point group: c1

    Geometry (in Angstrom), charge = 0, multiplicity = 1:

       Center              X                  Y                   Z               Mass
    ------------   -----------------  -----------------  -----------------  -----------------
         N           -0.009515554594    -0.928302248219    -0.000109922584    14.003074004430
         H           -0.022363554594    -1.945219248219     0.000016077416     1.007825032230
         C           -1.268206554594    -0.297759248219    -0.000286922584    12.000000000000
         O           -2.467649654594    -1.071643548219     0.000251477416    15.994914619570
         C           -1.182028554594     1.156876751781    -0.000006922584    12.000000000000
         H           -2.101918554594     1.726462751781     0.000177077416     1.007825032230
         C            0.027266445406     1.760633751781     0.000019077416    12.000000000000
         H            0.147161445406     2.839248751781     0.000146077416     1.007825032230
         N            1.198452445406     1.036445751781    -0.000018922584    14.003074004430
         H            2.100820445406     1.496887751781     0.000067077416     1.007825032230
         C            1.250321445406    -0.352072248219    -0.000094922584    12.000000000000
         O            2.298741445406    -0.983765248219     0.000113077416    15.994914619570

  Basis Set: AUG-CC-PVTZ
    Blend: AUG-CC-PVTZ
  Basis Set: (AUG-CC-PVTZ AUX)
    Blend: AUG-CC-PVTZ-JKFIT
	 Reference Energy          =    -412.5626079452581507 [Eh]
	 Singles Energy            =      -0.0000000000000000 [Eh]
	 Same-Spin Energy          =      -0.4195516648424360 [Eh]
	 Opposite-Spin Energy      =      -1.2396397560563279 [Eh]
	 Correlation Energy        =      -1.6591914208987639 [Eh]
	 Total Energy              =    -414.2217993661569153 [Eh]

	 ================> DF-SCS-MP2 Energies <==================
	-----------------------------------------------------------
	 SCS Same-Spin Scale       =       0.3333333333333333 [-]
	 SCS Opposite-Spin Scale   =       1.2000000000000000 [-]
	 SCS Same-Spin Energy      =      -0.1398505549474787 [Eh]
	 SCS Opposite-Spin Energy  =      -1.4875677072675935 [Eh]
	 SCS Correlation Energy    =      -1.6274182622150721 [Eh]
	 SCS Total Energy          =    -414.1900262074732382 [Eh]
	-----------------------------------------------------------

  Dipole Moment: [D]
     X:     2.2528      Y:     4.7447      Z:    -0.0005     Total:     5.2524

*** Psi4 exiting successfully. Buy a developer a beer!
