                               Psi4 1.3.2 release

  ==> Input File <==

--------------------------------------------------------------------------
#psi4
#
memory 32 gb

molecule  {
0 1
  N       -0.0337150    -0.9783820    -0.0001030
  H       -0.0465630    -1.9952990     0.0000230
  C       -1.2924060    -0.3478390    -0.0002800
  O       -2.3237930    -1.0132930     0.0001830
  C       -1.1611663     1.0239116    -0.0000041
  H       -2.1261180     1.6763830     0.0001840
  C        0.0030670     1.7105540     0.0000260
  H        0.1229620     2.7891690     0.0001530
  N        1.1742530     0.9863660    -0.0000120
  H        2.0766210     1.4468080     0.0000740
  C        1.2261220    -0.4021520    -0.0000880
  O        2.2745420    -1.0338450     0.0001200
units angstrom
no_reorient  #important for SAPT in psi4, default
symmetry c1  #important for SAPT in psi4, default
}

set PROPERTIES_ORIGIN ["COM"]
properties('MP2/aug-cc-pvtz', properties = ['dipole'])
--------------------------------------------------------------------------

    Molecular point group: c1
  Charge       = 0
  Multiplicity = 1
  Basis Set: AUG-CC-PVTZ
    Blend: AUG-CC-PVTZ
  Basis Set: (AUG-CC-PVTZ AUX)
    Blend: AUG-CC-PVTZ-JKFIT

    Orbital Energies [Eh]
    ---------------------

    Doubly Occupied:

       1A    -20.548518     2A    -20.540474     3A    -15.648526
       4A    -15.628218     5A    -11.422728     6A    -11.377998
       7A    -11.351558     8A    -11.258923     9A     -1.432003
      10A     -1.392986    11A     -1.313450    12A     -1.243749
      13A     -1.095036    14A     -0.945086    15A     -0.902754
      16A     -0.797594    17A     -0.770755    18A     -0.718614
      19A     -0.677219    20A     -0.668690    21A     -0.649516
      22A     -0.619736    23A     -0.571962    24A     -0.570906
      25A     -0.525981    26A     -0.486038    27A     -0.451303
      28A     -0.436018    29A     -0.370900

  @DF-RHF Final Energy:  -412.60745720856494

   => Energetics <=

    Nuclear Repulsion Energy =            357.0499826795291938
    One-Electron Energy =               -1270.4804104839909087
    Two-Electron Energy =                 500.8229705958967770
    Total Energy =                       -412.6074572085649379
  Basis Set: (AUG-CC-PVTZ AUX)
    Blend: AUG-CC-PVTZ-RI
    Molecular point group: c1

    Geometry (in Angstrom), charge = 0, multiplicity = 1:

       Center              X                  Y                   Z               Mass
    ------------   -----------------  -----------------  -----------------  -----------------
         N           -0.038336958152    -0.934905181076    -0.000098718022    14.003074004430
         H           -0.051184958152    -1.951822181076     0.000027281978     1.007825032230
         C           -1.297027958152    -0.304362181076    -0.000275718022    12.000000000000
         O           -2.328414958152    -0.969816181076     0.000187281978    15.994914619570
         C           -1.165788258152     1.067388418924     0.000000181978    12.000000000000
         H           -2.130739958152     1.719859818924     0.000188281978     1.007825032230
         C           -0.001554958152     1.754030818924     0.000030281978    12.000000000000
         H            0.118340041848     2.832645818924     0.000157281978     1.007825032230
         N            1.169631041848     1.029842818924    -0.000007718022    14.003074004430
         H            2.071999041848     1.490284818924     0.000078281978     1.007825032230
         C            1.221500041848    -0.358675181076    -0.000083718022    12.000000000000
         O            2.269920041848    -0.990368181076     0.000124281978    15.994914619570

  Basis Set: AUG-CC-PVTZ
    Blend: AUG-CC-PVTZ
  Basis Set: (AUG-CC-PVTZ AUX)
    Blend: AUG-CC-PVTZ-JKFIT
	 Reference Energy          =    -412.6074572085649379 [Eh]
	 Singles Energy            =      -0.0000000000000000 [Eh]
	 Same-Spin Energy          =      -0.4163536745970005 [Eh]
	 Opposite-Spin Energy      =      -1.2302685839497984 [Eh]
	 Correlation Energy        =      -1.6466222585467989 [Eh]
	 Total Energy              =    -414.2540794671117510 [Eh]

	 ================> DF-SCS-MP2 Energies <==================
	-----------------------------------------------------------
	 SCS Same-Spin Scale       =       0.3333333333333333 [-]
	 SCS Opposite-Spin Scale   =       1.2000000000000000 [-]
	 SCS Same-Spin Energy      =      -0.1387845581990002 [Eh]
	 SCS Opposite-Spin Energy  =      -1.4763223007397581 [Eh]
	 SCS Correlation Energy    =      -1.6151068589387583 [Eh]
	 SCS Total Energy          =    -414.2225640675036971 [Eh]
	-----------------------------------------------------------

  Dipole Moment: [D]
     X:     1.2857      Y:     4.3912      Z:    -0.0005     Total:     4.5755

*** Psi4 exiting successfully. Buy a developer a beer!
