                               Psi4 1.3.2 release

  ==> Input File <==

--------------------------------------------------------------------------
#psi4
#
memory 32 gb

molecule  {
0 1
  N       -0.0337150    -0.9783820    -0.0001030
  H       -0.0440363    -1.7953150    -0.0000018
  C       -1.2924060    -0.3478390    -0.0002800
  O       -2.3237930    -1.0132930     0.0001830
  C       -1.2062280     1.1067970     0.0000000
  H       -2.1261180     1.6763830     0.0001840
  C        0.0030670     1.7105540     0.0000260
  H        0.1229620     2.7891690     0.0001530
  N        1.1742530     0.9863660    -0.0000120
  H        2.0766210     1.4468080     0.0000740
  C        1.2261220    -0.4021520    -0.0000880
  O        2.2745420    -1.0338450     0.0001200
units angstrom
no_reorient  #important for SAPT in psi4, default
symmetry c1  #important for SAPT in psi4, default
}

set PROPERTIES_ORIGIN ["COM"]
properties('MP2/aug-cc-pvtz', properties = ['dipole'])
--------------------------------------------------------------------------

    Molecular point group: c1
  Charge       = 0
  Multiplicity = 1
  Basis Set: AUG-CC-PVTZ
    Blend: AUG-CC-PVTZ
  Basis Set: (AUG-CC-PVTZ AUX)
    Blend: AUG-CC-PVTZ-JKFIT

    Orbital Energies [Eh]
    ---------------------

    Doubly Occupied:

       1A    -20.552074     2A    -20.546462     3A    -15.648342
       4A    -15.612817     5A    -11.425238     6A    -11.387044
       7A    -11.345924     8A    -11.260565     9A     -1.438251
      10A     -1.397374    11A     -1.314251    12A     -1.272085
      13A     -1.090981    14A     -0.953720    15A     -0.904430
      16A     -0.829773    17A     -0.766498    18A     -0.736443
      19A     -0.682079    20A     -0.669432    21A     -0.654266
      22A     -0.617671    23A     -0.607431    24A     -0.571215
      25A     -0.527125    26A     -0.485735    27A     -0.452835
      28A     -0.442308    29A     -0.371695

  @DF-RHF Final Energy:  -412.57739974934952

   => Energetics <=

    Nuclear Repulsion Energy =            356.8047847900323859
    One-Electron Energy =               -1269.6362363575040035
    Two-Electron Energy =                 500.2540518181220932
    Total Energy =                       -412.5773997493495244
  Basis Set: (AUG-CC-PVTZ AUX)
    Blend: AUG-CC-PVTZ-RI
    Molecular point group: c1

    Geometry (in Angstrom), charge = 0, multiplicity = 1:

       Center              X                  Y                   Z               Mass
    ------------   -----------------  -----------------  -----------------  -----------------
         N           -0.033532825256    -0.945582702741    -0.000098934094    14.003074004430
         H           -0.043854125256    -1.762515702741     0.000002265906     1.007825032230
         C           -1.292223825256    -0.315039702741    -0.000275934094    12.000000000000
         O           -2.323610825256    -0.980493702741     0.000187065906    15.994914619570
         C           -1.206045825256     1.139596297259     0.000004065906    12.000000000000
         H           -2.125935825256     1.709182297259     0.000188065906     1.007825032230
         C            0.003249174744     1.743353297259     0.000030065906    12.000000000000
         H            0.123144174744     2.821968297259     0.000157065906     1.007825032230
         N            1.174435174744     1.019165297259    -0.000007934094    14.003074004430
         H            2.076803174744     1.479607297259     0.000078065906     1.007825032230
         C            1.226304174744    -0.369352702741    -0.000083934094    12.000000000000
         O            2.274724174744    -1.001045702741     0.000124065906    15.994914619570

  Basis Set: AUG-CC-PVTZ
    Blend: AUG-CC-PVTZ
  Basis Set: (AUG-CC-PVTZ AUX)
    Blend: AUG-CC-PVTZ-JKFIT
	 Reference Energy          =    -412.5773997493495244 [Eh]
	 Singles Energy            =      -0.0000000000000000 [Eh]
	 Same-Spin Energy          =      -0.4132862825277418 [Eh]
	 Opposite-Spin Energy      =      -1.2259247247564344 [Eh]
	 Correlation Energy        =      -1.6392110072841763 [Eh]
	 Total Energy              =    -414.2166107566337132 [Eh]

	 ================> DF-SCS-MP2 Energies <==================
	-----------------------------------------------------------
	 SCS Same-Spin Scale       =       0.3333333333333333 [-]
	 SCS Opposite-Spin Scale   =       1.2000000000000000 [-]
	 SCS Same-Spin Energy      =      -0.1377620941759139 [Eh]
	 SCS Opposite-Spin Energy  =      -1.4711096697077213 [Eh]
	 SCS Correlation Energy    =      -1.6088717638836352 [Eh]
	 SCS Total Energy          =    -414.1862715132331800 [Eh]
	-----------------------------------------------------------

  Dipole Moment: [D]
     X:     1.1811      Y:     4.4377      Z:    -0.0006     Total:     4.5921

*** Psi4 exiting successfully. Buy a developer a beer!
