                               Psi4 1.4a3.dev225

  ==> Input File <==

--------------------------------------------------------------------------
#psi4
#
memory 32 gb

molecule  {
0 1
  N        0.0336940    -0.9783750    -0.0000010
  H        0.0471450    -1.9953050    -0.0000010
  C        1.2925930    -0.3474800     0.0000000
  O        2.3237090    -1.0134020     0.0000010
  C        1.2062870     1.1068390     0.0000000
  H        2.1256600     1.6771670     0.0000010
  C       -0.0033680     1.7103630     0.0000000
  H       -0.1227300     2.7890550     0.0000000
  N       -1.1742180     0.9864080    -0.0000010
  H       -2.1211599     1.4694449     0.0000011
  C       -1.2259650    -0.4025210     0.0000010
  O       -2.2745920    -1.0337330     0.0000010
units angstrom
no_reorient  #important for SAPT in psi4, default
symmetry c1  #important for SAPT in psi4, default
}

set PROPERTIES_ORIGIN ["COM"]
properties('MP2/aug-cc-pvtz', properties = ['dipole'])
--------------------------------------------------------------------------

    Molecular point group: c1
  Charge       = 0
  Multiplicity = 1
  Basis Set: AUG-CC-PVTZ
    Blend: AUG-CC-PVTZ
  Basis Set: (AUG-CC-PVTZ AUX)
    Blend: AUG-CC-PVTZ-JKFIT

    Orbital Energies [Eh]
    ---------------------

    Doubly Occupied:

       1A    -20.549022     2A    -20.543690     3A    -15.651026
       4A    -15.630545     5A    -11.422774     6A    -11.384910
       7A    -11.344312     8A    -11.259188     9A     -1.430747
      10A     -1.393617    11A     -1.307866    12A     -1.241376
      13A     -1.086570    14A     -0.931642    15A     -0.897261
      16A     -0.797563    17A     -0.761778    18A     -0.712302
      19A     -0.673702    20A     -0.666031    21A     -0.651241
      22A     -0.612322    23A     -0.600372    24A     -0.568355
      25A     -0.524309    26A     -0.483954    27A     -0.450308
      28A     -0.437107    29A     -0.369674

  @DF-RHF Final Energy:  -412.61723157916924

   => Energetics <=

    Nuclear Repulsion Energy =            355.0758556688961676
    One-Electron Energy =               -1266.6190494355532792
    Two-Electron Energy =                 498.9259621874879258
    Total Energy =                       -412.6172315791692427
  Basis Set: (AUG-CC-PVTZ AUX)
    Blend: AUG-CC-PVTZ-RI
    Molecular point group: c1

    Geometry (in Angstrom), charge = 0, multiplicity = 1:

       Center              X                  Y                   Z               Mass
    ------------   -----------------  -----------------  -----------------  -----------------
         N            0.033893030956    -0.943975739591    -0.000001152573    14.003074004430
         H            0.047344030956    -1.960905739591    -0.000001152573     1.007825032230
         C            1.292792030956    -0.313080739591    -0.000000152573    12.000000000000
         O            2.323908030956    -0.979002739591     0.000000847427    15.994914619570
         C            1.206486030956     1.141238260409    -0.000000152573    12.000000000000
         H            2.125859030956     1.711566260409     0.000000847427     1.007825032230
         C           -0.003168969044     1.744762260409    -0.000000152573    12.000000000000
         H           -0.122530969044     2.823454260409    -0.000000152573     1.007825032230
         N           -1.174018969044     1.020807260409    -0.000001152573    14.003074004430
         H           -2.120960869044     1.503844160409     0.000000947427     1.007825032230
         C           -1.225765969044    -0.368121739591     0.000000847427    12.000000000000
         O           -2.274392969044    -0.999333739591     0.000000847427    15.994914619570

  Basis Set: AUG-CC-PVTZ
    Blend: AUG-CC-PVTZ
  Basis Set: (AUG-CC-PVTZ AUX)
    Blend: AUG-CC-PVTZ-JKFIT
	 Reference Energy          =    -412.6172315791692427 [Eh]
	 Singles Energy            =      -0.0000000000000000 [Eh]
	 Same-Spin Energy          =      -0.4151230433691053 [Eh]
	 Opposite-Spin Energy      =      -1.2292365867555546 [Eh]
	 Correlation Energy        =      -1.6443596301246599 [Eh]
	 Total Energy              =    -414.2615912092938970 [Eh]

	 ================> DF-SCS-MP2 Energies <==================
	-----------------------------------------------------------
	 SCS Same-Spin Scale       =       0.3333333333333333 [-]
	 SCS Opposite-Spin Scale   =       1.2000000000000000 [-]
	 SCS Same-Spin Energy      =      -0.1383743477897018 [Eh]
	 SCS Opposite-Spin Energy  =      -1.4750839041066655 [Eh]
	 SCS Correlation Energy    =      -1.6134582518963672 [Eh]
	 SCS Total Energy          =    -414.2306898310656038 [Eh]
	-----------------------------------------------------------

  Dipole Moment: [D]
     X:    -1.2394      Y:     4.2282      Z:     0.0000     Total:     4.4062

*** Psi4 exiting successfully. Buy a developer a beer!
