                               Psi4 1.3.2 release

  ==> Input File <==

--------------------------------------------------------------------------
#psi4
#
memory 32 gb

molecule  {
0 1
  N       -0.0229022    -0.9563188    -0.0000966
  H       -0.0465630    -1.9952990     0.0000230
  C       -1.2924060    -0.3478390    -0.0002800
  O       -2.3237930    -1.0132930     0.0001830
  C       -1.2062280     1.1067970     0.0000000
  H       -2.1261180     1.6763830     0.0001840
  C        0.0030670     1.7105540     0.0000260
  H        0.1229620     2.7891690     0.0001530
  N        1.1742530     0.9863660    -0.0000120
  H        2.0766210     1.4468080     0.0000740
  C        1.2261220    -0.4021520    -0.0000880
  O        2.2745420    -1.0338450     0.0001200
units angstrom
no_reorient  #important for SAPT in psi4, default
symmetry c1  #important for SAPT in psi4, default
}

set PROPERTIES_ORIGIN ["COM"]
properties('MP2/aug-cc-pvtz', properties = ['dipole'])
--------------------------------------------------------------------------

    Molecular point group: c1
  Charge       = 0
  Multiplicity = 1
  Basis Set: AUG-CC-PVTZ
    Blend: AUG-CC-PVTZ
  Basis Set: (AUG-CC-PVTZ AUX)
    Blend: AUG-CC-PVTZ-JKFIT

    Orbital Energies [Eh]
    ---------------------

    Doubly Occupied:

       1A    -20.547816     2A    -20.546221     3A    -15.645977
       4A    -15.632794     5A    -11.421186     6A    -11.386757
       7A    -11.344252     8A    -11.259064     9A     -1.432689
      10A     -1.394769    11A     -1.311446    12A     -1.245247
      13A     -1.088724    14A     -0.930473    15A     -0.906769
      16A     -0.802658    17A     -0.763528    18A     -0.709159
      19A     -0.676860    20A     -0.668818    21A     -0.652095
      22A     -0.615826    23A     -0.598011    24A     -0.568956
      25A     -0.525047    26A     -0.483671    27A     -0.452138
      28A     -0.438590    29A     -0.370199

  @DF-RHF Final Energy:  -412.61945682414444

   => Energetics <=

    Nuclear Repulsion Energy =            355.7702969666611921
    One-Electron Energy =               -1267.9400281129996984
    Two-Electron Energy =                 499.5502743221941273
    Total Energy =                       -412.6194568241444358
  Basis Set: (AUG-CC-PVTZ AUX)
    Blend: AUG-CC-PVTZ-RI
    Molecular point group: c1

    Geometry (in Angstrom), charge = 0, multiplicity = 1:

       Center              X                  Y                   Z               Mass
    ------------   -----------------  -----------------  -----------------  -----------------
         N           -0.024048862041    -0.924478231219    -0.000093557182    14.003074004430
         H           -0.047709662041    -1.963458431219     0.000026042818     1.007825032230
         C           -1.293552662041    -0.315998431219    -0.000276957182    12.000000000000
         O           -2.324939662041    -0.981452431219     0.000186042818    15.994914619570
         C           -1.207374662041     1.138637568781     0.000003042818    12.000000000000
         H           -2.127264662041     1.708223568781     0.000187042818     1.007825032230
         C            0.001920337959     1.742394568781     0.000029042818    12.000000000000
         H            0.121815337959     2.821009568781     0.000156042818     1.007825032230
         N            1.173106337959     1.018206568781    -0.000008957182    14.003074004430
         H            2.075474337959     1.478648568781     0.000077042818     1.007825032230
         C            1.224975337959    -0.370311431219    -0.000084957182    12.000000000000
         O            2.273395337959    -1.002004431219     0.000123042818    15.994914619570

  Basis Set: AUG-CC-PVTZ
    Blend: AUG-CC-PVTZ
  Basis Set: (AUG-CC-PVTZ AUX)
    Blend: AUG-CC-PVTZ-JKFIT
	 Reference Energy          =    -412.6194568241444358 [Eh]
	 Singles Energy            =      -0.0000000000000000 [Eh]
	 Same-Spin Energy          =      -0.4150902819957419 [Eh]
	 Opposite-Spin Energy      =      -1.2287254112149437 [Eh]
	 Correlation Energy        =      -1.6438156932106858 [Eh]
	 Total Energy              =    -414.2632725173551194 [Eh]

	 ================> DF-SCS-MP2 Energies <==================
	-----------------------------------------------------------
	 SCS Same-Spin Scale       =       0.3333333333333333 [-]
	 SCS Opposite-Spin Scale   =       1.2000000000000000 [-]
	 SCS Same-Spin Energy      =      -0.1383634273319140 [Eh]
	 SCS Opposite-Spin Energy  =      -1.4744704934579325 [Eh]
	 SCS Correlation Energy    =      -1.6128339207898463 [Eh]
	 SCS Total Energy          =    -414.2322907449342893 [Eh]
	-----------------------------------------------------------

  Dipole Moment: [D]
     X:     1.0960      Y:     4.1564      Z:    -0.0005     Total:     4.2985

*** Psi4 exiting successfully. Buy a developer a beer!
