                               Psi4 1.3.2 release

  ==> Input File <==

--------------------------------------------------------------------------
#psi4
#
memory 32 gb

molecule  {
0 1
  N       -0.0337150    -0.9783820    -0.0001030
  H       -0.0465630    -1.9952990     0.0000230
  C       -1.2924060    -0.3478390    -0.0002800
  O       -2.3237930    -1.0132930     0.0001830
  C       -1.2062280     1.1067970     0.0000000
  H       -2.1261180     1.6763830     0.0001840
  C       -0.0662154     1.5841645     0.0000190
  H        0.1229620     2.7891690     0.0001530
  N        1.1742530     0.9863660    -0.0000120
  H        2.0766210     1.4468080     0.0000740
  C        1.2261220    -0.4021520    -0.0000880
  O        2.2745420    -1.0338450     0.0001200
units angstrom
no_reorient  #important for SAPT in psi4, default
symmetry c1  #important for SAPT in psi4, default
}

set PROPERTIES_ORIGIN ["COM"]
properties('MP2/aug-cc-pvtz', properties = ['dipole'])
--------------------------------------------------------------------------

    Molecular point group: c1
  Charge       = 0
  Multiplicity = 1
  Basis Set: AUG-CC-PVTZ
    Blend: AUG-CC-PVTZ
  Basis Set: (AUG-CC-PVTZ AUX)
    Blend: AUG-CC-PVTZ-JKFIT

    Orbital Energies [Eh]
    ---------------------

    Doubly Occupied:

       1A    -20.547767     2A    -20.547479     3A    -15.643952
       4A    -15.631206     5A    -11.419027     6A    -11.386828
       7A    -11.333879     8A    -11.248876     9A     -1.431918
      10A     -1.396469    11A     -1.312812    12A     -1.242343
      13A     -1.120848    14A     -0.914222    15A     -0.903357
      16A     -0.815911    17A     -0.768633    18A     -0.692774
      19A     -0.675827    20A     -0.670109    21A     -0.658769
      22A     -0.626857    23A     -0.574168    24A     -0.570081
      25A     -0.532263    26A     -0.475572    27A     -0.451617
      28A     -0.438457    29A     -0.391572

  @DF-RHF Final Energy:  -412.59305111424402

   => Energetics <=

    Nuclear Repulsion Energy =            357.9358620433881697
    One-Electron Energy =               -1272.2106380778366201
    Two-Electron Energy =                 501.6817249202044309
    Total Energy =                       -412.5930511142440196
  Basis Set: (AUG-CC-PVTZ AUX)
    Blend: AUG-CC-PVTZ-RI
    Molecular point group: c1

    Geometry (in Angstrom), charge = 0, multiplicity = 1:

       Center              X                  Y                   Z               Mass
    ------------   -----------------  -----------------  -----------------  -----------------
         N           -0.026088787598    -0.930245162443    -0.000098407384    14.003074004430
         H           -0.038936787598    -1.947162162443     0.000027592616     1.007825032230
         C           -1.284779787598    -0.299702162443    -0.000275407384    12.000000000000
         O           -2.316166787598    -0.965156162443     0.000187592616    15.994914619570
         C           -1.198601787598     1.154933837557     0.000004592616    12.000000000000
         H           -2.118491787598     1.724519837557     0.000188592616     1.007825032230
         C           -0.058589187598     1.632301337557     0.000023592616    12.000000000000
         H            0.130588212402     2.837305837557     0.000157592616     1.007825032230
         N            1.181879212402     1.034502837557    -0.000007407384    14.003074004430
         H            2.084247212402     1.494944837557     0.000078592616     1.007825032230
         C            1.233748212402    -0.354015162443    -0.000083407384    12.000000000000
         O            2.282168212402    -0.985708162443     0.000124592616    15.994914619570

  Basis Set: AUG-CC-PVTZ
    Blend: AUG-CC-PVTZ
  Basis Set: (AUG-CC-PVTZ AUX)
    Blend: AUG-CC-PVTZ-JKFIT
	 Reference Energy          =    -412.5930511142440196 [Eh]
	 Singles Energy            =      -0.0000000000000000 [Eh]
	 Same-Spin Energy          =      -0.4142377313227952 [Eh]
	 Opposite-Spin Energy      =      -1.2272595900932981 [Eh]
	 Correlation Energy        =      -1.6414973214160933 [Eh]
	 Total Energy              =    -414.2345484356600878 [Eh]

	 ================> DF-SCS-MP2 Energies <==================
	-----------------------------------------------------------
	 SCS Same-Spin Scale       =       0.3333333333333333 [-]
	 SCS Opposite-Spin Scale   =       1.2000000000000000 [-]
	 SCS Same-Spin Energy      =      -0.1380792437742651 [Eh]
	 SCS Opposite-Spin Energy  =      -1.4727115081119577 [Eh]
	 SCS Correlation Energy    =      -1.6107907518862228 [Eh]
	 SCS Total Energy          =    -414.2038418661302330 [Eh]
	-----------------------------------------------------------

  Dipole Moment: [D]
     X:     0.9543      Y:     3.9914      Z:    -0.0006     Total:     4.1039

*** Psi4 exiting successfully. Buy a developer a beer!
