                               Psi4 1.3.2 release

  ==> Input File <==

--------------------------------------------------------------------------
#psi4
#
memory 32 gb

molecule  {
0 1
  N       -0.0337150    -0.9783820    -0.0001030
  H       -0.0465630    -1.9952990     0.0000230
  C       -1.2924060    -0.3478390    -0.0002800
  O       -2.3237930    -1.0132930     0.0001830
  C       -1.2062280     1.1067970     0.0000000
  H       -2.1261180     1.6763830     0.0001840
  C        0.0158842     1.7308837     0.0000271
  H        0.1229620     2.7891690     0.0001530
  N        1.1742530     0.9863660    -0.0000120
  H        2.0766210     1.4468080     0.0000740
  C        1.2261220    -0.4021520    -0.0000880
  O        2.2745420    -1.0338450     0.0001200
units angstrom
no_reorient  #important for SAPT in psi4, default
symmetry c1  #important for SAPT in psi4, default
}

set PROPERTIES_ORIGIN ["COM"]
properties('MP2/aug-cc-pvtz', properties = ['dipole'])
--------------------------------------------------------------------------

    Molecular point group: c1
  Charge       = 0
  Multiplicity = 1
  Basis Set: AUG-CC-PVTZ
    Blend: AUG-CC-PVTZ
  Basis Set: (AUG-CC-PVTZ AUX)
    Blend: AUG-CC-PVTZ-JKFIT

    Orbital Energies [Eh]
    ---------------------

    Doubly Occupied:

       1A    -20.550033     2A    -20.543555     3A    -15.648286
       4A    -15.630822     5A    -11.424008     6A    -11.385114
       7A    -11.346718     8A    -11.261658     9A     -1.431915
      10A     -1.393745    11A     -1.310668    12A     -1.244014
      13A     -1.083848    14A     -0.935480    15A     -0.900759
      16A     -0.803438    17A     -0.762887    18A     -0.719521
      19A     -0.676207    20A     -0.666394    21A     -0.652117
      22A     -0.612815    23A     -0.601858    24A     -0.568876
      25A     -0.524255    26A     -0.485430    27A     -0.450477
      28A     -0.437335    29A     -0.367062

  @DF-RHF Final Energy:  -412.61915766142738

   => Energetics <=

    Nuclear Repulsion Energy =            354.9754758027492585
    One-Electron Energy =               -1266.3506768499337340
    Two-Electron Energy =                 498.7560433857570388
    Total Energy =                       -412.6191576614273799
  Basis Set: (AUG-CC-PVTZ AUX)
    Blend: AUG-CC-PVTZ-RI
    Molecular point group: c1

    Geometry (in Angstrom), charge = 0, multiplicity = 1:

       Center              X                  Y                   Z               Mass
    ------------   -----------------  -----------------  -----------------  -----------------
         N           -0.034883031492    -0.945961249107    -0.000099275029    14.003074004430
         H           -0.047731031492    -1.962878249107     0.000026724971     1.007825032230
         C           -1.293574031492    -0.315418249107    -0.000276275029    12.000000000000
         O           -2.324961031492    -0.980872249107     0.000186724971    15.994914619570
         C           -1.207396031492     1.139217750893     0.000003724971    12.000000000000
         H           -2.127286031492     1.708803750893     0.000187724971     1.007825032230
         C            0.014716168508     1.763304450893     0.000030824971    12.000000000000
         H            0.121793968508     2.821589750893     0.000156724971     1.007825032230
         N            1.173084968508     1.018786750893    -0.000008275029    14.003074004430
         H            2.075452968508     1.479228750893     0.000077724971     1.007825032230
         C            1.224953968508    -0.369731249107    -0.000084275029    12.000000000000
         O            2.273373968508    -1.001424249107     0.000123724971    15.994914619570

  Basis Set: AUG-CC-PVTZ
    Blend: AUG-CC-PVTZ
  Basis Set: (AUG-CC-PVTZ AUX)
    Blend: AUG-CC-PVTZ-JKFIT
	 Reference Energy          =    -412.6191576614273799 [Eh]
	 Singles Energy            =      -0.0000000000000000 [Eh]
	 Same-Spin Energy          =      -0.4149665485047075 [Eh]
	 Opposite-Spin Energy      =      -1.2288994884080839 [Eh]
	 Correlation Energy        =      -1.6438660369127915 [Eh]
	 Total Energy              =    -414.2630236983401915 [Eh]

	 ================> DF-SCS-MP2 Energies <==================
	-----------------------------------------------------------
	 SCS Same-Spin Scale       =       0.3333333333333333 [-]
	 SCS Opposite-Spin Scale   =       1.2000000000000000 [-]
	 SCS Same-Spin Energy      =      -0.1383221828349025 [Eh]
	 SCS Opposite-Spin Energy  =      -1.4746793860897007 [Eh]
	 SCS Correlation Energy    =      -1.6130015689246031 [Eh]
	 SCS Total Energy          =    -414.2321592303520106 [Eh]
	-----------------------------------------------------------

  Dipole Moment: [D]
     X:     1.2049      Y:     4.2102      Z:    -0.0005     Total:     4.3792

*** Psi4 exiting successfully. Buy a developer a beer!
