                               Psi4 1.3.2 release

  ==> Input File <==

--------------------------------------------------------------------------
#psi4
#
memory 32 gb

molecule  {
0 1
  N        0.0252994    -0.8433588    -0.0000653
  H       -0.0465630    -1.9952990     0.0000230
  C       -1.2924060    -0.3478390    -0.0002800
  O       -2.3237930    -1.0132930     0.0001830
  C       -1.2062280     1.1067970     0.0000000
  H       -2.1261180     1.6763830     0.0001840
  C        0.0030670     1.7105540     0.0000260
  H        0.1229620     2.7891690     0.0001530
  N        1.1742530     0.9863660    -0.0000120
  H        2.0766210     1.4468080     0.0000740
  C        1.2261220    -0.4021520    -0.0000880
  O        2.2745420    -1.0338450     0.0001200
units angstrom
no_reorient  #important for SAPT in psi4, default
symmetry c1  #important for SAPT in psi4, default
}

set PROPERTIES_ORIGIN ["COM"]
properties('MP2/aug-cc-pvtz', properties = ['dipole'])
--------------------------------------------------------------------------

    Molecular point group: c1
  Charge       = 0
  Multiplicity = 1
  Basis Set: AUG-CC-PVTZ
    Blend: AUG-CC-PVTZ
  Basis Set: (AUG-CC-PVTZ AUX)
    Blend: AUG-CC-PVTZ-JKFIT

    Orbital Energies [Eh]
    ---------------------

    Doubly Occupied:

       1A    -20.556873     2A    -20.539386     3A    -15.641671
       4A    -15.639359     5A    -11.411053     6A    -11.395641
       7A    -11.342847     8A    -11.256083     9A     -1.440132
      10A     -1.398661    11A     -1.318445    12A     -1.250870
      13A     -1.092712    14A     -0.936099    15A     -0.920900
      16A     -0.795095    17A     -0.763024    18A     -0.692993
      19A     -0.681601    20A     -0.673287    21A     -0.649954
      22A     -0.619354    23A     -0.579475    24A     -0.569819
      25A     -0.525057    26A     -0.479643    27A     -0.457781
      28A     -0.443898    29A     -0.368796

  @DF-RHF Final Energy:  -412.58559128409797

   => Energetics <=

    Nuclear Repulsion Energy =            357.8589803834364034
    One-Electron Energy =               -1272.0081210944244958
    Two-Electron Energy =                 501.5635494268901766
    Total Energy =                       -412.5855912840979727
  Basis Set: (AUG-CC-PVTZ AUX)
    Blend: AUG-CC-PVTZ-RI
    Molecular point group: c1

    Geometry (in Angstrom), charge = 0, multiplicity = 1:

       Center              X                  Y                   Z               Mass
    ------------   -----------------  -----------------  -----------------  -----------------
         N            0.018127682385    -0.825637892756    -0.000066169588    14.003074004430
         H           -0.053734717615    -1.977578092756     0.000022130412     1.007825032230
         C           -1.299577717615    -0.330118092756    -0.000280869588    12.000000000000
         O           -2.330964717615    -0.995572092756     0.000182130412    15.994914619570
         C           -1.213399717615     1.124517907244    -0.000000869588    12.000000000000
         H           -2.133289717615     1.694103907244     0.000183130412     1.007825032230
         C           -0.004104717615     1.728274907244     0.000025130412    12.000000000000
         H            0.115790282385     2.806889907244     0.000152130412     1.007825032230
         N            1.167081282385     1.004086907244    -0.000012869588    14.003074004430
         H            2.069449282385     1.464528907244     0.000073130412     1.007825032230
         C            1.218950282385    -0.384431092756    -0.000088869588    12.000000000000
         O            2.267370282385    -1.016124092756     0.000119130412    15.994914619570

  Basis Set: AUG-CC-PVTZ
    Blend: AUG-CC-PVTZ
  Basis Set: (AUG-CC-PVTZ AUX)
    Blend: AUG-CC-PVTZ-JKFIT
	 Reference Energy          =    -412.5855912840979727 [Eh]
	 Singles Energy            =      -0.0000000000000000 [Eh]
	 Same-Spin Energy          =      -0.4176289964811232 [Eh]
	 Opposite-Spin Energy      =      -1.2323722116076987 [Eh]
	 Correlation Energy        =      -1.6500012080888218 [Eh]
	 Total Energy              =    -414.2355924921868109 [Eh]

	 ================> DF-SCS-MP2 Energies <==================
	-----------------------------------------------------------
	 SCS Same-Spin Scale       =       0.3333333333333333 [-]
	 SCS Opposite-Spin Scale   =       1.2000000000000000 [-]
	 SCS Same-Spin Energy      =      -0.1392096654937077 [Eh]
	 SCS Opposite-Spin Energy  =      -1.4788466539292384 [Eh]
	 SCS Correlation Energy    =      -1.6180563194229460 [Eh]
	 SCS Total Energy          =    -414.2036476035208921 [Eh]
	-----------------------------------------------------------

  Dipole Moment: [D]
     X:     0.7193      Y:     4.0074      Z:    -0.0006     Total:     4.0714

*** Psi4 exiting successfully. Buy a developer a beer!
