                               Psi4 1.3.2 release

  ==> Input File <==

--------------------------------------------------------------------------
#psi4
#
memory 32 gb

molecule  {
0 1
  N       -0.0337150    -0.9783820    -0.0001030
  H       -0.0465630    -1.9952990     0.0000230
  C       -1.2924060    -0.3478390    -0.0002800
  O       -2.3237930    -1.0132930     0.0001830
  C       -1.2453982     1.1926239     0.0000042
  H       -2.1261180     1.6763830     0.0001840
  C        0.0030670     1.7105540     0.0000260
  H        0.1229620     2.7891690     0.0001530
  N        1.1742530     0.9863660    -0.0000120
  H        2.0766210     1.4468080     0.0000740
  C        1.2261220    -0.4021520    -0.0000880
  O        2.2745420    -1.0338450     0.0001200
units angstrom
no_reorient  #important for SAPT in psi4, default
symmetry c1  #important for SAPT in psi4, default
}

set PROPERTIES_ORIGIN ["COM"]
properties('MP2/aug-cc-pvtz', properties = ['dipole'])
--------------------------------------------------------------------------

    Molecular point group: c1
  Charge       = 0
  Multiplicity = 1
  Basis Set: AUG-CC-PVTZ
    Blend: AUG-CC-PVTZ
  Basis Set: (AUG-CC-PVTZ AUX)
    Blend: AUG-CC-PVTZ-JKFIT

    Orbital Energies [Eh]
    ---------------------

    Doubly Occupied:

       1A    -20.550811     2A    -20.547082     3A    -15.647223
       4A    -15.633002     5A    -11.423846     6A    -11.390810
       7A    -11.340303     8A    -11.261608     9A     -1.431939
      10A     -1.394766    11A     -1.308995    12A     -1.244054
      13A     -1.083757    14A     -0.924509    15A     -0.898147
      16A     -0.814088    17A     -0.756204    18A     -0.710272
      19A     -0.676814    20A     -0.665479    21A     -0.661986
      22A     -0.629739    23A     -0.596720    24A     -0.567586
      25A     -0.524483    26A     -0.482317    27A     -0.447198
      28A     -0.438584    29A     -0.371025

  @DF-RHF Final Energy:  -412.61182101938221

   => Energetics <=

    Nuclear Repulsion Energy =            353.8040397782924629
    One-Electron Energy =               -1263.9850283711957672
    Two-Electron Energy =                 497.5691675735210993
    Total Energy =                       -412.6118210193822051
  Basis Set: (AUG-CC-PVTZ AUX)
    Blend: AUG-CC-PVTZ-RI
    Molecular point group: c1

    Geometry (in Angstrom), charge = 0, multiplicity = 1:

       Center              X                  Y                   Z               Mass
    ------------   -----------------  -----------------  -----------------  -----------------
         N           -0.029314309172    -0.952977097554    -0.000099607091    14.003074004430
         H           -0.042162309172    -1.969894097554     0.000026392909     1.007825032230
         C           -1.288005309172    -0.322434097554    -0.000276607091    12.000000000000
         O           -2.319392309172    -0.987888097554     0.000186392909    15.994914619570
         C           -1.240997509172     1.218028802446     0.000007592909    12.000000000000
         H           -2.121717309172     1.701787902446     0.000187392909     1.007825032230
         C            0.007467690828     1.735958902446     0.000029392909    12.000000000000
         H            0.127362690828     2.814573902446     0.000156392909     1.007825032230
         N            1.178653690828     1.011770902446    -0.000008607091    14.003074004430
         H            2.081021690828     1.472212902446     0.000077392909     1.007825032230
         C            1.230522690828    -0.376747097554    -0.000084607091    12.000000000000
         O            2.278942690828    -1.008440097554     0.000123392909    15.994914619570

  Basis Set: AUG-CC-PVTZ
    Blend: AUG-CC-PVTZ
  Basis Set: (AUG-CC-PVTZ AUX)
    Blend: AUG-CC-PVTZ-JKFIT
	 Reference Energy          =    -412.6118210193822051 [Eh]
	 Singles Energy            =      -0.0000000000000000 [Eh]
	 Same-Spin Energy          =      -0.4137672545366631 [Eh]
	 Opposite-Spin Energy      =      -1.2278640026844010 [Eh]
	 Correlation Energy        =      -1.6416312572210641 [Eh]
	 Total Energy              =    -414.2534522766032410 [Eh]

	 ================> DF-SCS-MP2 Energies <==================
	-----------------------------------------------------------
	 SCS Same-Spin Scale       =       0.3333333333333333 [-]
	 SCS Opposite-Spin Scale   =       1.2000000000000000 [-]
	 SCS Same-Spin Energy      =      -0.1379224181788877 [Eh]
	 SCS Opposite-Spin Energy  =      -1.4734368032212812 [Eh]
	 SCS Correlation Energy    =      -1.6113592214001689 [Eh]
	 SCS Total Energy          =    -414.2231802407823693 [Eh]
	-----------------------------------------------------------

  Dipole Moment: [D]
     X:     1.0857      Y:     3.9938      Z:    -0.0005     Total:     4.1388

*** Psi4 exiting successfully. Buy a developer a beer!
