                               Psi4 1.3.2 release

  ==> Input File <==

--------------------------------------------------------------------------
#psi4
#
memory 32 gb

molecule  {
0 1
  N       -0.0337150    -0.9783820    -0.0001030
  H       -0.0465630    -1.9952990     0.0000230
  C       -1.2924060    -0.3478390    -0.0002800
  O       -2.2397649    -0.9590778     0.0001453
  C       -1.2062280     1.1067970     0.0000000
  H       -2.1261180     1.6763830     0.0001840
  C        0.0030670     1.7105540     0.0000260
  H        0.1229620     2.7891690     0.0001530
  N        1.1742530     0.9863660    -0.0000120
  H        2.0766210     1.4468080     0.0000740
  C        1.2261220    -0.4021520    -0.0000880
  O        2.2745420    -1.0338450     0.0001200
units angstrom
no_reorient  #important for SAPT in psi4, default
symmetry c1  #important for SAPT in psi4, default
}

set PROPERTIES_ORIGIN ["COM"]
properties('MP2/aug-cc-pvtz', properties = ['dipole'])
--------------------------------------------------------------------------

    Molecular point group: c1
  Charge       = 0
  Multiplicity = 1
  Basis Set: AUG-CC-PVTZ
    Blend: AUG-CC-PVTZ
  Basis Set: (AUG-CC-PVTZ AUX)
    Blend: AUG-CC-PVTZ-JKFIT

    Orbital Energies [Eh]
    ---------------------

    Doubly Occupied:

       1A    -20.545878     2A    -20.542955     3A    -15.639597
       4A    -15.617700     5A    -11.415634     6A    -11.366412
       7A    -11.336646     8A    -11.250835     9A     -1.469799
      10A     -1.419126    11A     -1.305494    12A     -1.238456
      13A     -1.081290    14A     -0.926474    15A     -0.891449
      16A     -0.799072    17A     -0.765719    18A     -0.707715
      19A     -0.688121    20A     -0.667198    21A     -0.648684
      22A     -0.625552    23A     -0.604997    24A     -0.596032
      25A     -0.518935    26A     -0.481683    27A     -0.450030
      28A     -0.439456    29A     -0.366172

  @DF-RHF Final Energy:  -412.61695483980770

   => Energetics <=

    Nuclear Repulsion Energy =            358.9096365749079496
    One-Electron Energy =               -1274.2389560428318873
    Two-Electron Energy =                 502.7123646281162337
    Total Energy =                       -412.6169548398077040
  Basis Set: (AUG-CC-PVTZ AUX)
    Blend: AUG-CC-PVTZ-RI
    Molecular point group: c1

    Geometry (in Angstrom), charge = 0, multiplicity = 1:

       Center              X                  Y                   Z               Mass
    ------------   -----------------  -----------------  -----------------  -----------------
         N           -0.045507371501    -0.951524279020    -0.000093774509    14.003074004430
         H           -0.058355371501    -1.968441279020     0.000032225491     1.007825032230
         C           -1.304198371501    -0.320981279020    -0.000270774509    12.000000000000
         O           -2.251557271501    -0.932220079020     0.000154525491    15.994914619570
         C           -1.218020371501     1.133654720980     0.000009225491    12.000000000000
         H           -2.137910371501     1.703240720980     0.000193225491     1.007825032230
         C           -0.008725371501     1.737411720980     0.000035225491    12.000000000000
         H            0.111169628499     2.816026720980     0.000162225491     1.007825032230
         N            1.162460628499     1.013223720980    -0.000002774509    14.003074004430
         H            2.064828628499     1.473665720980     0.000083225491     1.007825032230
         C            1.214329628499    -0.375294279020    -0.000078774509    12.000000000000
         O            2.262749628499    -1.006987279020     0.000129225491    15.994914619570

  Basis Set: AUG-CC-PVTZ
    Blend: AUG-CC-PVTZ
  Basis Set: (AUG-CC-PVTZ AUX)
    Blend: AUG-CC-PVTZ-JKFIT
	 Reference Energy          =    -412.6169548398077040 [Eh]
	 Singles Energy            =      -0.0000000000000000 [Eh]
	 Same-Spin Energy          =      -0.4119834338725500 [Eh]
	 Opposite-Spin Energy      =      -1.2219877679158389 [Eh]
	 Correlation Energy        =      -1.6339712017883889 [Eh]
	 Total Energy              =    -414.2509260415960739 [Eh]

	 ================> DF-SCS-MP2 Energies <==================
	-----------------------------------------------------------
	 SCS Same-Spin Scale       =       0.3333333333333333 [-]
	 SCS Opposite-Spin Scale   =       1.2000000000000000 [-]
	 SCS Same-Spin Energy      =      -0.1373278112908500 [Eh]
	 SCS Opposite-Spin Energy  =      -1.4663853214990066 [Eh]
	 SCS Correlation Energy    =      -1.6037131327898566 [Eh]
	 SCS Total Energy          =    -414.2206679725975391 [Eh]
	-----------------------------------------------------------

  Dipole Moment: [D]
     X:     0.5350      Y:     3.8717      Z:    -0.0005     Total:     3.9085

*** Psi4 exiting successfully. Buy a developer a beer!
