                               Psi4 1.3.2 release

  ==> Input File <==

--------------------------------------------------------------------------
#psi4
#
memory 32 gb

molecule  {
0 1
  N       -0.0337150    -0.9783820    -0.0001030
  H       -0.0465630    -1.9952990     0.0000230
  C       -1.3514205    -0.4828622    -0.0002662
  O       -2.3237930    -1.0132930     0.0001830
  C       -1.2062280     1.1067970     0.0000000
  H       -2.1261180     1.6763830     0.0001840
  C        0.0030670     1.7105540     0.0000260
  H        0.1229620     2.7891690     0.0001530
  N        1.1742530     0.9863660    -0.0000120
  H        2.0766210     1.4468080     0.0000740
  C        1.2261220    -0.4021520    -0.0000880
  O        2.2745420    -1.0338450     0.0001200
units angstrom
no_reorient  #important for SAPT in psi4, default
symmetry c1  #important for SAPT in psi4, default
}

set PROPERTIES_ORIGIN ["COM"]
properties('MP2/aug-cc-pvtz', properties = ['dipole'])
--------------------------------------------------------------------------

    Molecular point group: c1
  Charge       = 0
  Multiplicity = 1
  Basis Set: AUG-CC-PVTZ
    Blend: AUG-CC-PVTZ
  Basis Set: (AUG-CC-PVTZ AUX)
    Blend: AUG-CC-PVTZ-JKFIT

    Orbital Energies [Eh]
    ---------------------

    Doubly Occupied:

       1A    -20.568257     2A    -20.545808     3A    -15.633943
       4A    -15.624509     5A    -11.421234     6A    -11.385075
       7A    -11.324097     8A    -11.251852     9A     -1.493235
      10A     -1.421723    11A     -1.302477    12A     -1.245173
      13A     -1.060063    14A     -0.913921    15A     -0.897571
      16A     -0.789839    17A     -0.755007    18A     -0.710224
      19A     -0.696804    20A     -0.668682    21A     -0.647987
      22A     -0.627264    23A     -0.608062    24A     -0.602417
      25A     -0.515506    26A     -0.478082    27A     -0.449840
      28A     -0.444206    29A     -0.358133

  @DF-RHF Final Energy:  -412.59483258040518

   => Energetics <=

    Nuclear Repulsion Energy =            355.3896418362881491
    One-Electron Energy =               -1267.0869691279642666
    Two-Electron Energy =                 499.1024947112709924
    Total Energy =                       -412.5948325804051819
  Basis Set: (AUG-CC-PVTZ AUX)
    Blend: AUG-CC-PVTZ-RI
    Molecular point group: c1

    Geometry (in Angstrom), charge = 0, multiplicity = 1:

       Center              X                  Y                   Z               Mass
    ------------   -----------------  -----------------  -----------------  -----------------
         N           -0.027188651872    -0.929320348394    -0.000100635412    14.003074004430
         H           -0.040036651872    -1.946237348394     0.000025364588     1.007825032230
         C           -1.344894151872    -0.433800548394    -0.000263835412    12.000000000000
         O           -2.317266651872    -0.964231348394     0.000185364588    15.994914619570
         C           -1.199701651872     1.155858651606     0.000002364588    12.000000000000
         H           -2.119591651872     1.725444651606     0.000186364588     1.007825032230
         C            0.009593348128     1.759615651606     0.000028364588    12.000000000000
         H            0.129488348128     2.838230651606     0.000155364588     1.007825032230
         N            1.180779348128     1.035427651606    -0.000009635412    14.003074004430
         H            2.083147348128     1.495869651606     0.000076364588     1.007825032230
         C            1.232648348128    -0.353090348394    -0.000085635412    12.000000000000
         O            2.281068348128    -0.984783348394     0.000122364588    15.994914619570

  Basis Set: AUG-CC-PVTZ
    Blend: AUG-CC-PVTZ
  Basis Set: (AUG-CC-PVTZ AUX)
    Blend: AUG-CC-PVTZ-JKFIT
	 Reference Energy          =    -412.5948325804051819 [Eh]
	 Singles Energy            =      -0.0000000000000000 [Eh]
	 Same-Spin Energy          =      -0.4118192875088157 [Eh]
	 Opposite-Spin Energy      =      -1.2236124551798906 [Eh]
	 Correlation Energy        =      -1.6354317426887062 [Eh]
	 Total Energy              =    -414.2302643230938770 [Eh]

	 ================> DF-SCS-MP2 Energies <==================
	-----------------------------------------------------------
	 SCS Same-Spin Scale       =       0.3333333333333333 [-]
	 SCS Opposite-Spin Scale   =       1.2000000000000000 [-]
	 SCS Same-Spin Energy      =      -0.1372730958362719 [Eh]
	 SCS Opposite-Spin Energy  =      -1.4683349462158686 [Eh]
	 SCS Correlation Energy    =      -1.6056080420521406 [Eh]
	 SCS Total Energy          =    -414.2004406224573358 [Eh]
	-----------------------------------------------------------

  Dipole Moment: [D]
     X:     0.3535      Y:     3.2742      Z:    -0.0005     Total:     3.2932

*** Psi4 exiting successfully. Buy a developer a beer!
