                               Psi4 1.3.2 release

  ==> Input File <==

--------------------------------------------------------------------------
#psi4
#
memory 32 gb

molecule  {
0 1
  N       -0.0337150    -0.9783820    -0.0001030
  H       -0.0465630    -1.9952990     0.0000230
  C       -1.2924060    -0.3478390    -0.0002800
  O       -2.3237930    -1.0132930     0.0001830
  C       -1.2062280     1.1067970     0.0000000
  H       -2.1261180     1.6763830     0.0001840
  C        0.0564368     1.7904877     0.0000305
  H        0.1229620     2.7891690     0.0001530
  N        1.1742530     0.9863660    -0.0000120
  H        2.0766210     1.4468080     0.0000740
  C        1.2261220    -0.4021520    -0.0000880
  O        2.2745420    -1.0338450     0.0001200
units angstrom
no_reorient  #important for SAPT in psi4, default
symmetry c1  #important for SAPT in psi4, default
}

set PROPERTIES_ORIGIN ["COM"]
properties('MP2/aug-cc-pvtz', properties = ['dipole'])
--------------------------------------------------------------------------

    Molecular point group: c1
  Charge       = 0
  Multiplicity = 1
  Basis Set: AUG-CC-PVTZ
    Blend: AUG-CC-PVTZ
  Basis Set: (AUG-CC-PVTZ AUX)
    Blend: AUG-CC-PVTZ-JKFIT

    Orbital Energies [Eh]
    ---------------------

    Doubly Occupied:

       1A    -20.551690     2A    -20.541714     3A    -15.651996
       4A    -15.631133     5A    -11.426831     6A    -11.384499
       7A    -11.353418     8A    -11.267136     9A     -1.432730
      10A     -1.392647    11A     -1.311029    12A     -1.245184
      13A     -1.071961    14A     -0.945286    15A     -0.900097
      16A     -0.799681    17A     -0.767774    18A     -0.734687
      19A     -0.674008    20A     -0.666024    21A     -0.651558
      22A     -0.612493    23A     -0.595032    24A     -0.568790
      25A     -0.522734    26A     -0.488356    27A     -0.449595
      28A     -0.437212    29A     -0.356844

  @DF-RHF Final Energy:  -412.60252045623491

   => Energetics <=

    Nuclear Repulsion Energy =            353.8460598886100570
    One-Electron Energy =               -1264.0328855024454242
    Two-Electron Energy =                 497.5843051576004541
    Total Energy =                       -412.6025204562349131
  Basis Set: (AUG-CC-PVTZ AUX)
    Blend: AUG-CC-PVTZ-RI
    Molecular point group: c1

    Geometry (in Angstrom), charge = 0, multiplicity = 1:

       Center              X                  Y                   Z               Mass
    ------------   -----------------  -----------------  -----------------  -----------------
         N           -0.039226894981    -0.952345837011    -0.000099639226    14.003074004430
         H           -0.052074894981    -1.969262837011     0.000026360774     1.007825032230
         C           -1.297917894981    -0.321802837011    -0.000276639226    12.000000000000
         O           -2.329304894981    -0.987256837011     0.000186360774    15.994914619570
         C           -1.211739894981     1.132833162989     0.000003360774    12.000000000000
         H           -2.131629894981     1.702419162989     0.000187360774     1.007825032230
         C            0.050924905019     1.816523862989     0.000033860774    12.000000000000
         H            0.117450105019     2.815205162989     0.000156360774     1.007825032230
         N            1.168741105019     1.012402162989    -0.000008639226    14.003074004430
         H            2.071109105019     1.472844162989     0.000077360774     1.007825032230
         C            1.220610105019    -0.376115837011    -0.000084639226    12.000000000000
         O            2.269030105019    -1.007808837011     0.000123360774    15.994914619570

  Basis Set: AUG-CC-PVTZ
    Blend: AUG-CC-PVTZ
  Basis Set: (AUG-CC-PVTZ AUX)
    Blend: AUG-CC-PVTZ-JKFIT
	 Reference Energy          =    -412.6025204562349131 [Eh]
	 Singles Energy            =      -0.0000000000000000 [Eh]
	 Same-Spin Energy          =      -0.4159812397767725 [Eh]
	 Opposite-Spin Energy      =      -1.2312328361886933 [Eh]
	 Correlation Energy        =      -1.6472140759654659 [Eh]
	 Total Energy              =    -414.2497345322003639 [Eh]

	 ================> DF-SCS-MP2 Energies <==================
	-----------------------------------------------------------
	 SCS Same-Spin Scale       =       0.3333333333333333 [-]
	 SCS Opposite-Spin Scale   =       1.2000000000000000 [-]
	 SCS Same-Spin Energy      =      -0.1386604132589242 [Eh]
	 SCS Opposite-Spin Energy  =      -1.4774794034264318 [Eh]
	 SCS Correlation Energy    =      -1.6161398166853560 [Eh]
	 SCS Total Energy          =    -414.2186602729202605 [Eh]
	-----------------------------------------------------------

  Dipole Moment: [D]
     X:     1.2959      Y:     4.2370      Z:    -0.0005     Total:     4.4308

*** Psi4 exiting successfully. Buy a developer a beer!
