                               Psi4 1.4a3.dev225

  ==> Input File <==

--------------------------------------------------------------------------
#psi4
#
memory 32 gb

molecule  {
0 1
  N        0.0336940    -0.9783750    -0.0000010
  H        0.0471450    -1.9953050    -0.0000010
  C        1.2925930    -0.3474800     0.0000000
  O        2.3237090    -1.0134020     0.0000010
  C        1.2062870     1.1068390     0.0000000
  H        2.1256600     1.6771670     0.0000010
  C       -0.0033680     1.7103630     0.0000000
  H       -0.1205303     2.7691763     0.0000000
  N       -1.1742180     0.9864080    -0.0000010
  H       -2.0766200     1.4467250     0.0000010
  C       -1.2259650    -0.4025210     0.0000010
  O       -2.2745920    -1.0337330     0.0000010
units angstrom
no_reorient  #important for SAPT in psi4, default
symmetry c1  #important for SAPT in psi4, default
}

set PROPERTIES_ORIGIN ["COM"]
properties('MP2/aug-cc-pvtz', properties = ['dipole'])
--------------------------------------------------------------------------

    Molecular point group: c1
  Charge       = 0
  Multiplicity = 1
  Basis Set: AUG-CC-PVTZ
    Blend: AUG-CC-PVTZ
  Basis Set: (AUG-CC-PVTZ AUX)
    Blend: AUG-CC-PVTZ-JKFIT

    Orbital Energies [Eh]
    ---------------------

    Doubly Occupied:

       1A    -20.549505     2A    -20.544121     3A    -15.647168
       4A    -15.630752     5A    -11.423076     6A    -11.385254
       7A    -11.342491     8A    -11.259672     9A     -1.431718
      10A     -1.394064    11A     -1.310787    12A     -1.243715
      13A     -1.088832    14A     -0.933917    15A     -0.901115
      16A     -0.804920    17A     -0.763343    18A     -0.716796
      19A     -0.677142    20A     -0.666608    21A     -0.652900
      22A     -0.614999    23A     -0.601486    24A     -0.568872
      25A     -0.525042    26A     -0.484460    27A     -0.450732
      28A     -0.437388    29A     -0.370433

  @DF-RHF Final Energy:  -412.62113903027625

   => Energetics <=

    Nuclear Repulsion Energy =            355.4795150637795587
    One-Electron Energy =               -1267.3586924587066278
    Two-Electron Energy =                 499.2580383646508153
    Total Energy =                       -412.6211390302762538
  Basis Set: (AUG-CC-PVTZ AUX)
    Blend: AUG-CC-PVTZ-RI
    Molecular point group: c1

    Geometry (in Angstrom), charge = 0, multiplicity = 1:

       Center              X                  Y                   Z               Mass
    ------------   -----------------  -----------------  -----------------  -----------------
         N            0.033472549980    -0.943592512073    -0.000001151673    14.003074004430
         H            0.046923549980    -1.960522512073    -0.000001151673     1.007825032230
         C            1.292371549980    -0.312697512073    -0.000000151673    12.000000000000
         O            2.323487549980    -0.978619512073     0.000000848327    15.994914619570
         C            1.206065549980     1.141621487927    -0.000000151673    12.000000000000
         H            2.125438549980     1.711949487927     0.000000848327     1.007825032230
         C           -0.003589450020     1.745145487927    -0.000000151673    12.000000000000
         H           -0.120751750020     2.803958787927    -0.000000151673     1.007825032230
         N           -1.174439450020     1.021190487927    -0.000001151673    14.003074004430
         H           -2.076841450020     1.481507487927     0.000000848327     1.007825032230
         C           -1.226186450020    -0.367738512073     0.000000848327    12.000000000000
         O           -2.274813450020    -0.998950512073     0.000000848327    15.994914619570

  Basis Set: AUG-CC-PVTZ
    Blend: AUG-CC-PVTZ
  Basis Set: (AUG-CC-PVTZ AUX)
    Blend: AUG-CC-PVTZ-JKFIT
	 Reference Energy          =    -412.6211390302762538 [Eh]
	 Singles Energy            =      -0.0000000000000000 [Eh]
	 Same-Spin Energy          =      -0.4146825577380948 [Eh]
	 Opposite-Spin Energy      =      -1.2282134558377957 [Eh]
	 Correlation Energy        =      -1.6428960135758905 [Eh]
	 Total Energy              =    -414.2640350438521182 [Eh]

	 ================> DF-SCS-MP2 Energies <==================
	-----------------------------------------------------------
	 SCS Same-Spin Scale       =       0.3333333333333333 [-]
	 SCS Opposite-Spin Scale   =       1.2000000000000000 [-]
	 SCS Same-Spin Energy      =      -0.1382275192460316 [Eh]
	 SCS Opposite-Spin Energy  =      -1.4738561470053548 [Eh]
	 SCS Correlation Energy    =      -1.6120836662513864 [Eh]
	 SCS Total Energy          =    -414.2332226965276618 [Eh]
	-----------------------------------------------------------

  Dipole Moment: [D]
     X:    -1.1705      Y:     4.1919      Z:     0.0000     Total:     4.3522

*** Psi4 exiting successfully. Buy a developer a beer!
