                               Psi4 1.3.2 release

  ==> Input File <==

--------------------------------------------------------------------------
#psi4
#
memory 32 gb

molecule  {
0 1
  N       -0.0337150    -0.9783820    -0.0001030
  H       -0.0465630    -1.9952990     0.0000230
  C       -1.2924060    -0.3478390    -0.0002800
  O       -2.3237930    -1.0132930     0.0001830
  C       -1.2265621     1.1493686     0.0000021
  H       -2.1261180     1.6763830     0.0001840
  C        0.0030670     1.7105540     0.0000260
  H        0.1229620     2.7891690     0.0001530
  N        1.1742530     0.9863660    -0.0000120
  H        2.0766210     1.4468080     0.0000740
  C        1.2261220    -0.4021520    -0.0000880
  O        2.2745420    -1.0338450     0.0001200
units angstrom
no_reorient  #important for SAPT in psi4, default
symmetry c1  #important for SAPT in psi4, default
}

set PROPERTIES_ORIGIN ["COM"]
properties('MP2/aug-cc-pvtz', properties = ['dipole'])
--------------------------------------------------------------------------

    Molecular point group: c1
  Charge       = 0
  Multiplicity = 1
  Basis Set: AUG-CC-PVTZ
    Blend: AUG-CC-PVTZ
  Basis Set: (AUG-CC-PVTZ AUX)
    Blend: AUG-CC-PVTZ-JKFIT

    Orbital Energies [Eh]
    ---------------------

    Doubly Occupied:

       1A    -20.550158     2A    -20.545718     3A    -15.647117
       4A    -15.631947     5A    -11.423471     6A    -11.388329
       7A    -11.342108     8A    -11.260549     9A     -1.431796
      10A     -1.394504    11A     -1.309731    12A     -1.243832
      13A     -1.085845    14A     -0.927653    15A     -0.899819
      16A     -0.809292    17A     -0.759386    18A     -0.711616
      19A     -0.676854    20A     -0.665982    21A     -0.656113
      22A     -0.621640    23A     -0.601435    24A     -0.568211
      25A     -0.524683    26A     -0.483341    27A     -0.449418
      28A     -0.438038    29A     -0.370668

  @DF-RHF Final Energy:  -412.61921605281719

   => Energetics <=

    Nuclear Repulsion Energy =            354.5732863526644678
    One-Electron Energy =               -1265.5465017976327999
    Two-Electron Energy =                 498.3539993921511382
    Total Energy =                       -412.6192160528171939
  Basis Set: (AUG-CC-PVTZ AUX)
    Blend: AUG-CC-PVTZ-RI
    Molecular point group: c1

    Geometry (in Angstrom), charge = 0, multiplicity = 1:

       Center              X                  Y                   Z               Mass
    ------------   -----------------  -----------------  -----------------  -----------------
         N           -0.031331971346    -0.948343729573    -0.000099382146    14.003074004430
         H           -0.044179971346    -1.965260729573     0.000026617854     1.007825032230
         C           -1.290022971346    -0.317800729573    -0.000276382146    12.000000000000
         O           -2.321409971346    -0.983254729573     0.000186617854    15.994914619570
         C           -1.224179071346     1.179406870427     0.000005717854    12.000000000000
         H           -2.123734971346     1.706421270427     0.000187617854     1.007825032230
         C            0.005450028654     1.740592270427     0.000029617854    12.000000000000
         H            0.125345028654     2.819207270427     0.000156617854     1.007825032230
         N            1.176636028654     1.016404270427    -0.000008382146    14.003074004430
         H            2.079004028654     1.476846270427     0.000077617854     1.007825032230
         C            1.228505028654    -0.372113729573    -0.000084382146    12.000000000000
         O            2.276925028654    -1.003806729573     0.000123617854    15.994914619570

  Basis Set: AUG-CC-PVTZ
    Blend: AUG-CC-PVTZ
  Basis Set: (AUG-CC-PVTZ AUX)
    Blend: AUG-CC-PVTZ-JKFIT
	 Reference Energy          =    -412.6192160528171939 [Eh]
	 Singles Energy            =      -0.0000000000000000 [Eh]
	 Same-Spin Energy          =      -0.4141590817949966 [Eh]
	 Opposite-Spin Energy      =      -1.2279192345230374 [Eh]
	 Correlation Energy        =      -1.6420783163180341 [Eh]
	 Total Energy              =    -414.2612943691352143 [Eh]

	 ================> DF-SCS-MP2 Energies <==================
	-----------------------------------------------------------
	 SCS Same-Spin Scale       =       0.3333333333333333 [-]
	 SCS Opposite-Spin Scale   =       1.2000000000000000 [-]
	 SCS Same-Spin Energy      =      -0.1380530272649989 [Eh]
	 SCS Opposite-Spin Energy  =      -1.4735030814276449 [Eh]
	 SCS Correlation Energy    =      -1.6115561086926438 [Eh]
	 SCS Total Energy          =    -414.2307721615098330 [Eh]
	-----------------------------------------------------------

  Dipole Moment: [D]
     X:     1.1252      Y:     4.0922      Z:    -0.0005     Total:     4.2441

*** Psi4 exiting successfully. Buy a developer a beer!
