                               Psi4 1.3.2 release

  ==> Input File <==

--------------------------------------------------------------------------
#psi4
#
memory 32 gb

molecule  {
0 1
  N       -0.0337150    -0.9783820    -0.0001030
  H       -0.0452997    -1.8953070     0.0000106
  C       -1.2924060    -0.3478390    -0.0002800
  O       -2.3237930    -1.0132930     0.0001830
  C       -1.2062280     1.1067970     0.0000000
  H       -2.1261180     1.6763830     0.0001840
  C        0.0030670     1.7105540     0.0000260
  H        0.1229620     2.7891690     0.0001530
  N        1.1742530     0.9863660    -0.0000120
  H        2.0766210     1.4468080     0.0000740
  C        1.2261220    -0.4021520    -0.0000880
  O        2.2745420    -1.0338450     0.0001200
units angstrom
no_reorient  #important for SAPT in psi4, default
symmetry c1  #important for SAPT in psi4, default
}

set PROPERTIES_ORIGIN ["COM"]
properties('MP2/aug-cc-pvtz', properties = ['dipole'])
--------------------------------------------------------------------------

    Molecular point group: c1
  Charge       = 0
  Multiplicity = 1
  Basis Set: AUG-CC-PVTZ
    Blend: AUG-CC-PVTZ
  Basis Set: (AUG-CC-PVTZ AUX)
    Blend: AUG-CC-PVTZ-JKFIT

    Orbital Energies [Eh]
    ---------------------

    Doubly Occupied:

       1A    -20.550832     2A    -20.545324     3A    -15.647807
       4A    -15.622484     5A    -11.424187     6A    -11.386174
       7A    -11.345263     8A    -11.260153     9A     -1.434519
      10A     -1.395673    11A     -1.312107    12A     -1.256101
      13A     -1.089630    14A     -0.941279    15A     -0.902756
      16A     -0.816359    17A     -0.764771    18A     -0.726210
      19A     -0.680088    20A     -0.668031    21A     -0.653417
      22A     -0.616168    23A     -0.604716    24A     -0.570099
      25A     -0.526062    26A     -0.485098    27A     -0.451794
      28A     -0.439798    29A     -0.371124

  @DF-RHF Final Energy:  -412.61468131414097

   => Energetics <=

    Nuclear Repulsion Energy =            356.0354936629002509
    One-Electron Energy =               -1268.3243055497280238
    Two-Electron Energy =                 499.6741305726867495
    Total Energy =                       -412.6146813141409666
  Basis Set: (AUG-CC-PVTZ AUX)
    Blend: AUG-CC-PVTZ-RI
    Molecular point group: c1

    Geometry (in Angstrom), charge = 0, multiplicity = 1:

       Center              X                  Y                   Z               Mass
    ------------   -----------------  -----------------  -----------------  -----------------
         N           -0.033521459398    -0.944683150034    -0.000099045647    14.003074004430
         H           -0.045106159398    -1.861608150034     0.000014554353     1.007825032230
         C           -1.292212459398    -0.314140150034    -0.000276045647    12.000000000000
         O           -2.323599459398    -0.979594150034     0.000186954353    15.994914619570
         C           -1.206034459398     1.140495849966     0.000003954353    12.000000000000
         H           -2.125924459398     1.710081849966     0.000187954353     1.007825032230
         C            0.003260540602     1.744252849966     0.000029954353    12.000000000000
         H            0.123155540602     2.822867849966     0.000156954353     1.007825032230
         N            1.174446540602     1.020064849966    -0.000008045647    14.003074004430
         H            2.076814540602     1.480506849966     0.000077954353     1.007825032230
         C            1.226315540602    -0.368453150034    -0.000084045647    12.000000000000
         O            2.274735540602    -1.000146150034     0.000123954353    15.994914619570

  Basis Set: AUG-CC-PVTZ
    Blend: AUG-CC-PVTZ
  Basis Set: (AUG-CC-PVTZ AUX)
    Blend: AUG-CC-PVTZ-JKFIT
	 Reference Energy          =    -412.6146813141409666 [Eh]
	 Singles Energy            =      -0.0000000000000000 [Eh]
	 Same-Spin Energy          =      -0.4139308353152763 [Eh]
	 Opposite-Spin Energy      =      -1.2268676171797048 [Eh]
	 Correlation Energy        =      -1.6407984524949812 [Eh]
	 Total Energy              =    -414.2554797666359718 [Eh]

	 ================> DF-SCS-MP2 Energies <==================
	-----------------------------------------------------------
	 SCS Same-Spin Scale       =       0.3333333333333333 [-]
	 SCS Opposite-Spin Scale   =       1.2000000000000000 [-]
	 SCS Same-Spin Energy      =      -0.1379769451050921 [Eh]
	 SCS Opposite-Spin Energy  =      -1.4722411406156457 [Eh]
	 SCS Correlation Energy    =      -1.6102180857207378 [Eh]
	 SCS Total Energy          =    -414.2248993998617266 [Eh]
	-----------------------------------------------------------

  Dipole Moment: [D]
     X:     1.1765      Y:     4.3180      Z:    -0.0005     Total:     4.4754

*** Psi4 exiting successfully. Buy a developer a beer!
