                               Psi4 1.4a3.dev225

  ==> Input File <==

--------------------------------------------------------------------------
#psi4
#
memory 32 gb

molecule  {
0 1
  N        0.0336940    -0.9783750    -0.0000010
  H        0.0474095    -2.0153033    -0.0000010
  C        1.2925930    -0.3474800     0.0000000
  O        2.3237090    -1.0134020     0.0000010
  C        1.2062870     1.1068390     0.0000000
  H        2.1256600     1.6771670     0.0000010
  C       -0.0033680     1.7103630     0.0000000
  H       -0.1227300     2.7890550     0.0000000
  N       -1.1742180     0.9864080    -0.0000010
  H       -2.0766200     1.4467250     0.0000010
  C       -1.2259650    -0.4025210     0.0000010
  O       -2.2745920    -1.0337330     0.0000010
units angstrom
no_reorient  #important for SAPT in psi4, default
symmetry c1  #important for SAPT in psi4, default
}

set PROPERTIES_ORIGIN ["COM"]
properties('MP2/aug-cc-pvtz', properties = ['dipole'])
--------------------------------------------------------------------------

    Molecular point group: c1
  Charge       = 0
  Multiplicity = 1
  Basis Set: AUG-CC-PVTZ
    Blend: AUG-CC-PVTZ
  Basis Set: (AUG-CC-PVTZ AUX)
    Blend: AUG-CC-PVTZ-JKFIT

    Orbital Energies [Eh]
    ---------------------

    Doubly Occupied:

       1A    -20.549306     2A    -20.543909     3A    -15.647191
       4A    -15.632229     5A    -11.422946     6A    -11.385151
       7A    -11.344496     8A    -11.259630     9A     -1.431288
      10A     -1.393793    11A     -1.310508    12A     -1.241592
      13A     -1.088186    14A     -0.930818    15A     -0.900729
      16A     -0.802998    17A     -0.762789    18A     -0.710840
      19A     -0.676088    20A     -0.666394    21A     -0.652316
      22A     -0.614359    23A     -0.599845    24A     -0.568680
      25A     -0.524869    26A     -0.484199    27A     -0.450514
      28A     -0.436962    29A     -0.370343

  @DF-RHF Final Energy:  -412.61993498009974

   => Energetics <=

    Nuclear Repulsion Energy =            355.2514282225258739
    One-Electron Energy =               -1266.9367929665575048
    Two-Electron Energy =                 499.0654297639318884
    Total Energy =                       -412.6199349800997425
  Basis Set: (AUG-CC-PVTZ AUX)
    Blend: AUG-CC-PVTZ-RI
    Molecular point group: c1

    Geometry (in Angstrom), charge = 0, multiplicity = 1:

       Center              X                  Y                   Z               Mass
    ------------   -----------------  -----------------  -----------------  -----------------
         N            0.033489959517    -0.943591436122    -0.000001151673    14.003074004430
         H            0.047205459517    -1.980519736122    -0.000001151673     1.007825032230
         C            1.292388959517    -0.312696436122    -0.000000151673    12.000000000000
         O            2.323504959517    -0.978618436122     0.000000848327    15.994914619570
         C            1.206082959517     1.141622563878    -0.000000151673    12.000000000000
         H            2.125455959517     1.711950563878     0.000000848327     1.007825032230
         C           -0.003572040483     1.745146563878    -0.000000151673    12.000000000000
         H           -0.122934040483     2.823838563878    -0.000000151673     1.007825032230
         N           -1.174422040483     1.021191563878    -0.000001151673    14.003074004430
         H           -2.076824040483     1.481508563878     0.000000848327     1.007825032230
         C           -1.226169040483    -0.367737436122     0.000000848327    12.000000000000
         O           -2.274796040483    -0.998949436122     0.000000848327    15.994914619570

  Basis Set: AUG-CC-PVTZ
    Blend: AUG-CC-PVTZ
  Basis Set: (AUG-CC-PVTZ AUX)
    Blend: AUG-CC-PVTZ-JKFIT
	 Reference Energy          =    -412.6199349800997425 [Eh]
	 Singles Energy            =      -0.0000000000000000 [Eh]
	 Same-Spin Energy          =      -0.4148998171876336 [Eh]
	 Opposite-Spin Energy      =      -1.2286956528482886 [Eh]
	 Correlation Energy        =      -1.6435954700359221 [Eh]
	 Total Energy              =    -414.2635304501356472 [Eh]

	 ================> DF-SCS-MP2 Energies <==================
	-----------------------------------------------------------
	 SCS Same-Spin Scale       =       0.3333333333333333 [-]
	 SCS Opposite-Spin Scale   =       1.2000000000000000 [-]
	 SCS Same-Spin Energy      =      -0.1382999390625445 [Eh]
	 SCS Opposite-Spin Energy  =      -1.4744347834179463 [Eh]
	 SCS Correlation Energy    =      -1.6127347224804909 [Eh]
	 SCS Total Energy          =    -414.2326697025802105 [Eh]
	-----------------------------------------------------------

  Dipole Moment: [D]
     X:    -1.1706      Y:     4.1662      Z:     0.0000     Total:     4.3275

*** Psi4 exiting successfully. Buy a developer a beer!
