                               Psi4 1.4a3.dev225

  ==> Input File <==

--------------------------------------------------------------------------
#psi4
#
memory 32 gb

molecule  {
0 1
  N        0.0336940    -0.9783750    -0.0000010
  H        0.0468805    -1.9753067    -0.0000010
  C        1.2925930    -0.3474800     0.0000000
  O        2.3237090    -1.0134020     0.0000010
  C        1.2062870     1.1068390     0.0000000
  H        2.1256600     1.6771670     0.0000010
  C       -0.0033680     1.7103630     0.0000000
  H       -0.1227300     2.7890550     0.0000000
  N       -1.1742180     0.9864080    -0.0000010
  H       -2.0766200     1.4467250     0.0000010
  C       -1.2259650    -0.4025210     0.0000010
  O       -2.2745920    -1.0337330     0.0000010
units angstrom
no_reorient  #important for SAPT in psi4, default
symmetry c1  #important for SAPT in psi4, default
}

set PROPERTIES_ORIGIN ["COM"]
properties('MP2/aug-cc-pvtz', properties = ['dipole'])
--------------------------------------------------------------------------

    Molecular point group: c1
  Charge       = 0
  Multiplicity = 1
  Basis Set: AUG-CC-PVTZ
    Blend: AUG-CC-PVTZ
  Basis Set: (AUG-CC-PVTZ AUX)
    Blend: AUG-CC-PVTZ-JKFIT

    Orbital Energies [Eh]
    ---------------------

    Doubly Occupied:

       1A    -20.549827     2A    -20.544382     3A    -15.647397
       4A    -15.629258     5A    -11.423362     6A    -11.385493
       7A    -11.344761     8A    -11.259779     9A     -1.432274
      10A     -1.394401    11A     -1.310999    12A     -1.245904
      13A     -1.088634    14A     -0.933836    15A     -0.901403
      16A     -0.806988    17A     -0.763440    18A     -0.716133
      19A     -0.677722    20A     -0.666937    21A     -0.652686
      22A     -0.614935    23A     -0.601747    24A     -0.569146
      25A     -0.525294    26A     -0.484524    27A     -0.450949
      28A     -0.437892    29A     -0.370579

  @DF-RHF Final Energy:  -412.62142197590811

   => Energetics <=

    Nuclear Repulsion Energy =            355.4998939761067618
    One-Electron Energy =               -1267.3812699125512609
    Two-Electron Energy =                 499.2599539605364498
    Total Energy =                       -412.6214219759081061
  Basis Set: (AUG-CC-PVTZ AUX)
    Blend: AUG-CC-PVTZ-RI
    Molecular point group: c1

    Geometry (in Angstrom), charge = 0, multiplicity = 1:

       Center              X                  Y                   Z               Mass
    ------------   -----------------  -----------------  -----------------  -----------------
         N            0.033494718532    -0.943951255406    -0.000001151673    14.003074004430
         H            0.046681218532    -1.940882955406    -0.000001151673     1.007825032230
         C            1.292393718532    -0.313056255406    -0.000000151673    12.000000000000
         O            2.323509718532    -0.978978255406     0.000000848327    15.994914619570
         C            1.206087718532     1.141262744594    -0.000000151673    12.000000000000
         H            2.125460718532     1.711590744594     0.000000848327     1.007825032230
         C           -0.003567281468     1.744786744594    -0.000000151673    12.000000000000
         H           -0.122929281468     2.823478744594    -0.000000151673     1.007825032230
         N           -1.174417281468     1.020831744594    -0.000001151673    14.003074004430
         H           -2.076819281468     1.481148744594     0.000000848327     1.007825032230
         C           -1.226164281468    -0.368097255406     0.000000848327    12.000000000000
         O           -2.274791281468    -0.999309255406     0.000000848327    15.994914619570

  Basis Set: AUG-CC-PVTZ
    Blend: AUG-CC-PVTZ
  Basis Set: (AUG-CC-PVTZ AUX)
    Blend: AUG-CC-PVTZ-JKFIT
	 Reference Energy          =    -412.6214219759081061 [Eh]
	 Singles Energy            =      -0.0000000000000000 [Eh]
	 Same-Spin Energy          =      -0.4145626713166107 [Eh]
	 Opposite-Spin Energy      =      -1.2280148496852781 [Eh]
	 Correlation Energy        =      -1.6425775210018889 [Eh]
	 Total Energy              =    -414.2639994969100030 [Eh]

	 ================> DF-SCS-MP2 Energies <==================
	-----------------------------------------------------------
	 SCS Same-Spin Scale       =       0.3333333333333333 [-]
	 SCS Opposite-Spin Scale   =       1.2000000000000000 [-]
	 SCS Same-Spin Energy      =      -0.1381875571055369 [Eh]
	 SCS Opposite-Spin Energy  =      -1.4736178196223337 [Eh]
	 SCS Correlation Energy    =      -1.6118053767278706 [Eh]
	 SCS Total Energy          =    -414.2332273526359927 [Eh]
	-----------------------------------------------------------

  Dipole Moment: [D]
     X:    -1.1728      Y:     4.2172      Z:     0.0000     Total:     4.3773

*** Psi4 exiting successfully. Buy a developer a beer!
