                               Psi4 1.3.2 release

  ==> Input File <==

--------------------------------------------------------------------------
#psi4
#
memory 32 gb

molecule  {
0 1
  N       -0.0337150    -0.9783820    -0.0001030
  H       -0.0465630    -1.9952990     0.0000230
  C       -1.2924060    -0.3478390    -0.0002800
  O       -2.3237930    -1.0132930     0.0001830
  C       -1.2062280     1.1067970     0.0000000
  H       -2.1261180     1.6763830     0.0001840
  C       -0.0214933     1.6692390     0.0000237
  H        0.1229620     2.7891690     0.0001530
  N        1.1742530     0.9863660    -0.0000120
  H        2.0766210     1.4468080     0.0000740
  C        1.2261220    -0.4021520    -0.0000880
  O        2.2745420    -1.0338450     0.0001200
units angstrom
no_reorient  #important for SAPT in psi4, default
symmetry c1  #important for SAPT in psi4, default
}

set PROPERTIES_ORIGIN ["COM"]
properties('MP2/aug-cc-pvtz', properties = ['dipole'])
--------------------------------------------------------------------------

    Molecular point group: c1
  Charge       = 0
  Multiplicity = 1
  Basis Set: AUG-CC-PVTZ
    Blend: AUG-CC-PVTZ
  Basis Set: (AUG-CC-PVTZ AUX)
    Blend: AUG-CC-PVTZ-JKFIT

    Orbital Energies [Eh]
    ---------------------

    Doubly Occupied:

       1A    -20.548688     2A    -20.545338     3A    -15.645659
       4A    -15.630761     5A    -11.421561     6A    -11.385736
       7A    -11.340594     8A    -11.255981     9A     -1.431551
      10A     -1.394845    11A     -1.311036    12A     -1.243071
      13A     -1.098421    14A     -0.925969    15A     -0.901779
      16A     -0.808158    17A     -0.764531    18A     -0.702485
      19A     -0.678122    20A     -0.667432    21A     -0.653827
      22A     -0.619364    23A     -0.594929    24A     -0.569174
      25A     -0.526873    26A     -0.481940    27A     -0.451148
      28A     -0.437639    29A     -0.377554

  @DF-RHF Final Energy:  -412.61913492203405

   => Energetics <=

    Nuclear Repulsion Energy =            356.1913326246162228
    One-Electron Energy =               -1268.7925991807876471
    Two-Electron Energy =                 499.9821316341373176
    Total Energy =                       -412.6191349220340499
  Basis Set: (AUG-CC-PVTZ AUX)
    Blend: AUG-CC-PVTZ-RI
    Molecular point group: c1

    Geometry (in Angstrom), charge = 0, multiplicity = 1:

       Center              X                  Y                   Z               Mass
    ------------   -----------------  -----------------  -----------------  -----------------
         N           -0.030879274456    -0.939358068013    -0.000098910832    14.003074004430
         H           -0.043727274456    -1.956275068013     0.000027089168     1.007825032230
         C           -1.289570274456    -0.308815068013    -0.000275910832    12.000000000000
         O           -2.320957274456    -0.974269068013     0.000187089168    15.994914619570
         C           -1.203392274456     1.145820931987     0.000004089168    12.000000000000
         H           -2.123282274456     1.715406931987     0.000188089168     1.007825032230
         C           -0.018657574456     1.708262931987     0.000027789168    12.000000000000
         H            0.125797725544     2.828192931987     0.000157089168     1.007825032230
         N            1.177088725544     1.025389931987    -0.000007910832    14.003074004430
         H            2.079456725544     1.485831931987     0.000078089168     1.007825032230
         C            1.228957725544    -0.363128068013    -0.000083910832    12.000000000000
         O            2.277377725544    -0.994821068013     0.000124089168    15.994914619570

  Basis Set: AUG-CC-PVTZ
    Blend: AUG-CC-PVTZ
  Basis Set: (AUG-CC-PVTZ AUX)
    Blend: AUG-CC-PVTZ-JKFIT
	 Reference Energy          =    -412.6191349220340499 [Eh]
	 Singles Energy            =      -0.0000000000000000 [Eh]
	 Same-Spin Energy          =      -0.4143729793713281 [Eh]
	 Opposite-Spin Energy      =      -1.2275624671360734 [Eh]
	 Correlation Energy        =      -1.6419354465074014 [Eh]
	 Total Energy              =    -414.2610703685414251 [Eh]

	 ================> DF-SCS-MP2 Energies <==================
	-----------------------------------------------------------
	 SCS Same-Spin Scale       =       0.3333333333333333 [-]
	 SCS Opposite-Spin Scale   =       1.2000000000000000 [-]
	 SCS Same-Spin Energy      =      -0.1381243264571094 [Eh]
	 SCS Opposite-Spin Energy  =      -1.4730749605632880 [Eh]
	 SCS Correlation Energy    =      -1.6111992870203973 [Eh]
	 SCS Total Energy          =    -414.2303342090544334 [Eh]
	-----------------------------------------------------------

  Dipole Moment: [D]
     X:     1.1013      Y:     4.1445      Z:    -0.0005     Total:     4.2883

*** Psi4 exiting successfully. Buy a developer a beer!
