                               Psi4 1.4a3.dev225

  ==> Input File <==

--------------------------------------------------------------------------
#psi4
#
memory 32 gb

molecule  {
0 1
  N        0.0336940    -0.9783750    -0.0000010
  H        0.0471450    -1.9953050    -0.0000010
  C        1.2925930    -0.3474800     0.0000000
  O        2.3237090    -1.0134020     0.0000010
  C        1.2062870     1.1068390     0.0000000
  H        2.1681486     1.7035246     0.0000010
  C       -0.0033680     1.7103630     0.0000000
  H       -0.1227300     2.7890550     0.0000000
  N       -1.1742180     0.9864080    -0.0000010
  H       -2.0766200     1.4467250     0.0000010
  C       -1.2259650    -0.4025210     0.0000010
  O       -2.2745920    -1.0337330     0.0000010
units angstrom
no_reorient  #important for SAPT in psi4, default
symmetry c1  #important for SAPT in psi4, default
}

set PROPERTIES_ORIGIN ["COM"]
properties('MP2/aug-cc-pvtz', properties = ['dipole'])
--------------------------------------------------------------------------

    Molecular point group: c1
  Charge       = 0
  Multiplicity = 1
  Basis Set: AUG-CC-PVTZ
    Blend: AUG-CC-PVTZ
  Basis Set: (AUG-CC-PVTZ AUX)
    Blend: AUG-CC-PVTZ-JKFIT

    Orbital Energies [Eh]
    ---------------------

    Doubly Occupied:

       1A    -20.549637     2A    -20.544154     3A    -15.647397
       4A    -15.631039     5A    -11.423248     6A    -11.385673
       7A    -11.344748     8A    -11.264894     9A     -1.431866
      10A     -1.394105    11A     -1.310859    12A     -1.243843
      13A     -1.086848    14A     -0.931777    15A     -0.901078
      16A     -0.800768    17A     -0.763212    18A     -0.713478
      19A     -0.677025    20A     -0.666804    21A     -0.650213
      22A     -0.613670    23A     -0.592724    24A     -0.568985
      25A     -0.525192    26A     -0.484408    27A     -0.450833
      28A     -0.437521    29A     -0.370483

  @DF-RHF Final Energy:  -412.61850974722023

   => Energetics <=

    Nuclear Repulsion Energy =            355.1224957494101204
    One-Electron Energy =               -1266.6690454220733955
    Two-Electron Energy =                 498.9280399254431018
    Total Energy =                       -412.6185097472202301
  Basis Set: (AUG-CC-PVTZ AUX)
    Blend: AUG-CC-PVTZ-RI
    Molecular point group: c1

    Geometry (in Angstrom), charge = 0, multiplicity = 1:

       Center              X                  Y                   Z               Mass
    ------------   -----------------  -----------------  -----------------  -----------------
         N            0.033110101094    -0.944008465238    -0.000001151673    14.003074004430
         H            0.046561101094    -1.960938465238    -0.000001151673     1.007825032230
         C            1.292009101094    -0.313113465238    -0.000000151673    12.000000000000
         O            2.323125101094    -0.979035465238     0.000000848327    15.994914619570
         C            1.205703101094     1.141205534762    -0.000000151673    12.000000000000
         H            2.167564701094     1.737891134762     0.000000848327     1.007825032230
         C           -0.003951898906     1.744729534762    -0.000000151673    12.000000000000
         H           -0.123313898906     2.823421534762    -0.000000151673     1.007825032230
         N           -1.174801898906     1.020774534762    -0.000001151673    14.003074004430
         H           -2.077203898906     1.481091534762     0.000000848327     1.007825032230
         C           -1.226548898906    -0.368154465238     0.000000848327    12.000000000000
         O           -2.275175898906    -0.999366465238     0.000000848327    15.994914619570

  Basis Set: AUG-CC-PVTZ
    Blend: AUG-CC-PVTZ
  Basis Set: (AUG-CC-PVTZ AUX)
    Blend: AUG-CC-PVTZ-JKFIT
	 Reference Energy          =    -412.6185097472202301 [Eh]
	 Singles Energy            =      -0.0000000000000000 [Eh]
	 Same-Spin Energy          =      -0.4148323600570309 [Eh]
	 Opposite-Spin Energy      =      -1.2287000963996253 [Eh]
	 Correlation Energy        =      -1.6435324564566562 [Eh]
	 Total Energy              =    -414.2620422036769128 [Eh]

	 ================> DF-SCS-MP2 Energies <==================
	-----------------------------------------------------------
	 SCS Same-Spin Scale       =       0.3333333333333333 [-]
	 SCS Opposite-Spin Scale   =       1.2000000000000000 [-]
	 SCS Same-Spin Energy      =      -0.1382774533523436 [Eh]
	 SCS Opposite-Spin Energy  =      -1.4744401156795504 [Eh]
	 SCS Correlation Energy    =      -1.6127175690318940 [Eh]
	 SCS Total Energy          =    -414.2312273162521024 [Eh]
	-----------------------------------------------------------

  Dipole Moment: [D]
     X:    -1.1602      Y:     4.1906      Z:     0.0000     Total:     4.3483

*** Psi4 exiting successfully. Buy a developer a beer!
