                               Psi4 1.3.2 release

  ==> Input File <==

--------------------------------------------------------------------------
#psi4
#
memory 32 gb

molecule  {
0 1
  N        0.0334190    -1.1069142    -0.0001108
  H       -0.0465630    -1.9952990     0.0000230
  C       -1.2924060    -0.3478390    -0.0002800
  O       -2.3237930    -1.0132930     0.0001830
  C       -1.2062280     1.1067970     0.0000000
  H       -2.1261180     1.6763830     0.0001840
  C        0.0030670     1.7105540     0.0000260
  H        0.1229620     2.7891690     0.0001530
  N        1.1742530     0.9863660    -0.0000120
  H        2.0766210     1.4468080     0.0000740
  C        1.2261220    -0.4021520    -0.0000880
  O        2.2745420    -1.0338450     0.0001200
units angstrom
no_reorient  #important for SAPT in psi4, default
symmetry c1  #important for SAPT in psi4, default
}

set PROPERTIES_ORIGIN ["COM"]
properties('MP2/aug-cc-pvtz', properties = ['dipole'])
--------------------------------------------------------------------------

    Molecular point group: c1
  Charge       = 0
  Multiplicity = 1
  Basis Set: AUG-CC-PVTZ
    Blend: AUG-CC-PVTZ
  Basis Set: (AUG-CC-PVTZ AUX)
    Blend: AUG-CC-PVTZ-JKFIT

    Orbital Energies [Eh]
    ---------------------

    Doubly Occupied:

       1A    -20.554857     2A    -20.537028     3A    -15.651130
       4A    -15.615171     5A    -11.416863     6A    -11.395404
       7A    -11.350390     8A    -11.265832     9A     -1.425130
      10A     -1.395123    11A     -1.305662    12A     -1.237674
      13A     -1.090822    14A     -0.944000    15A     -0.877902
      16A     -0.811286    17A     -0.764132    18A     -0.733416
      19A     -0.679562    20A     -0.658107    21A     -0.647841
      22A     -0.621954    23A     -0.603535    24A     -0.563652
      25A     -0.526141    26A     -0.481861    27A     -0.443504
      28A     -0.431820    29A     -0.373498

  @DF-RHF Final Energy:  -412.59217847309469

   => Energetics <=

    Nuclear Repulsion Energy =            353.2774362738608147
    One-Electron Energy =               -1262.9326344591056568
    Two-Electron Energy =                 497.0630197121502079
    Total Energy =                       -412.5921784730946911
  Basis Set: (AUG-CC-PVTZ AUX)
    Blend: AUG-CC-PVTZ-RI
    Molecular point group: c1

    Geometry (in Angstrom), charge = 0, multiplicity = 1:

       Center              X                  Y                   Z               Mass
    ------------   -----------------  -----------------  -----------------  -----------------
         N            0.025232356714    -1.056249657448    -0.000105982224    14.003074004430
         H           -0.054749643286    -1.944634457448     0.000027817776     1.007825032230
         C           -1.300592643286    -0.297174457448    -0.000275182224    12.000000000000
         O           -2.331979643286    -0.962628457448     0.000187817776    15.994914619570
         C           -1.214414643286     1.157461542552     0.000004817776    12.000000000000
         H           -2.134304643286     1.727047542552     0.000188817776     1.007825032230
         C           -0.005119643286     1.761218542552     0.000030817776    12.000000000000
         H            0.114775356714     2.839833542552     0.000157817776     1.007825032230
         N            1.166066356714     1.037030542552    -0.000007182224    14.003074004430
         H            2.068434356714     1.497472542552     0.000078817776     1.007825032230
         C            1.217935356714    -0.351487457448    -0.000083182224    12.000000000000
         O            2.266355356714    -0.983180457448     0.000124817776    15.994914619570

  Basis Set: AUG-CC-PVTZ
    Blend: AUG-CC-PVTZ
  Basis Set: (AUG-CC-PVTZ AUX)
    Blend: AUG-CC-PVTZ-JKFIT
	 Reference Energy          =    -412.5921784730946911 [Eh]
	 Singles Energy            =      -0.0000000000000000 [Eh]
	 Same-Spin Energy          =      -0.4135619794905516 [Eh]
	 Opposite-Spin Energy      =      -1.2282562578611422 [Eh]
	 Correlation Energy        =      -1.6418182373516939 [Eh]
	 Total Energy              =    -414.2339967104463767 [Eh]

	 ================> DF-SCS-MP2 Energies <==================
	-----------------------------------------------------------
	 SCS Same-Spin Scale       =       0.3333333333333333 [-]
	 SCS Opposite-Spin Scale   =       1.2000000000000000 [-]
	 SCS Same-Spin Energy      =      -0.1378539931635172 [Eh]
	 SCS Opposite-Spin Energy  =      -1.4739075094333707 [Eh]
	 SCS Correlation Energy    =      -1.6117615025968879 [Eh]
	 SCS Total Energy          =    -414.2039399756915827 [Eh]
	-----------------------------------------------------------

  Dipole Moment: [D]
     X:     0.6710      Y:     4.4745      Z:    -0.0005     Total:     4.5246

*** Psi4 exiting successfully. Buy a developer a beer!
