                               Psi4 1.3.2 release

  ==> Input File <==

--------------------------------------------------------------------------
#psi4
#
memory 32 gb

molecule  {
0 1
  N       -0.0337150    -0.9783820    -0.0001030
  H       -0.0465630    -1.9952990     0.0000230
  C       -1.3136449    -0.3921508    -0.0002756
  O       -2.3237930    -1.0132930     0.0001830
  C       -1.2062280     1.1067970     0.0000000
  H       -2.1261180     1.6763830     0.0001840
  C        0.0030670     1.7105540     0.0000260
  H        0.1229620     2.7891690     0.0001530
  N        1.1742530     0.9863660    -0.0000120
  H        2.0766210     1.4468080     0.0000740
  C        1.2261220    -0.4021520    -0.0000880
  O        2.2745420    -1.0338450     0.0001200
units angstrom
no_reorient  #important for SAPT in psi4, default
symmetry c1  #important for SAPT in psi4, default
}

set PROPERTIES_ORIGIN ["COM"]
properties('MP2/aug-cc-pvtz', properties = ['dipole'])
--------------------------------------------------------------------------

    Molecular point group: c1
  Charge       = 0
  Multiplicity = 1
  Basis Set: AUG-CC-PVTZ
    Blend: AUG-CC-PVTZ
  Basis Set: (AUG-CC-PVTZ AUX)
    Blend: AUG-CC-PVTZ-JKFIT

    Orbital Energies [Eh]
    ---------------------

    Doubly Occupied:

       1A    -20.552365     2A    -20.548163     3A    -15.642557
       4A    -15.628215     5A    -11.422331     6A    -11.385244
       7A    -11.337698     8A    -11.258244     9A     -1.436780
      10A     -1.416658    11A     -1.308197    12A     -1.244696
      13A     -1.078398    14A     -0.923939    15A     -0.901716
      16A     -0.799724    17A     -0.759218    18A     -0.709042
      19A     -0.683696    20A     -0.665540    21A     -0.650513
      22A     -0.622326    23A     -0.599264    24A     -0.580822
      25A     -0.521735    26A     -0.483051    27A     -0.452454
      28A     -0.442231    29A     -0.367049

  @DF-RHF Final Energy:  -412.62088206320249

   => Energetics <=

    Nuclear Repulsion Energy =            355.3223829967050165
    One-Electron Energy =               -1267.0427937652955279
    Two-Electron Energy =                 499.0995287053879679
    Total Energy =                       -412.6208820632024867
  Basis Set: (AUG-CC-PVTZ AUX)
    Blend: AUG-CC-PVTZ-RI
    Molecular point group: c1

    Geometry (in Angstrom), charge = 0, multiplicity = 1:

       Center              X                  Y                   Z               Mass
    ------------   -----------------  -----------------  -----------------  -----------------
         N           -0.031235052093    -0.939037060479    -0.000099628515    14.003074004430
         H           -0.044083052093    -1.955954060479     0.000026371485     1.007825032230
         C           -1.311164952093    -0.352805860479    -0.000272228515    12.000000000000
         O           -2.321313052093    -0.973948060479     0.000186371485    15.994914619570
         C           -1.203748052093     1.146141939521     0.000003371485    12.000000000000
         H           -2.123638052093     1.715727939521     0.000187371485     1.007825032230
         C            0.005546947907     1.749898939521     0.000029371485    12.000000000000
         H            0.125441947907     2.828513939521     0.000156371485     1.007825032230
         N            1.176732947907     1.025710939521    -0.000008628515    14.003074004430
         H            2.079100947907     1.486152939521     0.000077371485     1.007825032230
         C            1.228601947907    -0.362807060479    -0.000084628515    12.000000000000
         O            2.277021947907    -0.994500060479     0.000123371485    15.994914619570

  Basis Set: AUG-CC-PVTZ
    Blend: AUG-CC-PVTZ
  Basis Set: (AUG-CC-PVTZ AUX)
    Blend: AUG-CC-PVTZ-JKFIT
	 Reference Energy          =    -412.6208820632024867 [Eh]
	 Singles Energy            =      -0.0000000000000000 [Eh]
	 Same-Spin Energy          =      -0.4135180767669727 [Eh]
	 Opposite-Spin Energy      =      -1.2263674525768764 [Eh]
	 Correlation Energy        =      -1.6398855293438492 [Eh]
	 Total Energy              =    -414.2607675925463582 [Eh]

	 ================> DF-SCS-MP2 Energies <==================
	-----------------------------------------------------------
	 SCS Same-Spin Scale       =       0.3333333333333333 [-]
	 SCS Opposite-Spin Scale   =       1.2000000000000000 [-]
	 SCS Same-Spin Energy      =      -0.1378393589223242 [Eh]
	 SCS Opposite-Spin Energy  =      -1.4716409430922517 [Eh]
	 SCS Correlation Energy    =      -1.6094803020145760 [Eh]
	 SCS Total Energy          =    -414.2303623652170472 [Eh]
	-----------------------------------------------------------

  Dipole Moment: [D]
     X:     0.9013      Y:     3.9091      Z:    -0.0005     Total:     4.0117

*** Psi4 exiting successfully. Buy a developer a beer!
