                               Psi4 1.3.2 release

  ==> Input File <==

--------------------------------------------------------------------------
#psi4
#
memory 32 gb

molecule  {
0 1
  N       -0.0337150    -0.9783820    -0.0001030
  H       -0.0465630    -1.9952990     0.0000230
  C       -1.2924060    -0.3478390    -0.0002800
  O       -2.1557369    -0.9048627     0.0001076
  C       -1.2062280     1.1067970     0.0000000
  H       -2.1261180     1.6763830     0.0001840
  C        0.0030670     1.7105540     0.0000260
  H        0.1229620     2.7891690     0.0001530
  N        1.1742530     0.9863660    -0.0000120
  H        2.0766210     1.4468080     0.0000740
  C        1.2261220    -0.4021520    -0.0000880
  O        2.2745420    -1.0338450     0.0001200
units angstrom
no_reorient  #important for SAPT in psi4, default
symmetry c1  #important for SAPT in psi4, default
}

set PROPERTIES_ORIGIN ["COM"]
properties('MP2/aug-cc-pvtz', properties = ['dipole'])
--------------------------------------------------------------------------

    Molecular point group: c1
  Charge       = 0
  Multiplicity = 1
  Basis Set: AUG-CC-PVTZ
    Blend: AUG-CC-PVTZ
  Basis Set: (AUG-CC-PVTZ AUX)
    Blend: AUG-CC-PVTZ-JKFIT

    Orbital Energies [Eh]
    ---------------------

    Doubly Occupied:

       1A    -20.546348     2A    -20.536033     3A    -15.631970
       4A    -15.603460     5A    -11.407608     6A    -11.346592
       7A    -11.328712     8A    -11.241019     9A     -1.549134
      10A     -1.413538    11A     -1.298825    12A     -1.231733
      13A     -1.074201    14A     -0.922870    15A     -0.881735
      16A     -0.795727    17A     -0.772316    18A     -0.715479
      19A     -0.694533    20A     -0.685560    21A     -0.643719
      22A     -0.630862    23A     -0.619446    24A     -0.608278
      25A     -0.512526    26A     -0.477347    27A     -0.443752
      28A     -0.437833    29A     -0.361009

  @DF-RHF Final Energy:  -412.56028035078521

   => Energetics <=

    Nuclear Repulsion Energy =            362.8945274985324545
    One-Electron Energy =               -1282.0852846178761411
    Two-Electron Energy =                 506.6304767685585375
    Total Energy =                       -412.5602803507852059
  Basis Set: (AUG-CC-PVTZ AUX)
    Blend: AUG-CC-PVTZ-RI
    Molecular point group: c1

    Geometry (in Angstrom), charge = 0, multiplicity = 1:

       Center              X                  Y                   Z               Mass
    ------------   -----------------  -----------------  -----------------  -----------------
         N           -0.057504634285    -0.959264946435    -0.000088391818    14.003074004430
         H           -0.070352634285    -1.976181946435     0.000037608182     1.007825032230
         C           -1.316195634285    -0.328721946435    -0.000265391818    12.000000000000
         O           -2.179526534285    -0.885745646435     0.000122208182    15.994914619570
         C           -1.230017634285     1.125914053565     0.000014608182    12.000000000000
         H           -2.149907634285     1.695500053565     0.000198608182     1.007825032230
         C           -0.020722634285     1.729671053565     0.000040608182    12.000000000000
         H            0.099172365715     2.808286053565     0.000167608182     1.007825032230
         N            1.150463365715     1.005483053565     0.000002608182    14.003074004430
         H            2.052831365715     1.465925053565     0.000088608182     1.007825032230
         C            1.202332365715    -0.383034946435    -0.000073391818    12.000000000000
         O            2.250752365715    -1.014727946435     0.000134608182    15.994914619570

  Basis Set: AUG-CC-PVTZ
    Blend: AUG-CC-PVTZ
  Basis Set: (AUG-CC-PVTZ AUX)
    Blend: AUG-CC-PVTZ-JKFIT
	 Reference Energy          =    -412.5602803507852059 [Eh]
	 Singles Energy            =      -0.0000000000000000 [Eh]
	 Same-Spin Energy          =      -0.4095915814896411 [Eh]
	 Opposite-Spin Energy      =      -1.2160983850167895 [Eh]
	 Correlation Energy        =      -1.6256899665064306 [Eh]
	 Total Energy              =    -414.1859703172916625 [Eh]

	 ================> DF-SCS-MP2 Energies <==================
	-----------------------------------------------------------
	 SCS Same-Spin Scale       =       0.3333333333333333 [-]
	 SCS Opposite-Spin Scale   =       1.2000000000000000 [-]
	 SCS Same-Spin Energy      =      -0.1365305271632137 [Eh]
	 SCS Opposite-Spin Energy  =      -1.4593180620201474 [Eh]
	 SCS Correlation Energy    =      -1.5958485891833609 [Eh]
	 SCS Total Energy          =    -414.1561289399685393 [Eh]
	-----------------------------------------------------------

  Dipole Moment: [D]
     X:    -0.1751      Y:     3.5160      Z:    -0.0005     Total:     3.5204

*** Psi4 exiting successfully. Buy a developer a beer!
