                               Psi4 1.3.2 release

  ==> Input File <==

--------------------------------------------------------------------------
#psi4
#
memory 32 gb

molecule  {
0 1
  N       -0.0337150    -0.9783820    -0.0001030
  H       -0.0465630    -1.9952990     0.0000230
  C       -1.2924060    -0.3478390    -0.0002800
  O       -2.3237930    -1.0132930     0.0001830
  C       -1.2062280     1.1067970     0.0000000
  H       -2.1261180     1.6763830     0.0001840
  C        0.0030670     1.7105540     0.0000260
  H        0.1229620     2.7891690     0.0001530
  N        1.1742530     0.9863660    -0.0000120
  H        2.0766210     1.4468080     0.0000740
  C        1.2261220    -0.4021520    -0.0000880
  O        2.3601960    -1.0854531     0.0001370
units angstrom
no_reorient  #important for SAPT in psi4, default
symmetry c1  #important for SAPT in psi4, default
}

set PROPERTIES_ORIGIN ["COM"]
properties('MP2/aug-cc-pvtz', properties = ['dipole'])
--------------------------------------------------------------------------

    Molecular point group: c1
  Charge       = 0
  Multiplicity = 1
  Basis Set: AUG-CC-PVTZ
    Blend: AUG-CC-PVTZ
  Basis Set: (AUG-CC-PVTZ AUX)
    Blend: AUG-CC-PVTZ-JKFIT

    Orbital Energies [Eh]
    ---------------------

    Doubly Occupied:

       1A    -20.550462     2A    -20.545650     3A    -15.658456
       4A    -15.642470     5A    -11.438505     6A    -11.392107
       7A    -11.350540     8A    -11.267155     9A     -1.414954
      10A     -1.378883    11A     -1.293089    12A     -1.249254
      13A     -1.095338    14A     -0.938719    15A     -0.908906
      16A     -0.812505    17A     -0.764390    18A     -0.719396
      19A     -0.679244    20A     -0.663039    21A     -0.637735
      22A     -0.614468    23A     -0.598056    24A     -0.569874
      25A     -0.514947    26A     -0.474448    27A     -0.452220
      28A     -0.434767    29A     -0.375663

  @DF-RHF Final Energy:  -412.59850387773218

   => Energetics <=

    Nuclear Repulsion Energy =            352.1089865254506890
    One-Electron Energy =               -1260.5445017516974531
    Two-Electron Energy =                 495.8370113485145225
    Total Energy =                       -412.5985038777321847
  Basis Set: (AUG-CC-PVTZ AUX)
    Blend: AUG-CC-PVTZ-RI
    Molecular point group: c1

    Geometry (in Angstrom), charge = 0, multiplicity = 1:

       Center              X                  Y                   Z               Mass
    ------------   -----------------  -----------------  -----------------  -----------------
         N           -0.045739512568    -0.936415149459    -0.000101584409    14.003074004430
         H           -0.058587512568    -1.953332149459     0.000024415591     1.007825032230
         C           -1.304430512568    -0.305872149459    -0.000278584409    12.000000000000
         O           -2.335817512568    -0.971326149459     0.000184415591    15.994914619570
         C           -1.218252512568     1.148763850541     0.000001415591    12.000000000000
         H           -2.138142512568     1.718349850541     0.000185415591     1.007825032230
         C           -0.008957512568     1.752520850541     0.000027415591    12.000000000000
         H            0.110937487432     2.831135850541     0.000154415591     1.007825032230
         N            1.162228487432     1.028332850541    -0.000010584409    14.003074004430
         H            2.064596487432     1.488774850541     0.000075415591     1.007825032230
         C            1.214097487432    -0.360185149459    -0.000086584409    12.000000000000
         O            2.348171487432    -1.043486249459     0.000138415591    15.994914619570

  Basis Set: AUG-CC-PVTZ
    Blend: AUG-CC-PVTZ
  Basis Set: (AUG-CC-PVTZ AUX)
    Blend: AUG-CC-PVTZ-JKFIT
	 Reference Energy          =    -412.5985038777321847 [Eh]
	 Singles Energy            =      -0.0000000000000000 [Eh]
	 Same-Spin Energy          =      -0.4170809094281309 [Eh]
	 Opposite-Spin Energy      =      -1.2340700491999961 [Eh]
	 Correlation Energy        =      -1.6511509586281270 [Eh]
	 Total Energy              =    -414.2496548363603210 [Eh]

	 ================> DF-SCS-MP2 Energies <==================
	-----------------------------------------------------------
	 SCS Same-Spin Scale       =       0.3333333333333333 [-]
	 SCS Opposite-Spin Scale   =       1.2000000000000000 [-]
	 SCS Same-Spin Energy      =      -0.1390269698093770 [Eh]
	 SCS Opposite-Spin Energy  =      -1.4808840590399952 [Eh]
	 SCS Correlation Energy    =      -1.6199110288493721 [Eh]
	 SCS Total Energy          =    -414.2184149065815291 [Eh]
	-----------------------------------------------------------

  Dipole Moment: [D]
     X:     0.5314      Y:     4.5475      Z:    -0.0006     Total:     4.5785

*** Psi4 exiting successfully. Buy a developer a beer!
