                               Psi4 1.3.2 release

  ==> Input File <==

--------------------------------------------------------------------------
#psi4
#
memory 32 gb

molecule  {
0 1
  N       -0.0337150    -0.9783820    -0.0001030
  H       -0.0465630    -1.9952990     0.0000230
  C       -1.2924060    -0.3478390    -0.0002800
  O       -2.3237930    -1.0132930     0.0001830
  C       -1.2062280     1.1067970     0.0000000
  H       -2.1261180     1.6763830     0.0001840
  C        0.0030670     1.7105540     0.0000260
  H        0.1340096     2.8885569     0.0001647
  N        1.1742530     0.9863660    -0.0000120
  H        2.0766210     1.4468080     0.0000740
  C        1.2261220    -0.4021520    -0.0000880
  O        2.2745420    -1.0338450     0.0001200
units angstrom
no_reorient  #important for SAPT in psi4, default
symmetry c1  #important for SAPT in psi4, default
}

set PROPERTIES_ORIGIN ["COM"]
properties('MP2/aug-cc-pvtz', properties = ['dipole'])
--------------------------------------------------------------------------

    Molecular point group: c1
  Charge       = 0
  Multiplicity = 1
  Basis Set: AUG-CC-PVTZ
    Blend: AUG-CC-PVTZ
  Basis Set: (AUG-CC-PVTZ AUX)
    Blend: AUG-CC-PVTZ-JKFIT

    Orbital Energies [Eh]
    ---------------------

    Doubly Occupied:

       1A    -20.549912     2A    -20.544366     3A    -15.648001
       4A    -15.630970     5A    -11.423610     6A    -11.385756
       7A    -11.354737     8A    -11.260079     9A     -1.432066
      10A     -1.394341    11A     -1.310688    12A     -1.243662
      13A     -1.086917    14A     -0.925732    15A     -0.900870
      16A     -0.805055    17A     -0.762491    18A     -0.699353
      19A     -0.675558    20A     -0.667010    21A     -0.649929
      22A     -0.613155    23A     -0.595834    24A     -0.569227
      25A     -0.525285    26A     -0.483778    27A     -0.450784
      28A     -0.437657    29A     -0.370762

  @DF-RHF Final Energy:  -412.61345266643957

   => Energetics <=

    Nuclear Repulsion Energy =            354.8794646864909623
    One-Electron Energy =               -1266.1906663521283463
    Two-Electron Energy =                 498.6977489991977563
    Total Energy =                       -412.6134526664395707
  Basis Set: (AUG-CC-PVTZ AUX)
    Blend: AUG-CC-PVTZ-RI
    Molecular point group: c1

    Geometry (in Angstrom), charge = 0, multiplicity = 1:

       Center              X                  Y                   Z               Mass
    ------------   -----------------  -----------------  -----------------  -----------------
         N           -0.033609481375    -0.944677715401    -0.000099262457    14.003074004430
         H           -0.046457481375    -1.961594715401     0.000026737543     1.007825032230
         C           -1.292300481375    -0.314134715401    -0.000276262457    12.000000000000
         O           -2.323687481375    -0.979588715401     0.000186737543    15.994914619570
         C           -1.206122481375     1.140501284599     0.000003737543    12.000000000000
         H           -2.126012481375     1.710087284599     0.000187737543     1.007825032230
         C            0.003172518625     1.744258284599     0.000029737543    12.000000000000
         H            0.134115118625     2.922261184599     0.000168437543     1.007825032230
         N            1.174358518625     1.020070284599    -0.000008262457    14.003074004430
         H            2.076726518625     1.480512284599     0.000077737543     1.007825032230
         C            1.226227518625    -0.368447715401    -0.000084262457    12.000000000000
         O            2.274647518625    -1.000140715401     0.000123737543    15.994914619570

  Basis Set: AUG-CC-PVTZ
    Blend: AUG-CC-PVTZ
  Basis Set: (AUG-CC-PVTZ AUX)
    Blend: AUG-CC-PVTZ-JKFIT
	 Reference Energy          =    -412.6134526664395707 [Eh]
	 Singles Energy            =      -0.0000000000000000 [Eh]
	 Same-Spin Energy          =      -0.4150109108131226 [Eh]
	 Opposite-Spin Energy      =      -1.2292696277881543 [Eh]
	 Correlation Energy        =      -1.6442805386012769 [Eh]
	 Total Energy              =    -414.2577332050408359 [Eh]

	 ================> DF-SCS-MP2 Energies <==================
	-----------------------------------------------------------
	 SCS Same-Spin Scale       =       0.3333333333333333 [-]
	 SCS Opposite-Spin Scale   =       1.2000000000000000 [-]
	 SCS Same-Spin Energy      =      -0.1383369702710409 [Eh]
	 SCS Opposite-Spin Energy  =      -1.4751235533457852 [Eh]
	 SCS Correlation Energy    =      -1.6134605236168260 [Eh]
	 SCS Total Energy          =    -414.2269131900563934 [Eh]
	-----------------------------------------------------------

  Dipole Moment: [D]
     X:     1.1759      Y:     4.1842      Z:    -0.0005     Total:     4.3463

*** Psi4 exiting successfully. Buy a developer a beer!
