                               Psi4 1.3.2 release

  ==> Input File <==

--------------------------------------------------------------------------
#psi4
#
memory 32 gb

molecule  {
0 1
  N       -0.0337150    -0.9783820    -0.0001030
  H       -0.0465630    -1.9952990     0.0000230
  C       -1.2670060    -0.3491215    -0.0002822
  O       -2.3237930    -1.0132930     0.0001830
  C       -1.2062280     1.1067970     0.0000000
  H       -2.1261180     1.6763830     0.0001840
  C        0.0030670     1.7105540     0.0000260
  H        0.1229620     2.7891690     0.0001530
  N        1.1742530     0.9863660    -0.0000120
  H        2.0766210     1.4468080     0.0000740
  C        1.2261220    -0.4021520    -0.0000880
  O        2.2745420    -1.0338450     0.0001200
units angstrom
no_reorient  #important for SAPT in psi4, default
symmetry c1  #important for SAPT in psi4, default
}

set PROPERTIES_ORIGIN ["COM"]
properties('MP2/aug-cc-pvtz', properties = ['dipole'])
--------------------------------------------------------------------------

    Molecular point group: c1
  Charge       = 0
  Multiplicity = 1
  Basis Set: AUG-CC-PVTZ
    Blend: AUG-CC-PVTZ
  Basis Set: (AUG-CC-PVTZ AUX)
    Blend: AUG-CC-PVTZ-JKFIT

    Orbital Energies [Eh]
    ---------------------

    Doubly Occupied:

       1A    -20.552248     2A    -20.539036     3A    -15.648921
       4A    -15.635234     5A    -11.425838     6A    -11.384793
       7A    -11.344489     8A    -11.260624     9A     -1.434206
      10A     -1.382547    11A     -1.311941    12A     -1.248795
      13A     -1.089235    14A     -0.933542    15A     -0.906695
      16A     -0.807979    17A     -0.764275    18A     -0.716406
      19A     -0.675885    20A     -0.669629    21A     -0.653341
      22A     -0.609592    23A     -0.600303    24A     -0.565551
      25A     -0.526587    26A     -0.484920    27A     -0.448491
      28A     -0.436611    29A     -0.370416

  @DF-RHF Final Energy:  -412.61887739587485

   => Energetics <=

    Nuclear Repulsion Energy =            355.5325040967361474
    One-Electron Energy =               -1267.4465025209235591
    Two-Electron Energy =                 499.2951210283125647
    Total Energy =                       -412.6188773958748470
  Basis Set: (AUG-CC-PVTZ AUX)
    Blend: AUG-CC-PVTZ-RI
    Molecular point group: c1

    Geometry (in Angstrom), charge = 0, multiplicity = 1:

       Center              X                  Y                   Z               Mass
    ------------   -----------------  -----------------  -----------------  -----------------
         N           -0.036230860374    -0.943646220071    -0.000098921544    14.003074004430
         H           -0.049078860374    -1.960563220071     0.000027078456     1.007825032230
         C           -1.269521860374    -0.314385720071    -0.000278121544    12.000000000000
         O           -2.326308860374    -0.978557220071     0.000187078456    15.994914619570
         C           -1.208743860374     1.141532779929     0.000004078456    12.000000000000
         H           -2.128633860374     1.711118779929     0.000188078456     1.007825032230
         C            0.000551139626     1.745289779929     0.000030078456    12.000000000000
         H            0.120446139626     2.823904779929     0.000157078456     1.007825032230
         N            1.171737139626     1.021101779929    -0.000007921544    14.003074004430
         H            2.074105139626     1.481543779929     0.000078078456     1.007825032230
         C            1.223606139626    -0.367416220071    -0.000083921544    12.000000000000
         O            2.272026139626    -0.999109220071     0.000124078456    15.994914619570

  Basis Set: AUG-CC-PVTZ
    Blend: AUG-CC-PVTZ
  Basis Set: (AUG-CC-PVTZ AUX)
    Blend: AUG-CC-PVTZ-JKFIT
	 Reference Energy          =    -412.6188773958748470 [Eh]
	 Singles Energy            =      -0.0000000000000000 [Eh]
	 Same-Spin Energy          =      -0.4151218827534354 [Eh]
	 Opposite-Spin Energy      =      -1.2290609897055929 [Eh]
	 Correlation Energy        =      -1.6441828724590284 [Eh]
	 Total Energy              =    -414.2630602683339021 [Eh]

	 ================> DF-SCS-MP2 Energies <==================
	-----------------------------------------------------------
	 SCS Same-Spin Scale       =       0.3333333333333333 [-]
	 SCS Opposite-Spin Scale   =       1.2000000000000000 [-]
	 SCS Same-Spin Energy      =      -0.1383739609178118 [Eh]
	 SCS Opposite-Spin Energy  =      -1.4748731876467114 [Eh]
	 SCS Correlation Energy    =      -1.6132471485645232 [Eh]
	 SCS Total Energy          =    -414.2321245444393867 [Eh]
	-----------------------------------------------------------

  Dipole Moment: [D]
     X:     1.3846      Y:     4.2088      Z:    -0.0005     Total:     4.4307

*** Psi4 exiting successfully. Buy a developer a beer!
