                               Psi4 1.4a3.dev225

  ==> Input File <==

--------------------------------------------------------------------------
#psi4
#
memory 32 gb

molecule  {
0 1
  N        0.0336940    -0.9783750    -0.0000010
  H        0.0471450    -1.9953050    -0.0000010
  C        1.2925930    -0.3474800     0.0000000
  O        2.3069082    -1.0025516     0.0000010
  C        1.2062870     1.1068390     0.0000000
  H        2.1256600     1.6771670     0.0000010
  C       -0.0033680     1.7103630     0.0000000
  H       -0.1227300     2.7890550     0.0000000
  N       -1.1742180     0.9864080    -0.0000010
  H       -2.0766200     1.4467250     0.0000010
  C       -1.2259650    -0.4025210     0.0000010
  O       -2.2745920    -1.0337330     0.0000010
units angstrom
no_reorient  #important for SAPT in psi4, default
symmetry c1  #important for SAPT in psi4, default
}

set PROPERTIES_ORIGIN ["COM"]
properties('MP2/aug-cc-pvtz', properties = ['dipole'])
--------------------------------------------------------------------------

    Molecular point group: c1
  Charge       = 0
  Multiplicity = 1
  Basis Set: AUG-CC-PVTZ
    Blend: AUG-CC-PVTZ
  Basis Set: (AUG-CC-PVTZ AUX)
    Blend: AUG-CC-PVTZ-JKFIT

    Orbital Energies [Eh]
    ---------------------

    Doubly Occupied:

       1A    -20.548279     2A    -20.544626     3A    -15.645754
       4A    -15.628262     5A    -11.421697     6A    -11.381741
       7A    -11.343041     8A    -11.257994     9A     -1.432309
      10A     -1.404997    11A     -1.309936    12A     -1.242863
      13A     -1.086990    14A     -0.931024    15A     -0.899173
      16A     -0.803705    17A     -0.763309    18A     -0.712170
      19A     -0.678417    20A     -0.666232    21A     -0.651826
      22A     -0.617527    23A     -0.601638    24A     -0.573797
      25A     -0.523905    26A     -0.483878    27A     -0.451102
      28A     -0.438142    29A     -0.369665

  @DF-RHF Final Energy:  -412.62298843397394

   => Energetics <=

    Nuclear Repulsion Energy =            356.0504808777373569
    One-Electron Energy =               -1268.5189459144448847
    Two-Electron Energy =                 499.8454766027336404
    Total Energy =                       -412.6229884339739442
  Basis Set: (AUG-CC-PVTZ AUX)
    Blend: AUG-CC-PVTZ-RI
    Molecular point group: c1

    Geometry (in Angstrom), charge = 0, multiplicity = 1:

       Center              X                  Y                   Z               Mass
    ------------   -----------------  -----------------  -----------------  -----------------
         N            0.035891106252    -0.945320532941    -0.000001151673    14.003074004430
         H            0.049342106252    -1.962250532941    -0.000001151673     1.007825032230
         C            1.294790106252    -0.314425532941    -0.000000151673    12.000000000000
         O            2.309105306252    -0.969497132941     0.000000848327    15.994914619570
         C            1.208484106252     1.139893467059    -0.000000151673    12.000000000000
         H            2.127857106252     1.710221467059     0.000000848327     1.007825032230
         C           -0.001170893748     1.743417467059    -0.000000151673    12.000000000000
         H           -0.120532893748     2.822109467059    -0.000000151673     1.007825032230
         N           -1.172020893748     1.019462467059    -0.000001151673    14.003074004430
         H           -2.074422893748     1.479779467059     0.000000848327     1.007825032230
         C           -1.223767893748    -0.369466532941     0.000000848327    12.000000000000
         O           -2.272394893748    -1.000678532941     0.000000848327    15.994914619570

  Basis Set: AUG-CC-PVTZ
    Blend: AUG-CC-PVTZ
  Basis Set: (AUG-CC-PVTZ AUX)
    Blend: AUG-CC-PVTZ-JKFIT
	 Reference Energy          =    -412.6229884339739442 [Eh]
	 Singles Energy            =      -0.0000000000000000 [Eh]
	 Same-Spin Energy          =      -0.4141678305683987 [Eh]
	 Opposite-Spin Energy      =      -1.2270596129257743 [Eh]
	 Correlation Energy        =      -1.6412274434941729 [Eh]
	 Total Energy              =    -414.2642158774681320 [Eh]

	 ================> DF-SCS-MP2 Energies <==================
	-----------------------------------------------------------
	 SCS Same-Spin Scale       =       0.3333333333333333 [-]
	 SCS Opposite-Spin Scale   =       1.2000000000000000 [-]
	 SCS Same-Spin Energy      =      -0.1380559435227995 [Eh]
	 SCS Opposite-Spin Energy  =      -1.4724715355109290 [Eh]
	 SCS Correlation Energy    =      -1.6105274790337285 [Eh]
	 SCS Total Energy          =    -414.2335159130076931 [Eh]
	-----------------------------------------------------------

  Dipole Moment: [D]
     X:    -1.0511      Y:     4.1308      Z:     0.0000     Total:     4.2625

*** Psi4 exiting successfully. Buy a developer a beer!
