                               Psi4 1.3.2 release

  ==> Input File <==

--------------------------------------------------------------------------
#psi4
#
memory 32 gb

molecule  {
0 1
  N       -0.0234665    -1.0002814    -0.0001043
  H       -0.0465630    -1.9952990     0.0000230
  C       -1.2924060    -0.3478390    -0.0002800
  O       -2.3237930    -1.0132930     0.0001830
  C       -1.2062280     1.1067970     0.0000000
  H       -2.1261180     1.6763830     0.0001840
  C        0.0030670     1.7105540     0.0000260
  H        0.1229620     2.7891690     0.0001530
  N        1.1742530     0.9863660    -0.0000120
  H        2.0766210     1.4468080     0.0000740
  C        1.2261220    -0.4021520    -0.0000880
  O        2.2745420    -1.0338450     0.0001200
units angstrom
no_reorient  #important for SAPT in psi4, default
symmetry c1  #important for SAPT in psi4, default
}

set PROPERTIES_ORIGIN ["COM"]
properties('MP2/aug-cc-pvtz', properties = ['dipole'])
--------------------------------------------------------------------------

    Molecular point group: c1
  Charge       = 0
  Multiplicity = 1
  Basis Set: AUG-CC-PVTZ
    Blend: AUG-CC-PVTZ
  Basis Set: (AUG-CC-PVTZ AUX)
    Blend: AUG-CC-PVTZ-JKFIT

    Orbital Energies [Eh]
    ---------------------

    Doubly Occupied:

       1A    -20.547342     2A    -20.545967     3A    -15.647830
       4A    -15.628307     5A    -11.421741     6A    -11.387135
       7A    -11.345599     8A    -11.260766     9A     -1.430422
      10A     -1.394123    11A     -1.309508    12A     -1.242383
      13A     -1.088728    14A     -0.934088    15A     -0.895621
      16A     -0.806356    17A     -0.763029    18A     -0.717783
      19A     -0.677394    20A     -0.664949    21A     -0.651620
      22A     -0.615570    23A     -0.602594    24A     -0.567845
      25A     -0.525140    26A     -0.483677    27A     -0.450196
      28A     -0.436619    29A     -0.371006

  @DF-RHF Final Energy:  -412.62087525943167

   => Energetics <=

    Nuclear Repulsion Energy =            355.0026696821009864
    One-Electron Energy =               -1266.4204183259632828
    Two-Electron Energy =                 498.7968733844306257
    Total Energy =                       -412.6208752594316707
  Basis Set: (AUG-CC-PVTZ AUX)
    Blend: AUG-CC-PVTZ-RI
    Molecular point group: c1

    Geometry (in Angstrom), charge = 0, multiplicity = 1:

       Center              X                  Y                   Z               Mass
    ------------   -----------------  -----------------  -----------------  -----------------
         N           -0.024542626232    -0.962945637944    -0.000100294705    14.003074004430
         H           -0.047639126232    -1.957963237944     0.000027005295     1.007825032230
         C           -1.293482126232    -0.310503237944    -0.000275994705    12.000000000000
         O           -2.324869126232    -0.975957237944     0.000187005295    15.994914619570
         C           -1.207304126232     1.144132762056     0.000004005295    12.000000000000
         H           -2.127194126232     1.713718762056     0.000188005295     1.007825032230
         C            0.001990873768     1.747889762056     0.000030005295    12.000000000000
         H            0.121885873768     2.826504762056     0.000157005295     1.007825032230
         N            1.173176873768     1.023701762056    -0.000007994705    14.003074004430
         H            2.075544873768     1.484143762056     0.000078005295     1.007825032230
         C            1.225045873768    -0.364816237944    -0.000083994705    12.000000000000
         O            2.273465873768    -0.996509237944     0.000124005295    15.994914619570

  Basis Set: AUG-CC-PVTZ
    Blend: AUG-CC-PVTZ
  Basis Set: (AUG-CC-PVTZ AUX)
    Blend: AUG-CC-PVTZ-JKFIT
	 Reference Energy          =    -412.6208752594316707 [Eh]
	 Singles Energy            =      -0.0000000000000000 [Eh]
	 Same-Spin Energy          =      -0.4143980129158253 [Eh]
	 Opposite-Spin Energy      =      -1.2280068000003794 [Eh]
	 Correlation Energy        =      -1.6424048129162048 [Eh]
	 Total Energy              =    -414.2632800723478681 [Eh]

	 ================> DF-SCS-MP2 Energies <==================
	-----------------------------------------------------------
	 SCS Same-Spin Scale       =       0.3333333333333333 [-]
	 SCS Opposite-Spin Scale   =       1.2000000000000000 [-]
	 SCS Same-Spin Energy      =      -0.1381326709719418 [Eh]
	 SCS Opposite-Spin Energy  =      -1.4736081600004554 [Eh]
	 SCS Correlation Energy    =      -1.6117408309723971 [Eh]
	 SCS Total Energy          =    -414.2326160904040648 [Eh]
	-----------------------------------------------------------

  Dipole Moment: [D]
     X:     1.0854      Y:     4.2355      Z:    -0.0005     Total:     4.3724

*** Psi4 exiting successfully. Buy a developer a beer!
