                               Psi4 1.4a3.dev225

  ==> Input File <==

--------------------------------------------------------------------------
#psi4
#
memory 32 gb

molecule  {
0 1
  N        0.0336940    -0.9783750    -0.0000010
  H        0.0471450    -1.9953050    -0.0000010
  C        1.2925930    -0.3474800     0.0000000
  O        2.3237090    -1.0134020     0.0000010
  C        1.2062870     1.1068390     0.0000000
  H        2.1256600     1.6771670     0.0000010
  C       -0.0033680     1.7103630     0.0000000
  H       -0.1172308     2.7393583     0.0000000
  N       -1.1742180     0.9864080    -0.0000010
  H       -2.0766200     1.4467250     0.0000010
  C       -1.2259650    -0.4025210     0.0000010
  O       -2.2745920    -1.0337330     0.0000010
units angstrom
no_reorient  #important for SAPT in psi4, default
symmetry c1  #important for SAPT in psi4, default
}

set PROPERTIES_ORIGIN ["COM"]
properties('MP2/aug-cc-pvtz', properties = ['dipole'])
--------------------------------------------------------------------------

    Molecular point group: c1
  Charge       = 0
  Multiplicity = 1
  Basis Set: AUG-CC-PVTZ
    Blend: AUG-CC-PVTZ
  Basis Set: (AUG-CC-PVTZ AUX)
    Blend: AUG-CC-PVTZ-JKFIT

    Orbital Energies [Eh]
    ---------------------

    Doubly Occupied:

       1A    -20.549419     2A    -20.544096     3A    -15.646991
       4A    -15.630721     5A    -11.422967     6A    -11.385166
       7A    -11.339229     8A    -11.259643     9A     -1.431648
      10A     -1.394028    11A     -1.310871    12A     -1.243775
      13A     -1.089562    14A     -0.936620    15A     -0.901192
      16A     -0.804916    17A     -0.763793    18A     -0.721929
      19A     -0.677388    20A     -0.666532    21A     -0.653433
      22A     -0.615539    23A     -0.602309    24A     -0.568818
      25A     -0.524994    26A     -0.484597    27A     -0.450739
      28A     -0.437340    29A     -0.370403

  @DF-RHF Final Energy:  -412.62021294505246

   => Energetics <=

    Nuclear Repulsion Energy =            355.6425796037755163
    One-Electron Energy =               -1267.6682681587049046
    Two-Electron Energy =                 499.4054756098769303
    Total Energy =                       -412.6202129450524581
  Basis Set: (AUG-CC-PVTZ AUX)
    Blend: AUG-CC-PVTZ-RI
    Molecular point group: c1

    Geometry (in Angstrom), charge = 0, multiplicity = 1:

       Center              X                  Y                   Z               Mass
    ------------   -----------------  -----------------  -----------------  -----------------
         N            0.033442866864    -0.943324261987    -0.000001151673    14.003074004430
         H            0.046893866864    -1.960254261987    -0.000001151673     1.007825032230
         C            1.292341866864    -0.312429261987    -0.000000151673    12.000000000000
         O            2.323457866864    -0.978351261987     0.000000848327    15.994914619570
         C            1.206035866864     1.141889738013    -0.000000151673    12.000000000000
         H            2.125408866864     1.712217738013     0.000000848327     1.007825032230
         C           -0.003619133136     1.745413738013    -0.000000151673    12.000000000000
         H           -0.117481933136     2.774409038013    -0.000000151673     1.007825032230
         N           -1.174469133136     1.021458738013    -0.000001151673    14.003074004430
         H           -2.076871133136     1.481775738013     0.000000848327     1.007825032230
         C           -1.226216133136    -0.367470261987     0.000000848327    12.000000000000
         O           -2.274843133136    -0.998682261987     0.000000848327    15.994914619570

  Basis Set: AUG-CC-PVTZ
    Blend: AUG-CC-PVTZ
  Basis Set: (AUG-CC-PVTZ AUX)
    Blend: AUG-CC-PVTZ-JKFIT
	 Reference Energy          =    -412.6202129450524581 [Eh]
	 Singles Energy            =      -0.0000000000000000 [Eh]
	 Same-Spin Energy          =      -0.4146201729992928 [Eh]
	 Opposite-Spin Energy      =      -1.2280488009917072 [Eh]
	 Correlation Energy        =      -1.6426689739909999 [Eh]
	 Total Energy              =    -414.2628819190434797 [Eh]

	 ================> DF-SCS-MP2 Energies <==================
	-----------------------------------------------------------
	 SCS Same-Spin Scale       =       0.3333333333333333 [-]
	 SCS Opposite-Spin Scale   =       1.2000000000000000 [-]
	 SCS Same-Spin Energy      =      -0.1382067243330976 [Eh]
	 SCS Opposite-Spin Energy  =      -1.4736585611900486 [Eh]
	 SCS Correlation Energy    =      -1.6118652855231461 [Eh]
	 SCS Total Energy          =    -414.2320782305756097 [Eh]
	-----------------------------------------------------------

  Dipole Moment: [D]
     X:    -1.1684      Y:     4.1910      Z:     0.0000     Total:     4.3508

*** Psi4 exiting successfully. Buy a developer a beer!
