                               Psi4 1.3.2 release

  ==> Input File <==

--------------------------------------------------------------------------
#psi4
#
memory 32 gb

molecule  {
0 1
  N       -0.0337150    -0.9783820    -0.0001030
  H       -0.0465630    -1.9952990     0.0000230
  C       -1.2924060    -0.3478390    -0.0002800
  O       -2.3237930    -1.0132930     0.0001830
  C       -1.2062280     1.1067970     0.0000000
  H       -2.1261180     1.6763830     0.0001840
  C        0.0030670     1.7105540     0.0000260
  H        0.1229620     2.7891690     0.0001530
  N        1.1742530     0.9863660    -0.0000120
  H        2.0766210     1.4468080     0.0000740
  C        1.2261220    -0.4021520    -0.0000880
  O        2.1032341    -0.9306287     0.0000860
units angstrom
no_reorient  #important for SAPT in psi4, default
symmetry c1  #important for SAPT in psi4, default
}

set PROPERTIES_ORIGIN ["COM"]
properties('MP2/aug-cc-pvtz', properties = ['dipole'])
--------------------------------------------------------------------------

    Molecular point group: c1
  Charge       = 0
  Multiplicity = 1
  Basis Set: AUG-CC-PVTZ
    Blend: AUG-CC-PVTZ
  Basis Set: (AUG-CC-PVTZ AUX)
    Blend: AUG-CC-PVTZ-JKFIT

    Orbital Energies [Eh]
    ---------------------

    Doubly Occupied:

       1A    -20.554459     2A    -20.530160     3A    -15.621793
       4A    -15.604229     5A    -11.383228     6A    -11.369836
       7A    -11.331079     8A    -11.244185     9A     -1.570384
      10A     -1.386118    11A     -1.307995    12A     -1.230305
      13A     -1.073449    14A     -0.923992    15A     -0.883836
      16A     -0.788702    17A     -0.773454    18A     -0.723927
      19A     -0.711301    20A     -0.691972    21A     -0.657364
      22A     -0.612697    23A     -0.593964    24A     -0.578513
      25A     -0.532211    26A     -0.497564    27A     -0.438726
      28A     -0.432939    29A     -0.358353

  @DF-RHF Final Energy:  -412.55852879796538

   => Energetics <=

    Nuclear Repulsion Energy =            363.0951274693605342
    One-Electron Energy =               -1282.4938377545242929
    Two-Electron Energy =                 506.8401814871984357
    Total Energy =                       -412.5585287979653799
  Basis Set: (AUG-CC-PVTZ AUX)
    Blend: AUG-CC-PVTZ-RI
    Molecular point group: c1

    Geometry (in Angstrom), charge = 0, multiplicity = 1:

       Center              X                  Y                   Z               Mass
    ------------   -----------------  -----------------  -----------------  -----------------
         N           -0.009051272461    -0.958520507341    -0.000094302784    14.003074004430
         H           -0.021899272461    -1.975437507341     0.000031697216     1.007825032230
         C           -1.267742272461    -0.327977507341    -0.000271302784    12.000000000000
         O           -2.299129272461    -0.993431507341     0.000191697216    15.994914619570
         C           -1.181564272461     1.126658492659     0.000008697216    12.000000000000
         H           -2.101454272461     1.696244492659     0.000192697216     1.007825032230
         C            0.027730727539     1.730415492659     0.000034697216    12.000000000000
         H            0.147625727539     2.809030492659     0.000161697216     1.007825032230
         N            1.198916727539     1.006227492659    -0.000003302784    14.003074004430
         H            2.101284727539     1.466669492659     0.000082697216     1.007825032230
         C            1.250785727539    -0.382290507341    -0.000079302784    12.000000000000
         O            2.127897827539    -0.910767207341     0.000094697216    15.994914619570

  Basis Set: AUG-CC-PVTZ
    Blend: AUG-CC-PVTZ
  Basis Set: (AUG-CC-PVTZ AUX)
    Blend: AUG-CC-PVTZ-JKFIT
	 Reference Energy          =    -412.5585287979653799 [Eh]
	 Singles Energy            =      -0.0000000000000000 [Eh]
	 Same-Spin Energy          =      -0.4097679934938726 [Eh]
	 Opposite-Spin Energy      =      -1.2163267659762300 [Eh]
	 Correlation Energy        =      -1.6260947594701025 [Eh]
	 Total Energy              =    -414.1846235574354864 [Eh]

	 ================> DF-SCS-MP2 Energies <==================
	-----------------------------------------------------------
	 SCS Same-Spin Scale       =       0.3333333333333333 [-]
	 SCS Opposite-Spin Scale   =       1.2000000000000000 [-]
	 SCS Same-Spin Energy      =      -0.1365893311646242 [Eh]
	 SCS Opposite-Spin Energy  =      -1.4595921191714760 [Eh]
	 SCS Correlation Energy    =      -1.5961814503361003 [Eh]
	 SCS Total Energy          =    -414.1547102483014555 [Eh]
	-----------------------------------------------------------

  Dipole Moment: [D]
     X:     2.6192      Y:     3.3939      Z:    -0.0004     Total:     4.2870

*** Psi4 exiting successfully. Buy a developer a beer!
