                               Psi4 1.3.2 release

  ==> Input File <==

--------------------------------------------------------------------------
#psi4
#
memory 32 gb

molecule  {
0 1
  N       -0.0124761    -0.9340702    -0.0000902
  H       -0.0465630    -1.9952990     0.0000230
  C       -1.2924060    -0.3478390    -0.0002800
  O       -2.3237930    -1.0132930     0.0001830
  C       -1.2062280     1.1067970     0.0000000
  H       -2.1261180     1.6763830     0.0001840
  C        0.0030670     1.7105540     0.0000260
  H        0.1229620     2.7891690     0.0001530
  N        1.1742530     0.9863660    -0.0000120
  H        2.0766210     1.4468080     0.0000740
  C        1.2261220    -0.4021520    -0.0000880
  O        2.2745420    -1.0338450     0.0001200
units angstrom
no_reorient  #important for SAPT in psi4, default
symmetry c1  #important for SAPT in psi4, default
}

set PROPERTIES_ORIGIN ["COM"]
properties('MP2/aug-cc-pvtz', properties = ['dipole'])
--------------------------------------------------------------------------

    Molecular point group: c1
  Charge       = 0
  Multiplicity = 1
  Basis Set: AUG-CC-PVTZ
    Blend: AUG-CC-PVTZ
  Basis Set: (AUG-CC-PVTZ AUX)
    Blend: AUG-CC-PVTZ-JKFIT

    Orbital Energies [Eh]
    ---------------------

    Doubly Occupied:

       1A    -20.548321     2A    -20.546086     3A    -15.644652
       4A    -15.634738     5A    -11.419179     6A    -11.388320
       7A    -11.343925     8A    -11.258393     9A     -1.433802
      10A     -1.395471    11A     -1.312403    12A     -1.246724
      13A     -1.089162    14A     -0.928816    15A     -0.912433
      16A     -0.800676    17A     -0.763758    18A     -0.704996
      19A     -0.676646    20A     -0.671113    21A     -0.651661
      22A     -0.616841    23A     -0.594967    24A     -0.569013
      25A     -0.525083    26A     -0.482936    27A     -0.453465
      28A     -0.439734    29A     -0.369875

  @DF-RHF Final Energy:  -412.61609342016106

   => Energetics <=

    Nuclear Repulsion Energy =            356.1763834570684253
    One-Electron Energy =               -1268.7385743354057013
    Two-Electron Energy =                 499.9460974581762684
    Total Energy =                       -412.6160934201610644
  Basis Set: (AUG-CC-PVTZ AUX)
    Blend: AUG-CC-PVTZ-RI
    Molecular point group: c1

    Geometry (in Angstrom), charge = 0, multiplicity = 1:

       Center              X                  Y                   Z               Mass
    ------------   -----------------  -----------------  -----------------  -----------------
         N           -0.014925993301    -0.905010639555    -0.000087957163    14.003074004430
         H           -0.049012893301    -1.966239439555     0.000025242837     1.007825032230
         C           -1.294855893301    -0.318779439555    -0.000277757163    12.000000000000
         O           -2.326242893301    -0.984233439555     0.000185242837    15.994914619570
         C           -1.208677893301     1.135856560445     0.000002242837    12.000000000000
         H           -2.128567893301     1.705442560445     0.000186242837     1.007825032230
         C            0.000617106699     1.739613560445     0.000028242837    12.000000000000
         H            0.120512106699     2.818228560445     0.000155242837     1.007825032230
         N            1.171803106699     1.015425560445    -0.000009757163    14.003074004430
         H            2.074171106699     1.475867560445     0.000076242837     1.007825032230
         C            1.223672106699    -0.373092439555    -0.000085757163    12.000000000000
         O            2.272092106699    -1.004785439555     0.000122242837    15.994914619570

  Basis Set: AUG-CC-PVTZ
    Blend: AUG-CC-PVTZ
  Basis Set: (AUG-CC-PVTZ AUX)
    Blend: AUG-CC-PVTZ-JKFIT
	 Reference Energy          =    -412.6160934201610644 [Eh]
	 Singles Energy            =      -0.0000000000000000 [Eh]
	 Same-Spin Energy          =      -0.4155055002064397 [Eh]
	 Opposite-Spin Energy      =      -1.2292252368482650 [Eh]
	 Correlation Energy        =      -1.6447307370547048 [Eh]
	 Total Energy              =    -414.2608241572157795 [Eh]

	 ================> DF-SCS-MP2 Energies <==================
	-----------------------------------------------------------
	 SCS Same-Spin Scale       =       0.3333333333333333 [-]
	 SCS Opposite-Spin Scale   =       1.2000000000000000 [-]
	 SCS Same-Spin Energy      =      -0.1385018334021466 [Eh]
	 SCS Opposite-Spin Energy  =      -1.4750702842179180 [Eh]
	 SCS Correlation Energy    =      -1.6135721176200646 [Eh]
	 SCS Total Energy          =    -414.2296655377811021 [Eh]
	-----------------------------------------------------------

  Dipole Moment: [D]
     X:     1.0201      Y:     4.1220      Z:    -0.0005     Total:     4.2463

*** Psi4 exiting successfully. Buy a developer a beer!
