                               Psi4 1.3.2 release

  ==> Input File <==

--------------------------------------------------------------------------
#psi4
#
memory 32 gb

molecule  {
0 1
  N       -0.0337150    -0.9783820    -0.0001030
  H       -0.0465630    -1.9952990     0.0000230
  C       -1.2924060    -0.3478390    -0.0002800
  O       -2.3237930    -1.0132930     0.0001830
  C       -1.2062280     1.1067970     0.0000000
  H       -2.1261180     1.6763830     0.0001840
  C        0.0030670     1.7105540     0.0000260
  H        0.1008668     2.5903932     0.0001296
  N        1.1742530     0.9863660    -0.0000120
  H        2.0766210     1.4468080     0.0000740
  C        1.2261220    -0.4021520    -0.0000880
  O        2.2745420    -1.0338450     0.0001200
units angstrom
no_reorient  #important for SAPT in psi4, default
symmetry c1  #important for SAPT in psi4, default
}

set PROPERTIES_ORIGIN ["COM"]
properties('MP2/aug-cc-pvtz', properties = ['dipole'])
--------------------------------------------------------------------------

    Molecular point group: c1
  Charge       = 0
  Multiplicity = 1
  Basis Set: AUG-CC-PVTZ
    Blend: AUG-CC-PVTZ
  Basis Set: (AUG-CC-PVTZ AUX)
    Blend: AUG-CC-PVTZ-JKFIT

    Orbital Energies [Eh]
    ---------------------

    Doubly Occupied:

       1A    -20.549094     2A    -20.544193     3A    -15.646345
       4A    -15.630709     5A    -11.422591     6A    -11.384966
       7A    -11.322676     8A    -11.259964     9A     -1.431423
      10A     -1.394047    11A     -1.311780    12A     -1.244443
      13A     -1.095427    14A     -0.954937    15A     -0.901658
      16A     -0.805160    17A     -0.770083    18A     -0.745563
      19A     -0.678223    20A     -0.666307    21A     -0.655275
      22A     -0.618135    23A     -0.604676    24A     -0.568752
      25A     -0.524892    26A     -0.485193    27A     -0.450920
      28A     -0.437233    29A     -0.370524

  @DF-RHF Final Energy:  -412.58567731936711

   => Energetics <=

    Nuclear Repulsion Energy =            356.5604787412457881
    One-Electron Energy =               -1269.3419361987441789
    Two-Electron Energy =                 500.1957801381312834
    Total Energy =                       -412.5856773193671074
  Basis Set: (AUG-CC-PVTZ AUX)
    Blend: AUG-CC-PVTZ-RI
    Molecular point group: c1

    Geometry (in Angstrom), charge = 0, multiplicity = 1:

       Center              X                  Y                   Z               Mass
    ------------   -----------------  -----------------  -----------------  -----------------
         N           -0.033311320568    -0.941995361178    -0.000098946689    14.003074004430
         H           -0.046159320568    -1.958912361178     0.000027053311     1.007825032230
         C           -1.292002320568    -0.311452361178    -0.000275946689    12.000000000000
         O           -2.323389320568    -0.976906361178     0.000187053311    15.994914619570
         C           -1.205824320568     1.143183638822     0.000004053311    12.000000000000
         H           -2.125714320568     1.712769638822     0.000188053311     1.007825032230
         C            0.003470679432     1.746940638822     0.000030053311    12.000000000000
         H            0.101270479432     2.626779838822     0.000133653311     1.007825032230
         N            1.174656679432     1.022752638822    -0.000007946689    14.003074004430
         H            2.077024679432     1.483194638822     0.000078053311     1.007825032230
         C            1.226525679432    -0.365765361178    -0.000083946689    12.000000000000
         O            2.274945679432    -0.997458361178     0.000124053311    15.994914619570

  Basis Set: AUG-CC-PVTZ
    Blend: AUG-CC-PVTZ
  Basis Set: (AUG-CC-PVTZ AUX)
    Blend: AUG-CC-PVTZ-JKFIT
	 Reference Energy          =    -412.5856773193671074 [Eh]
	 Singles Energy            =      -0.0000000000000000 [Eh]
	 Same-Spin Energy          =      -0.4144751129838676 [Eh]
	 Opposite-Spin Energy      =      -1.2278849309052493 [Eh]
	 Correlation Energy        =      -1.6423600438891168 [Eh]
	 Total Energy              =    -414.2280373632562487 [Eh]

	 ================> DF-SCS-MP2 Energies <==================
	-----------------------------------------------------------
	 SCS Same-Spin Scale       =       0.3333333333333333 [-]
	 SCS Opposite-Spin Scale   =       1.2000000000000000 [-]
	 SCS Same-Spin Energy      =      -0.1381583709946225 [Eh]
	 SCS Opposite-Spin Energy  =      -1.4734619170862990 [Eh]
	 SCS Correlation Energy    =      -1.6116202880809216 [Eh]
	 SCS Total Energy          =    -414.1972976074480357 [Eh]
	-----------------------------------------------------------

  Dipole Moment: [D]
     X:     1.1535      Y:     4.1698      Z:    -0.0005     Total:     4.3264

*** Psi4 exiting successfully. Buy a developer a beer!
