                               Psi4 1.3.2 release

  ==> Input File <==

--------------------------------------------------------------------------
#psi4
#
memory 32 gb

molecule  {
0 1
  N       -0.0337150    -0.9783820    -0.0001030
  H       -0.0465630    -1.9952990     0.0000230
  C       -1.2453554    -0.2615731    -0.0002881
  O       -2.3237930    -1.0132930     0.0001830
  C       -1.2062280     1.1067970     0.0000000
  H       -2.1261180     1.6763830     0.0001840
  C        0.0030670     1.7105540     0.0000260
  H        0.1229620     2.7891690     0.0001530
  N        1.1742530     0.9863660    -0.0000120
  H        2.0766210     1.4468080     0.0000740
  C        1.2261220    -0.4021520    -0.0000880
  O        2.2745420    -1.0338450     0.0001200
units angstrom
no_reorient  #important for SAPT in psi4, default
symmetry c1  #important for SAPT in psi4, default
}

set PROPERTIES_ORIGIN ["COM"]
properties('MP2/aug-cc-pvtz', properties = ['dipole'])
--------------------------------------------------------------------------

    Molecular point group: c1
  Charge       = 0
  Multiplicity = 1
  Basis Set: AUG-CC-PVTZ
    Blend: AUG-CC-PVTZ
  Basis Set: (AUG-CC-PVTZ AUX)
    Blend: AUG-CC-PVTZ-JKFIT

    Orbital Energies [Eh]
    ---------------------

    Doubly Occupied:

       1A    -20.552591     2A    -20.525898     3A    -15.657841
       4A    -15.636443     5A    -11.425131     6A    -11.383255
       7A    -11.359265     8A    -11.260479     9A     -1.434683
      10A     -1.351321    11A     -1.310345    12A     -1.236778
      13A     -1.110353    14A     -0.949939    15A     -0.898905
      16A     -0.815800    17A     -0.772744    18A     -0.722770
      19A     -0.673671    20A     -0.671214    21A     -0.659064
      22A     -0.610452    23A     -0.584337    24A     -0.552193
      25A     -0.531863    26A     -0.484520    27A     -0.437733
      28A     -0.427365    29A     -0.373971

  @DF-RHF Final Energy:  -412.59826848500711

   => Energetics <=

    Nuclear Repulsion Energy =            355.6544648941542164
    One-Electron Energy =               -1267.6836216482129203
    Two-Electron Energy =                 499.4308882690515929
    Total Energy =                       -412.5982684850071109
  Basis Set: (AUG-CC-PVTZ AUX)
    Blend: AUG-CC-PVTZ-RI
    Molecular point group: c1

    Geometry (in Angstrom), charge = 0, multiplicity = 1:

       Center              X                  Y                   Z               Mass
    ------------   -----------------  -----------------  -----------------  -----------------
         N           -0.038550002694    -0.953024121816    -0.000098289555    14.003074004430
         H           -0.051398002694    -1.969941121816     0.000027710445     1.007825032230
         C           -1.250190402694    -0.236215221816    -0.000283389555    12.000000000000
         O           -2.328628002694    -0.987935121816     0.000187710445    15.994914619570
         C           -1.211063002694     1.132154878184     0.000004710445    12.000000000000
         H           -2.130953002694     1.701740878184     0.000188710445     1.007825032230
         C           -0.001768002694     1.735911878184     0.000030710445    12.000000000000
         H            0.118126997306     2.814526878184     0.000157710445     1.007825032230
         N            1.169417997306     1.011723878184    -0.000007289555    14.003074004430
         H            2.071785997306     1.472165878184     0.000078710445     1.007825032230
         C            1.221286997306    -0.376794121816    -0.000083289555    12.000000000000
         O            2.269706997306    -1.008487121816     0.000124710445    15.994914619570

  Basis Set: AUG-CC-PVTZ
    Blend: AUG-CC-PVTZ
  Basis Set: (AUG-CC-PVTZ AUX)
    Blend: AUG-CC-PVTZ-JKFIT
	 Reference Energy          =    -412.5982684850071109 [Eh]
	 Singles Energy            =      -0.0000000000000000 [Eh]
	 Same-Spin Energy          =      -0.4176125674358424 [Eh]
	 Opposite-Spin Energy      =      -1.2331053295882948 [Eh]
	 Correlation Energy        =      -1.6507178970241372 [Eh]
	 Total Energy              =    -414.2489863820312621 [Eh]

	 ================> DF-SCS-MP2 Energies <==================
	-----------------------------------------------------------
	 SCS Same-Spin Scale       =       0.3333333333333333 [-]
	 SCS Opposite-Spin Scale   =       1.2000000000000000 [-]
	 SCS Same-Spin Energy      =      -0.1392041891452808 [Eh]
	 SCS Opposite-Spin Energy  =      -1.4797263955059536 [Eh]
	 SCS Correlation Energy    =      -1.6189305846512345 [Eh]
	 SCS Total Energy          =    -414.2171990696583634 [Eh]
	-----------------------------------------------------------

  Dipole Moment: [D]
     X:     1.6893      Y:     4.7015      Z:    -0.0005     Total:     4.9958

*** Psi4 exiting successfully. Buy a developer a beer!
