                               Psi4 1.3.2 release

  ==> Input File <==

--------------------------------------------------------------------------
#psi4
#
memory 32 gb

molecule  {
0 1
  N       -0.0435797    -0.9563071    -0.0001017
  H       -0.0465630    -1.9952990     0.0000230
  C       -1.2924060    -0.3478390    -0.0002800
  O       -2.3237930    -1.0132930     0.0001830
  C       -1.2062280     1.1067970     0.0000000
  H       -2.1261180     1.6763830     0.0001840
  C        0.0030670     1.7105540     0.0000260
  H        0.1229620     2.7891690     0.0001530
  N        1.1742530     0.9863660    -0.0000120
  H        2.0766210     1.4468080     0.0000740
  C        1.2261220    -0.4021520    -0.0000880
  O        2.2745420    -1.0338450     0.0001200
units angstrom
no_reorient  #important for SAPT in psi4, default
symmetry c1  #important for SAPT in psi4, default
}

set PROPERTIES_ORIGIN ["COM"]
properties('MP2/aug-cc-pvtz', properties = ['dipole'])
--------------------------------------------------------------------------

    Molecular point group: c1
  Charge       = 0
  Multiplicity = 1
  Basis Set: AUG-CC-PVTZ
    Blend: AUG-CC-PVTZ
  Basis Set: (AUG-CC-PVTZ AUX)
    Blend: AUG-CC-PVTZ-JKFIT

    Orbital Energies [Eh]
    ---------------------

    Doubly Occupied:

       1A    -20.551788     2A    -20.542338     3A    -15.646787
       4A    -15.633159     5A    -11.424686     6A    -11.383467
       7A    -11.343596     8A    -11.258787     9A     -1.433140
      10A     -1.394178    11A     -1.312046    12A     -1.245030
      13A     -1.088215    14A     -0.930493    15A     -0.906882
      16A     -0.803410    17A     -0.763138    18A     -0.709121
      19A     -0.676493    20A     -0.668483    21A     -0.653426
      22A     -0.613986    23A     -0.598341    24A     -0.570134
      25A     -0.524885    26A     -0.485127    27A     -0.450991
      28A     -0.438142    29A     -0.370091

  @DF-RHF Final Energy:  -412.61939162066341

   => Energetics <=

    Nuclear Repulsion Energy =            355.7470067378931162
    One-Electron Energy =               -1267.8920746442295240
    Two-Electron Energy =                 499.5256762856730006
    Total Energy =                       -412.6193916206634071
  Basis Set: (AUG-CC-PVTZ AUX)
    Blend: AUG-CC-PVTZ-RI
    Molecular point group: c1

    Geometry (in Angstrom), charge = 0, multiplicity = 1:

       Center              X                  Y                   Z               Mass
    ------------   -----------------  -----------------  -----------------  -----------------
         N           -0.042141736497    -0.924467993684    -0.000098019697    14.003074004430
         H           -0.045125036497    -1.963459893684     0.000026680303     1.007825032230
         C           -1.290968036497    -0.315999893684    -0.000276319697    12.000000000000
         O           -2.322355036497    -0.981453893684     0.000186680303    15.994914619570
         C           -1.204790036497     1.138636106316     0.000003680303    12.000000000000
         H           -2.124680036497     1.708222106316     0.000187680303     1.007825032230
         C            0.004504963503     1.742393106316     0.000029680303    12.000000000000
         H            0.124399963503     2.821008106316     0.000156680303     1.007825032230
         N            1.175690963503     1.018205106316    -0.000008319697    14.003074004430
         H            2.078058963503     1.478647106316     0.000077680303     1.007825032230
         C            1.227559963503    -0.370312893684    -0.000084319697    12.000000000000
         O            2.275979963503    -1.002005893684     0.000123680303    15.994914619570

  Basis Set: AUG-CC-PVTZ
    Blend: AUG-CC-PVTZ
  Basis Set: (AUG-CC-PVTZ AUX)
    Blend: AUG-CC-PVTZ-JKFIT
	 Reference Energy          =    -412.6193916206634071 [Eh]
	 Singles Energy            =      -0.0000000000000000 [Eh]
	 Same-Spin Energy          =      -0.4150955001215421 [Eh]
	 Opposite-Spin Energy      =      -1.2288051870934305 [Eh]
	 Correlation Energy        =      -1.6439006872149724 [Eh]
	 Total Energy              =    -414.2632923078783733 [Eh]

	 ================> DF-SCS-MP2 Energies <==================
	-----------------------------------------------------------
	 SCS Same-Spin Scale       =       0.3333333333333333 [-]
	 SCS Opposite-Spin Scale   =       1.2000000000000000 [-]
	 SCS Same-Spin Energy      =      -0.1383651667071807 [Eh]
	 SCS Opposite-Spin Energy  =      -1.4745662245121165 [Eh]
	 SCS Correlation Energy    =      -1.6129313912192971 [Eh]
	 SCS Total Energy          =    -414.2323230118827269 [Eh]
	-----------------------------------------------------------

  Dipole Moment: [D]
     X:     1.2579      Y:     4.1520      Z:    -0.0005     Total:     4.3384

*** Psi4 exiting successfully. Buy a developer a beer!
