                               Psi4 1.3.2 release

  ==> Input File <==

--------------------------------------------------------------------------
#psi4
#
memory 32 gb

molecule  {
0 1
  N       -0.0337150    -0.9783820    -0.0001030
  H       -0.0465630    -1.9952990     0.0000230
  C       -1.2924060    -0.3478390    -0.0002800
  O       -2.3237930    -1.0132930     0.0001830
  C       -1.2062280     1.1067970     0.0000000
  H       -2.1261180     1.6763830     0.0001840
  C        0.0030670     1.7105540     0.0000260
  H        0.1229620     2.7891690     0.0001530
  N        1.1742530     0.9863660    -0.0000120
  H        2.0766210     1.4468080     0.0000740
  C        1.2261220    -0.4021520    -0.0000880
  O        2.4458499    -1.1370613     0.0001540
units angstrom
no_reorient  #important for SAPT in psi4, default
symmetry c1  #important for SAPT in psi4, default
}

set PROPERTIES_ORIGIN ["COM"]
properties('MP2/aug-cc-pvtz', properties = ['dipole'])
--------------------------------------------------------------------------

    Molecular point group: c1
  Charge       = 0
  Multiplicity = 1
  Basis Set: AUG-CC-PVTZ
    Blend: AUG-CC-PVTZ
  Basis Set: (AUG-CC-PVTZ AUX)
    Blend: AUG-CC-PVTZ-JKFIT

    Orbital Energies [Eh]
    ---------------------

    Doubly Occupied:

       1A    -20.555925     2A    -20.541493     3A    -15.668057
       4A    -15.652569     5A    -11.448276     6A    -11.397852
       7A    -11.355557     8A    -11.273841     9A     -1.417505
      10A     -1.369765    11A     -1.268316    12A     -1.245082
      13A     -1.101322    14A     -0.944937    15A     -0.915678
      16A     -0.819264    17A     -0.767078    18A     -0.724969
      19A     -0.683579    20A     -0.663180    21A     -0.635390
      22A     -0.615015    23A     -0.579704    24A     -0.572582
      25A     -0.507883    26A     -0.470799    27A     -0.445991
      28A     -0.429868    29A     -0.380099

  @DF-RHF Final Energy:  -412.56410430576409

   => Energetics <=

    Nuclear Repulsion Energy =            349.1529547939842359
    One-Electron Energy =               -1254.5309649996736425
    Two-Electron Energy =                 492.8139058999253166
    Total Energy =                       -412.5641043057640900
  Basis Set: (AUG-CC-PVTZ AUX)
    Blend: AUG-CC-PVTZ-RI
    Molecular point group: c1

    Geometry (in Angstrom), charge = 0, multiplicity = 1:

       Center              X                  Y                   Z               Mass
    ------------   -----------------  -----------------  -----------------  -----------------
         N           -0.057968916419    -0.929046687313    -0.000104011618    14.003074004430
         H           -0.070816916419    -1.945963687313     0.000021988382     1.007825032230
         C           -1.316659916419    -0.298503687313    -0.000281011618    12.000000000000
         O           -2.348046916419    -0.963957687313     0.000181988382    15.994914619570
         C           -1.230481916419     1.156132312687    -0.000001011618    12.000000000000
         H           -2.150371916419     1.725718312687     0.000182988382     1.007825032230
         C           -0.021186916419     1.759889312687     0.000024988382    12.000000000000
         H            0.098708083581     2.838504312687     0.000151988382     1.007825032230
         N            1.149999083581     1.035701312687    -0.000013011618    14.003074004430
         H            2.052367083581     1.496143312687     0.000072988382     1.007825032230
         C            1.201868083581    -0.352816687313    -0.000089011618    12.000000000000
         O            2.421595983581    -1.087725987313     0.000152988382    15.994914619570

  Basis Set: AUG-CC-PVTZ
    Blend: AUG-CC-PVTZ
  Basis Set: (AUG-CC-PVTZ AUX)
    Blend: AUG-CC-PVTZ-JKFIT
	 Reference Energy          =    -412.5641043057640900 [Eh]
	 Singles Energy            =      -0.0000000000000000 [Eh]
	 Same-Spin Energy          =      -0.4185872483355237 [Eh]
	 Opposite-Spin Energy      =      -1.2384014374204710 [Eh]
	 Correlation Energy        =      -1.6569886857559948 [Eh]
	 Total Energy              =    -414.2210929915200950 [Eh]

	 ================> DF-SCS-MP2 Energies <==================
	-----------------------------------------------------------
	 SCS Same-Spin Scale       =       0.3333333333333333 [-]
	 SCS Opposite-Spin Scale   =       1.2000000000000000 [-]
	 SCS Same-Spin Energy      =      -0.1395290827785079 [Eh]
	 SCS Opposite-Spin Energy  =      -1.4860817249045652 [Eh]
	 SCS Correlation Energy    =      -1.6256108076830731 [Eh]
	 SCS Total Energy          =    -414.1897151134471642 [Eh]
	-----------------------------------------------------------

  Dipole Moment: [D]
     X:    -0.1031      Y:     4.9000      Z:    -0.0006     Total:     4.9011

*** Psi4 exiting successfully. Buy a developer a beer!
