                               Psi4 1.3.2 release

  ==> Input File <==

--------------------------------------------------------------------------
#psi4
#
memory 32 gb

molecule  {
0 1
  N       -0.0337150    -0.9783820    -0.0001030
  H       -0.0465630    -1.9952990     0.0000230
  C       -1.2415874    -0.3499604    -0.0002843
  O       -2.3237930    -1.0132930     0.0001830
  C       -1.2062280     1.1067970     0.0000000
  H       -2.1261180     1.6763830     0.0001840
  C        0.0030670     1.7105540     0.0000260
  H        0.1229620     2.7891690     0.0001530
  N        1.1742530     0.9863660    -0.0000120
  H        2.0766210     1.4468080     0.0000740
  C        1.2261220    -0.4021520    -0.0000880
  O        2.2745420    -1.0338450     0.0001200
units angstrom
no_reorient  #important for SAPT in psi4, default
symmetry c1  #important for SAPT in psi4, default
}

set PROPERTIES_ORIGIN ["COM"]
properties('MP2/aug-cc-pvtz', properties = ['dipole'])
--------------------------------------------------------------------------

    Molecular point group: c1
  Charge       = 0
  Multiplicity = 1
  Basis Set: AUG-CC-PVTZ
    Blend: AUG-CC-PVTZ
  Basis Set: (AUG-CC-PVTZ AUX)
    Blend: AUG-CC-PVTZ-JKFIT

    Orbital Energies [Eh]
    ---------------------

    Doubly Occupied:

       1A    -20.554922     2A    -20.533853     3A    -15.650590
       4A    -15.639507     5A    -11.428444     6A    -11.384161
       7A    -11.344442     8A    -11.261612     9A     -1.437125
      10A     -1.372980    11A     -1.312217    12A     -1.252987
      13A     -1.090066    14A     -0.934987    15A     -0.912429
      16A     -0.811110    17A     -0.765538    18A     -0.719609
      19A     -0.675483    20A     -0.672789    21A     -0.653842
      22A     -0.608420    23A     -0.595434    24A     -0.563410
      25A     -0.528031    26A     -0.485826    27A     -0.445208
      28A     -0.435052    29A     -0.370217

  @DF-RHF Final Energy:  -412.61500068019609

   => Energetics <=

    Nuclear Repulsion Energy =            355.7089180040367182
    One-Electron Energy =               -1267.7672580942544300
    Two-Electron Energy =                 499.4433394100216219
    Total Energy =                       -412.6150006801960899
  Basis Set: (AUG-CC-PVTZ AUX)
    Blend: AUG-CC-PVTZ-RI
    Molecular point group: c1

    Geometry (in Angstrom), charge = 0, multiplicity = 1:

       Center              X                  Y                   Z               Mass
    ------------   -----------------  -----------------  -----------------  -----------------
         N           -0.038953618680    -0.943556359813    -0.000098696599    14.003074004430
         H           -0.051801618680    -1.960473359813     0.000027303401     1.007825032230
         C           -1.246826018680    -0.315134759813    -0.000279996599    12.000000000000
         O           -2.329031618680    -0.978467359813     0.000187303401    15.994914619570
         C           -1.211466618680     1.141622640187     0.000004303401    12.000000000000
         H           -2.131356618680     1.711208640187     0.000188303401     1.007825032230
         C           -0.002171618680     1.745379640187     0.000030303401    12.000000000000
         H            0.117723381320     2.823994640187     0.000157303401     1.007825032230
         N            1.169014381320     1.021191640187    -0.000007696599    14.003074004430
         H            2.071382381320     1.481633640187     0.000078303401     1.007825032230
         C            1.220883381320    -0.367326359813    -0.000083696599    12.000000000000
         O            2.269303381320    -0.999019359813     0.000124303401    15.994914619570

  Basis Set: AUG-CC-PVTZ
    Blend: AUG-CC-PVTZ
  Basis Set: (AUG-CC-PVTZ AUX)
    Blend: AUG-CC-PVTZ-JKFIT
	 Reference Energy          =    -412.6150006801960899 [Eh]
	 Singles Energy            =      -0.0000000000000000 [Eh]
	 Same-Spin Energy          =      -0.4155520371641895 [Eh]
	 Opposite-Spin Energy      =      -1.2298207887857031 [Eh]
	 Correlation Energy        =      -1.6453728259498925 [Eh]
	 Total Energy              =    -414.2603735061459815 [Eh]

	 ================> DF-SCS-MP2 Energies <==================
	-----------------------------------------------------------
	 SCS Same-Spin Scale       =       0.3333333333333333 [-]
	 SCS Opposite-Spin Scale   =       1.2000000000000000 [-]
	 SCS Same-Spin Energy      =      -0.1385173457213965 [Eh]
	 SCS Opposite-Spin Energy  =      -1.4757849465428436 [Eh]
	 SCS Correlation Energy    =      -1.6143022922642403 [Eh]
	 SCS Total Energy          =    -414.2293029724603457 [Eh]
	-----------------------------------------------------------

  Dipole Moment: [D]
     X:     1.5927      Y:     4.2271      Z:    -0.0005     Total:     4.5172

*** Psi4 exiting successfully. Buy a developer a beer!
