                               Psi4 1.3.2 release

  ==> Input File <==

--------------------------------------------------------------------------
#psi4
#
memory 32 gb

molecule  {
0 1
  N       -0.0337150    -0.9783820    -0.0001030
  H       -0.0465630    -1.9952990     0.0000230
  C       -1.2812098    -0.3259678    -0.0002821
  O       -2.3237930    -1.0132930     0.0001830
  C       -1.2062280     1.1067970     0.0000000
  H       -2.1261180     1.6763830     0.0001840
  C        0.0030670     1.7105540     0.0000260
  H        0.1229620     2.7891690     0.0001530
  N        1.1742530     0.9863660    -0.0000120
  H        2.0766210     1.4468080     0.0000740
  C        1.2261220    -0.4021520    -0.0000880
  O        2.2745420    -1.0338450     0.0001200
units angstrom
no_reorient  #important for SAPT in psi4, default
symmetry c1  #important for SAPT in psi4, default
}

set PROPERTIES_ORIGIN ["COM"]
properties('MP2/aug-cc-pvtz', properties = ['dipole'])
--------------------------------------------------------------------------

    Molecular point group: c1
  Charge       = 0
  Multiplicity = 1
  Basis Set: AUG-CC-PVTZ
    Blend: AUG-CC-PVTZ
  Basis Set: (AUG-CC-PVTZ AUX)
    Blend: AUG-CC-PVTZ-JKFIT

    Orbital Energies [Eh]
    ---------------------

    Doubly Occupied:

       1A    -20.550278     2A    -20.539850     3A    -15.649783
       4A    -15.632145     5A    -11.423606     6A    -11.385146
       7A    -11.348142     8A    -11.260202     9A     -1.432015
      10A     -1.381399    11A     -1.311624    12A     -1.242729
      13A     -1.093707    14A     -0.936643    15A     -0.900585
      16A     -0.807562    17A     -0.765323    18A     -0.715768
      19A     -0.675016    20A     -0.667563    21A     -0.653843
      22A     -0.608862    23A     -0.602452    24A     -0.563836
      25A     -0.526678    26A     -0.484609    27A     -0.448591
      28A     -0.434824    29A     -0.371938

  @DF-RHF Final Energy:  -412.61809480636663

   => Energetics <=

    Nuclear Repulsion Energy =            355.4185433596781536
    One-Electron Energy =               -1267.2438459669822350
    Two-Electron Energy =                 499.2072078009375105
    Total Energy =                       -412.6180948063666278
  Basis Set: (AUG-CC-PVTZ AUX)
    Blend: AUG-CC-PVTZ-RI
    Molecular point group: c1

    Geometry (in Angstrom), charge = 0, multiplicity = 1:

       Center              X                  Y                   Z               Mass
    ------------   -----------------  -----------------  -----------------  -----------------
         N           -0.034709395209    -0.946126369607    -0.000098932256    14.003074004430
         H           -0.047557395209    -1.963043369607     0.000027067744     1.007825032230
         C           -1.282204195209    -0.293712169607    -0.000278032256    12.000000000000
         O           -2.324787395209    -0.981037369607     0.000187067744    15.994914619570
         C           -1.207222395209     1.139052630393     0.000004067744    12.000000000000
         H           -2.127112395209     1.708638630393     0.000188067744     1.007825032230
         C            0.002072604791     1.742809630393     0.000030067744    12.000000000000
         H            0.121967604791     2.821424630393     0.000157067744     1.007825032230
         N            1.173258604791     1.018621630393    -0.000007932256    14.003074004430
         H            2.075626604791     1.479063630393     0.000078067744     1.007825032230
         C            1.225127604791    -0.369896369607    -0.000083932256    12.000000000000
         O            2.273547604791    -1.001589369607     0.000124067744    15.994914619570

  Basis Set: AUG-CC-PVTZ
    Blend: AUG-CC-PVTZ
  Basis Set: (AUG-CC-PVTZ AUX)
    Blend: AUG-CC-PVTZ-JKFIT
	 Reference Energy          =    -412.6180948063666278 [Eh]
	 Singles Energy            =      -0.0000000000000000 [Eh]
	 Same-Spin Energy          =      -0.4153964130624626 [Eh]
	 Opposite-Spin Energy      =      -1.2294537838081379 [Eh]
	 Correlation Energy        =      -1.6448501968706004 [Eh]
	 Total Energy              =    -414.2629450032372347 [Eh]

	 ================> DF-SCS-MP2 Energies <==================
	-----------------------------------------------------------
	 SCS Same-Spin Scale       =       0.3333333333333333 [-]
	 SCS Opposite-Spin Scale   =       1.2000000000000000 [-]
	 SCS Same-Spin Energy      =      -0.1384654710208209 [Eh]
	 SCS Opposite-Spin Energy  =      -1.4753445405697654 [Eh]
	 SCS Correlation Energy    =      -1.6138100115905862 [Eh]
	 SCS Total Energy          =    -414.2319048179572292 [Eh]
	-----------------------------------------------------------

  Dipole Moment: [D]
     X:     1.3040      Y:     4.3269      Z:    -0.0005     Total:     4.5191

*** Psi4 exiting successfully. Buy a developer a beer!
