                               Psi4 1.3.2 release

  ==> Input File <==

--------------------------------------------------------------------------
#psi4
#
memory 32 gb

molecule  {
0 1
  N       -0.0337150    -0.9783820    -0.0001030
  H       -0.0465630    -1.9952990     0.0000230
  C       -1.3333243    -0.4371768    -0.0002710
  O       -2.3237930    -1.0132930     0.0001830
  C       -1.2062280     1.1067970     0.0000000
  H       -2.1261180     1.6763830     0.0001840
  C        0.0030670     1.7105540     0.0000260
  H        0.1229620     2.7891690     0.0001530
  N        1.1742530     0.9863660    -0.0000120
  H        2.0766210     1.4468080     0.0000740
  C        1.2261220    -0.4021520    -0.0000880
  O        2.2745420    -1.0338450     0.0001200
units angstrom
no_reorient  #important for SAPT in psi4, default
symmetry c1  #important for SAPT in psi4, default
}

set PROPERTIES_ORIGIN ["COM"]
properties('MP2/aug-cc-pvtz', properties = ['dipole'])
--------------------------------------------------------------------------

    Molecular point group: c1
  Charge       = 0
  Multiplicity = 1
  Basis Set: AUG-CC-PVTZ
    Blend: AUG-CC-PVTZ
  Basis Set: (AUG-CC-PVTZ AUX)
    Blend: AUG-CC-PVTZ-JKFIT

    Orbital Energies [Eh]
    ---------------------

    Doubly Occupied:

       1A    -20.560288     2A    -20.546906     3A    -15.638130
       4A    -15.626061     5A    -11.421681     6A    -11.385003
       7A    -11.330917     8A    -11.255675     9A     -1.461369
      10A     -1.422073    11A     -1.305350    12A     -1.245068
      13A     -1.068975    14A     -0.917183    15A     -0.901119
      16A     -0.794711    17A     -0.756370    18A     -0.705651
      19A     -0.693136    20A     -0.665835    21A     -0.649104
      22A     -0.625575    23A     -0.600224    24A     -0.594312
      25A     -0.518580    26A     -0.480714    27A     -0.450456
      28A     -0.446365    29A     -0.362868

  @DF-RHF Final Energy:  -412.61232679419300

   => Energetics <=

    Nuclear Repulsion Energy =            355.3304471633596791
    One-Electron Energy =               -1267.0261484223628941
    Two-Electron Energy =                 499.0833744648102765
    Total Energy =                       -412.6123267941929953
  Basis Set: (AUG-CC-PVTZ AUX)
    Blend: AUG-CC-PVTZ-RI
    Molecular point group: c1

    Geometry (in Angstrom), charge = 0, multiplicity = 1:

       Center              X                  Y                   Z               Mass
    ------------   -----------------  -----------------  -----------------  -----------------
         N           -0.029127058348    -0.934214020835    -0.000100121252    14.003074004430
         H           -0.041975058348    -1.951131020835     0.000025878748     1.007825032230
         C           -1.328736358348    -0.393008820835    -0.000268121252    12.000000000000
         O           -2.319205058348    -0.969125020835     0.000185878748    15.994914619570
         C           -1.201640058348     1.150964979165     0.000002878748    12.000000000000
         H           -2.121530058348     1.720550979165     0.000186878748     1.007825032230
         C            0.007654941652     1.754721979165     0.000028878748    12.000000000000
         H            0.127549941652     2.833336979165     0.000155878748     1.007825032230
         N            1.178840941652     1.030533979165    -0.000009121252    14.003074004430
         H            2.081208941652     1.490975979165     0.000076878748     1.007825032230
         C            1.230709941652    -0.357984020835    -0.000085121252    12.000000000000
         O            2.279129941652    -0.989677020835     0.000122878748    15.994914619570

  Basis Set: AUG-CC-PVTZ
    Blend: AUG-CC-PVTZ
  Basis Set: (AUG-CC-PVTZ AUX)
    Blend: AUG-CC-PVTZ-JKFIT
	 Reference Energy          =    -412.6123267941929953 [Eh]
	 Singles Energy            =      -0.0000000000000000 [Eh]
	 Same-Spin Energy          =      -0.4125432558235554 [Eh]
	 Opposite-Spin Energy      =      -1.2247779762350823 [Eh]
	 Correlation Energy        =      -1.6373212320586377 [Eh]
	 Total Energy              =    -414.2496480262516343 [Eh]

	 ================> DF-SCS-MP2 Energies <==================
	-----------------------------------------------------------
	 SCS Same-Spin Scale       =       0.3333333333333333 [-]
	 SCS Opposite-Spin Scale   =       1.2000000000000000 [-]
	 SCS Same-Spin Energy      =      -0.1375144186078518 [Eh]
	 SCS Opposite-Spin Energy  =      -1.4697335714820987 [Eh]
	 SCS Correlation Energy    =      -1.6072479900899506 [Eh]
	 SCS Total Energy          =    -414.2195747842829405 [Eh]
	-----------------------------------------------------------

  Dipole Moment: [D]
     X:     0.6274      Y:     3.6039      Z:    -0.0005     Total:     3.6581

*** Psi4 exiting successfully. Buy a developer a beer!
