                               Psi4 1.3.2 release

  ==> Input File <==

--------------------------------------------------------------------------
#psi4
#
memory 32 gb

molecule  {
0 1
  N       -0.0708419    -0.8890965    -0.0000977
  H       -0.0465630    -1.9952990     0.0000230
  C       -1.2924060    -0.3478390    -0.0002800
  O       -2.3237930    -1.0132930     0.0001830
  C       -1.2062280     1.1067970     0.0000000
  H       -2.1261180     1.6763830     0.0001840
  C        0.0030670     1.7105540     0.0000260
  H        0.1229620     2.7891690     0.0001530
  N        1.1742530     0.9863660    -0.0000120
  H        2.0766210     1.4468080     0.0000740
  C        1.2261220    -0.4021520    -0.0000880
  O        2.2745420    -1.0338450     0.0001200
units angstrom
no_reorient  #important for SAPT in psi4, default
symmetry c1  #important for SAPT in psi4, default
}

set PROPERTIES_ORIGIN ["COM"]
properties('MP2/aug-cc-pvtz', properties = ['dipole'])
--------------------------------------------------------------------------

    Molecular point group: c1
  Charge       = 0
  Multiplicity = 1
  Basis Set: AUG-CC-PVTZ
    Blend: AUG-CC-PVTZ
  Basis Set: (AUG-CC-PVTZ AUX)
    Blend: AUG-CC-PVTZ-JKFIT

    Orbital Energies [Eh]
    ---------------------

    Doubly Occupied:

       1A    -20.558659     2A    -20.536974     3A    -15.645560
       4A    -15.639832     5A    -11.430038     6A    -11.377900
       7A    -11.340577     8A    -11.256008     9A     -1.437813
      10A     -1.395018    11A     -1.316835    12A     -1.249377
      13A     -1.087998    14A     -0.925817    15A     -0.925156
      16A     -0.798987    17A     -0.762993    18A     -0.697361
      19A     -0.674953    20A     -0.674624    21A     -0.655981
      22A     -0.612502    23A     -0.587448    24A     -0.574164
      25A     -0.524735    26A     -0.487993    27A     -0.450424
      28A     -0.439926    29A     -0.368875

  @DF-RHF Final Energy:  -412.60455205761741

   => Energetics <=

    Nuclear Repulsion Energy =            356.9102371722696603
    One-Electron Energy =               -1270.1605224641948553
    Two-Electron Energy =                 500.6457332343077269
    Total Energy =                       -412.6045520576174113
  Basis Set: (AUG-CC-PVTZ AUX)
    Blend: AUG-CC-PVTZ-RI
    Molecular point group: c1

    Geometry (in Angstrom), charge = 0, multiplicity = 1:

       Center              X                  Y                   Z               Mass
    ------------   -----------------  -----------------  -----------------  -----------------
         N           -0.065996243183    -0.865658517301    -0.000094519685    14.003074004430
         H           -0.041717343183    -1.971861017301     0.000026180315     1.007825032230
         C           -1.287560343183    -0.324401017301    -0.000276819685    12.000000000000
         O           -2.318947343183    -0.989855017301     0.000186180315    15.994914619570
         C           -1.201382343183     1.130234982699     0.000003180315    12.000000000000
         H           -2.121272343183     1.699820982699     0.000187180315     1.007825032230
         C            0.007912656817     1.733991982699     0.000029180315    12.000000000000
         H            0.127807656817     2.812606982699     0.000156180315     1.007825032230
         N            1.179098656817     1.009803982699    -0.000008819685    14.003074004430
         H            2.081466656817     1.470245982699     0.000077180315     1.007825032230
         C            1.230967656817    -0.378714017301    -0.000084819685    12.000000000000
         O            2.279387656817    -1.010407017301     0.000123180315    15.994914619570

  Basis Set: AUG-CC-PVTZ
    Blend: AUG-CC-PVTZ
  Basis Set: (AUG-CC-PVTZ AUX)
    Blend: AUG-CC-PVTZ-JKFIT
	 Reference Energy          =    -412.6045520576174113 [Eh]
	 Singles Energy            =      -0.0000000000000000 [Eh]
	 Same-Spin Energy          =      -0.4165072907109691 [Eh]
	 Opposite-Spin Energy      =      -1.2309072379251509 [Eh]
	 Correlation Energy        =      -1.6474145286361199 [Eh]
	 Total Energy              =    -414.2519665862535589 [Eh]

	 ================> DF-SCS-MP2 Energies <==================
	-----------------------------------------------------------
	 SCS Same-Spin Scale       =       0.3333333333333333 [-]
	 SCS Opposite-Spin Scale   =       1.2000000000000000 [-]
	 SCS Same-Spin Energy      =      -0.1388357635703230 [Eh]
	 SCS Opposite-Spin Energy  =      -1.4770886855101810 [Eh]
	 SCS Correlation Energy    =      -1.6159244490805040 [Eh]
	 SCS Total Energy          =    -414.2204765066979348 [Eh]
	-----------------------------------------------------------

  Dipole Moment: [D]
     X:     1.5178      Y:     4.0463      Z:    -0.0006     Total:     4.3216

*** Psi4 exiting successfully. Buy a developer a beer!
