                               Psi4 1.4a2.dev612

  ==> Input File <==

--------------------------------------------------------------------------
#psi4
#
memory 32 gb

molecule  {
0 1
  O        1.7627890     2.3683800    -0.1458810
  O        1.6754140    -2.4069960    -0.1279020
  C       -1.0215720    -0.0077180     0.3641480
  C       -2.5139530    -0.0194410     0.5634370
  C       -0.3230660    -1.2073880     0.2343750
  C       -0.3370590     1.2052280     0.2348720
  C       -3.2735700    -0.0197480    -0.7643280
  C        1.0346870     1.2106680    -0.0181020
  C        1.0480560    -1.1910380    -0.0190010
  C        1.7368580     0.0147850    -0.1457440
  H       -2.7927850    -0.9030380     1.1483340
  H       -2.8082890     0.8538600     1.1573130
  H       -0.8312370    -2.1635460     0.3309200
  H       -0.8789600     2.1456520     0.3351900
  H       -3.0230990     0.8672620    -1.3527740
  H       -4.3574070    -0.0294260    -0.6053230
  H       -3.0076490    -0.8981260    -1.3586750
  H        2.8516962     0.0469213    -0.0902000
  H        1.1590650     3.1223080    -0.0299710
  H        2.6215300    -2.2543830    -0.2976190
units angstrom
no_reorient  #important for SAPT in psi4, default
symmetry c1  #important for SAPT in psi4, default
}

set PROPERTIES_ORIGIN ["COM"]
properties('MP2/aug-cc-pvtz', properties = ['dipole'])
--------------------------------------------------------------------------

    Molecular point group: c1
  Charge       = 0
  Multiplicity = 1
  Basis Set: AUG-CC-PVTZ
    Blend: AUG-CC-PVTZ
  Basis Set: (AUG-CC-PVTZ AUX)
    Blend: AUG-CC-PVTZ-JKFIT

    Orbital Energies [Eh]
    ---------------------

    Doubly Occupied:

       1A    -20.595945     2A    -20.593409     3A    -11.311187
       4A    -11.309405     5A    -11.252186     6A    -11.232533
       7A    -11.226242     8A    -11.223017     9A    -11.219995
      10A    -11.216198    11A     -1.405558    12A     -1.401958
      13A     -1.150806    14A     -1.064047    15A     -1.001706
      16A     -0.987559    17A     -0.876216    18A     -0.836915
      19A     -0.808045    20A     -0.739699    21A     -0.686546
      22A     -0.673709    23A     -0.665346    24A     -0.612961
      25A     -0.604125    26A     -0.593337    27A     -0.584964
      28A     -0.576546    29A     -0.552570    30A     -0.547890
      31A     -0.523548    32A     -0.521142    33A     -0.488107
      34A     -0.482884    35A     -0.453469    36A     -0.326024
      37A     -0.311645

  @DF-RHF Final Energy:  -458.65658235072101

   => Energetics <=

    Nuclear Repulsion Energy =            507.3788599807273840
    One-Electron Energy =               -1630.7560127452391043
    Two-Electron Energy =                 664.7205704137907105
    Total Energy =                       -458.6565823507210098
  Basis Set: (AUG-CC-PVTZ AUX)
    Blend: AUG-CC-PVTZ-RI
    Molecular point group: c1

    Geometry (in Angstrom), charge = 0, multiplicity = 1:

       Center              X                  Y                   Z               Mass
    ------------   -----------------  -----------------  -----------------  -----------------
         O            1.762465971365     2.368378821110    -0.147677029305    15.994914619570
         O            1.675090971365    -2.406997178890    -0.129698029305    15.994914619570
         C           -1.021895028635    -0.007719178890     0.362351970695    12.000000000000
         C           -2.514276028635    -0.019442178890     0.561640970695    12.000000000000
         C           -0.323389028635    -1.207389178890     0.232578970695    12.000000000000
         C           -0.337382028635     1.205226821110     0.233075970695    12.000000000000
         C           -3.273893028635    -0.019749178890    -0.766124029305    12.000000000000
         C            1.034363971365     1.210666821110    -0.019898029305    12.000000000000
         C            1.047732971365    -1.191039178890    -0.020797029305    12.000000000000
         C            1.736534971365     0.014783821110    -0.147540029305    12.000000000000
         H           -2.793108028635    -0.903039178890     1.146537970695     1.007825032230
         H           -2.808612028635     0.853858821110     1.155516970695     1.007825032230
         H           -0.831560028635    -2.163547178890     0.329123970695     1.007825032230
         H           -0.879283028635     2.145650821110     0.333393970695     1.007825032230
         H           -3.023422028635     0.867260821110    -1.354570029305     1.007825032230
         H           -4.357730028635    -0.029427178890    -0.607119029305     1.007825032230
         H           -3.007972028635    -0.898127178890    -1.360471029305     1.007825032230
         H            2.851373171365     0.046920121110    -0.091996029305     1.007825032230
         H            1.158741971365     3.122306821110    -0.031767029305     1.007825032230
         H            2.621206971365    -2.254384178890    -0.299415029305     1.007825032230

  Basis Set: AUG-CC-PVTZ
    Blend: AUG-CC-PVTZ
  Basis Set: (AUG-CC-PVTZ AUX)
    Blend: AUG-CC-PVTZ-JKFIT
	 Reference Energy          =    -458.6565823507210098 [Eh]
	 Singles Energy            =      -0.0000000000000000 [Eh]
	 Same-Spin Energy          =      -0.4819184235095622 [Eh]
	 Opposite-Spin Energy      =      -1.5055860580120379 [Eh]
	 Correlation Energy        =      -1.9875044815216001 [Eh]
	 Total Energy              =    -460.6440868322426354 [Eh]

	 ================> DF-SCS-MP2 Energies <==================
	-----------------------------------------------------------
	 SCS Same-Spin Scale       =       0.3333333333333333 [-]
	 SCS Opposite-Spin Scale   =       1.2000000000000000 [-]
	 SCS Same-Spin Energy      =      -0.1606394745031874 [Eh]
	 SCS Opposite-Spin Energy  =      -1.8067032696144454 [Eh]
	 SCS Correlation Energy    =      -1.9673427441176328 [Eh]
	 SCS Total Energy          =    -460.6239250948386257 [Eh]
	-----------------------------------------------------------

  Dipole Moment: [D]
     X:    -0.5238      Y:     1.2241      Z:     0.1956     Total:     1.3457

*** Psi4 exiting successfully. Buy a developer a beer!
