                               Psi4 1.4a2.dev612

  ==> Input File <==

--------------------------------------------------------------------------
#psi4
#
memory 32 gb

molecule  {
0 1
  O        1.7627890     2.3683800    -0.1458810
  O        1.6754140    -2.4069960    -0.1279020
  C       -1.0215720    -0.0077180     0.3641480
  C       -2.5139530    -0.0194410     0.5634370
  C       -0.3230660    -1.2073880     0.2343750
  C       -0.3370590     1.2052280     0.2348720
  C       -3.2735700    -0.0197480    -0.7643280
  C        1.0346870     1.2106680    -0.0181020
  C        1.0480560    -1.1910380    -0.0190010
  C        1.7637746     0.0144970     0.0018209
  H       -2.7927850    -0.9030380     1.1483340
  H       -2.8082890     0.8538600     1.1573130
  H       -0.8312370    -2.1635460     0.3309200
  H       -0.8789600     2.1456520     0.3351900
  H       -3.0230990     0.8672620    -1.3527740
  H       -4.3574070    -0.0294260    -0.6053230
  H       -3.0076490    -0.8981260    -1.3586750
  H        2.8074370     0.0467670    -0.3362510
  H        1.1590650     3.1223080    -0.0299710
  H        2.6215300    -2.2543830    -0.2976190
units angstrom
no_reorient  #important for SAPT in psi4, default
symmetry c1  #important for SAPT in psi4, default
}

set PROPERTIES_ORIGIN ["COM"]
properties('MP2/aug-cc-pvtz', properties = ['dipole'])
--------------------------------------------------------------------------

    Molecular point group: c1
  Charge       = 0
  Multiplicity = 1
  Basis Set: AUG-CC-PVTZ
    Blend: AUG-CC-PVTZ
  Basis Set: (AUG-CC-PVTZ AUX)
    Blend: AUG-CC-PVTZ-JKFIT

    Orbital Energies [Eh]
    ---------------------

    Doubly Occupied:

       1A    -20.596201     2A    -20.593704     3A    -11.312266
       4A    -11.310416     5A    -11.252565     6A    -11.232667
       7A    -11.225462     8A    -11.222791     9A    -11.220222
      10A    -11.215981    11A     -1.405721    12A     -1.402162
      13A     -1.150142    14A     -1.063451    15A     -1.001445
      16A     -0.987449    17A     -0.876776    18A     -0.835442
      19A     -0.808396    20A     -0.739817    21A     -0.686079
      22A     -0.674240    23A     -0.665816    24A     -0.611354
      25A     -0.601873    26A     -0.596490    27A     -0.587216
      28A     -0.577449    29A     -0.551630    30A     -0.547704
      31A     -0.522574    32A     -0.520018    33A     -0.488247
      34A     -0.482877    35A     -0.453673    36A     -0.326123
      37A     -0.311281

  @DF-RHF Final Energy:  -458.65424592211770

   => Energetics <=

    Nuclear Repulsion Energy =            507.1864732532129665
    One-Electron Energy =               -1630.3659993888963982
    Two-Electron Energy =                 664.5252802135655656
    Total Energy =                       -458.6542459221177523
  Basis Set: (AUG-CC-PVTZ AUX)
    Blend: AUG-CC-PVTZ-RI
    Molecular point group: c1

    Geometry (in Angstrom), charge = 0, multiplicity = 1:

       Center              X                  Y                   Z               Mass
    ------------   -----------------  -----------------  -----------------  -----------------
         O            1.760449620655     2.368404978549    -0.158706388501    15.994914619570
         O            1.673074620655    -2.406971021451    -0.140727388501    15.994914619570
         C           -1.023911379345    -0.007693021451     0.351322611499    12.000000000000
         C           -2.516292379345    -0.019416021451     0.550611611499    12.000000000000
         C           -0.325405379345    -1.207363021451     0.221549611499    12.000000000000
         C           -0.339398379345     1.205252978549     0.222046611499    12.000000000000
         C           -3.275909379345    -0.019723021451    -0.777153388501    12.000000000000
         C            1.032347620655     1.210692978549    -0.030927388501    12.000000000000
         C            1.045716620655    -1.191013021451    -0.031826388501    12.000000000000
         C            1.761435220655     0.014521978549    -0.011004488501    12.000000000000
         H           -2.795124379345    -0.903013021451     1.135508611499     1.007825032230
         H           -2.810628379345     0.853884978549     1.144487611499     1.007825032230
         H           -0.833576379345    -2.163521021451     0.318094611499     1.007825032230
         H           -0.881299379345     2.145676978549     0.322364611499     1.007825032230
         H           -3.025438379345     0.867286978549    -1.365599388501     1.007825032230
         H           -4.359746379345    -0.029401021451    -0.618148388501     1.007825032230
         H           -3.009988379345    -0.898101021451    -1.371500388501     1.007825032230
         H            2.805097620655     0.046791978549    -0.349076388501     1.007825032230
         H            1.156725620655     3.122332978549    -0.042796388501     1.007825032230
         H            2.619190620655    -2.254358021451    -0.310444388501     1.007825032230

  Basis Set: AUG-CC-PVTZ
    Blend: AUG-CC-PVTZ
  Basis Set: (AUG-CC-PVTZ AUX)
    Blend: AUG-CC-PVTZ-JKFIT
	 Reference Energy          =    -458.6542459221176955 [Eh]
	 Singles Energy            =      -0.0000000000000000 [Eh]
	 Same-Spin Energy          =      -0.4819549933680268 [Eh]
	 Opposite-Spin Energy      =      -1.5058724395917564 [Eh]
	 Correlation Energy        =      -1.9878274329597834 [Eh]
	 Total Energy              =    -460.6420733550774571 [Eh]

	 ================> DF-SCS-MP2 Energies <==================
	-----------------------------------------------------------
	 SCS Same-Spin Scale       =       0.3333333333333333 [-]
	 SCS Opposite-Spin Scale   =       1.2000000000000000 [-]
	 SCS Same-Spin Energy      =      -0.1606516644560089 [Eh]
	 SCS Opposite-Spin Energy  =      -1.8070469275101075 [Eh]
	 SCS Correlation Energy    =      -1.9676985919661165 [Eh]
	 SCS Total Energy          =    -460.6219445140837934 [Eh]
	-----------------------------------------------------------

  Dipole Moment: [D]
     X:    -0.5737      Y:     1.2205      Z:    -0.0912     Total:     1.3517

*** Psi4 exiting successfully. Buy a developer a beer!
