                               Psi4 1.4a2.dev612

  ==> Input File <==

--------------------------------------------------------------------------
#psi4
#
memory 32 gb

molecule  {
0 1
  O        1.7627890     2.3683800    -0.1458810
  O        1.6754140    -2.4069960    -0.1279020
  C       -1.0215720    -0.0077180     0.3641480
  C       -2.5139530    -0.0194410     0.5634370
  C       -0.3230660    -1.2073880     0.2343750
  C       -0.3296150     1.2052610     0.2843148
  C       -3.2735700    -0.0197480    -0.7643280
  C        1.0346870     1.2106680    -0.0181020
  C        1.0480560    -1.1910380    -0.0190010
  C        1.7368580     0.0147850    -0.1457440
  H       -2.7927850    -0.9030380     1.1483340
  H       -2.8082890     0.8538600     1.1573130
  H       -0.8312370    -2.1635460     0.3309200
  H       -0.8789600     2.1456520     0.3351900
  H       -3.0230990     0.8672620    -1.3527740
  H       -4.3574070    -0.0294260    -0.6053230
  H       -3.0076490    -0.8981260    -1.3586750
  H        2.8074370     0.0467670    -0.3362510
  H        1.1590650     3.1223080    -0.0299710
  H        2.6215300    -2.2543830    -0.2976190
units angstrom
no_reorient  #important for SAPT in psi4, default
symmetry c1  #important for SAPT in psi4, default
}

set PROPERTIES_ORIGIN ["COM"]
properties('MP2/aug-cc-pvtz', properties = ['dipole'])
--------------------------------------------------------------------------

    Molecular point group: c1
  Charge       = 0
  Multiplicity = 1
  Basis Set: AUG-CC-PVTZ
    Blend: AUG-CC-PVTZ
  Basis Set: (AUG-CC-PVTZ AUX)
    Blend: AUG-CC-PVTZ-JKFIT

    Orbital Energies [Eh]
    ---------------------

    Doubly Occupied:

       1A    -20.595855     2A    -20.593440     3A    -11.310954
       4A    -11.308960     5A    -11.251508     6A    -11.232068
       7A    -11.223990     8A    -11.222982     9A    -11.219876
      10A    -11.215816    11A     -1.405491    12A     -1.401971
      13A     -1.150291    14A     -1.064016    15A     -1.001112
      16A     -0.988196    17A     -0.876585    18A     -0.836823
      19A     -0.808017    20A     -0.739506    21A     -0.687561
      22A     -0.675307    23A     -0.666011    24A     -0.612643
      25A     -0.602271    26A     -0.595053    27A     -0.587556
      28A     -0.576550    29A     -0.552605    30A     -0.549468
      31A     -0.523963    32A     -0.520712    33A     -0.487807
      34A     -0.482481    35A     -0.453841    36A     -0.326043
      37A     -0.311197

  @DF-RHF Final Energy:  -458.65959716975277

   => Energetics <=

    Nuclear Repulsion Energy =            507.4071969466369296
    One-Electron Energy =               -1630.8165356110289395
    Two-Electron Energy =                 664.7497414946391245
    Total Energy =                       -458.6595971697528284
  Basis Set: (AUG-CC-PVTZ AUX)
    Blend: AUG-CC-PVTZ-RI
    Molecular point group: c1

    Geometry (in Angstrom), charge = 0, multiplicity = 1:

       Center              X                  Y                   Z               Mass
    ------------   -----------------  -----------------  -----------------  -----------------
         O            1.762142055291     2.368377079269    -0.150178239173    15.994914619570
         O            1.674767055291    -2.406998920731    -0.132199239173    15.994914619570
         C           -1.022218944709    -0.007720920731     0.359850760827    12.000000000000
         C           -2.514599944709    -0.019443920731     0.559139760827    12.000000000000
         C           -0.323712944709    -1.207390920731     0.230077760827    12.000000000000
         C           -0.330261944709     1.205258079269     0.280017560827    12.000000000000
         C           -3.274216944709    -0.019750920731    -0.768625239173    12.000000000000
         C            1.034040055291     1.210665079269    -0.022399239173    12.000000000000
         C            1.047409055291    -1.191040920731    -0.023298239173    12.000000000000
         C            1.736211055291     0.014782079269    -0.150041239173    12.000000000000
         H           -2.793431944709    -0.903040920731     1.144036760827     1.007825032230
         H           -2.808935944709     0.853857079269     1.153015760827     1.007825032230
         H           -0.831883944709    -2.163548920731     0.326622760827     1.007825032230
         H           -0.879606944709     2.145649079269     0.330892760827     1.007825032230
         H           -3.023745944709     0.867259079269    -1.357071239173     1.007825032230
         H           -4.358053944709    -0.029428920731    -0.609620239173     1.007825032230
         H           -3.008295944709    -0.898128920731    -1.362972239173     1.007825032230
         H            2.806790055291     0.046764079269    -0.340548239173     1.007825032230
         H            1.158418055291     3.122305079269    -0.034268239173     1.007825032230
         H            2.620883055291    -2.254385920731    -0.301916239173     1.007825032230

  Basis Set: AUG-CC-PVTZ
    Blend: AUG-CC-PVTZ
  Basis Set: (AUG-CC-PVTZ AUX)
    Blend: AUG-CC-PVTZ-JKFIT
	 Reference Energy          =    -458.6595971697527716 [Eh]
	 Singles Energy            =      -0.0000000000000000 [Eh]
	 Same-Spin Energy          =      -0.4817239779562759 [Eh]
	 Opposite-Spin Energy      =      -1.5052309181801018 [Eh]
	 Correlation Energy        =      -1.9869548961363777 [Eh]
	 Total Energy              =    -460.6465520658891251 [Eh]

	 ================> DF-SCS-MP2 Energies <==================
	-----------------------------------------------------------
	 SCS Same-Spin Scale       =       0.3333333333333333 [-]
	 SCS Opposite-Spin Scale   =       1.2000000000000000 [-]
	 SCS Same-Spin Energy      =      -0.1605746593187586 [Eh]
	 SCS Opposite-Spin Energy  =      -1.8062771018161221 [Eh]
	 SCS Correlation Energy    =      -1.9668517611348808 [Eh]
	 SCS Total Energy          =    -460.6264489308876477 [Eh]
	-----------------------------------------------------------

  Dipole Moment: [D]
     X:    -0.4986      Y:     1.2176      Z:    -0.0252     Total:     1.3160

*** Psi4 exiting successfully. Buy a developer a beer!
