                               Psi4 1.4a2.dev612

  ==> Input File <==

--------------------------------------------------------------------------
#psi4
#
memory 32 gb

molecule  {
0 1
  O        1.7627890     2.3683800    -0.1458810
  O        1.6754140    -2.4069960    -0.1279020
  C       -1.0215720    -0.0077180     0.3641480
  C       -2.5139530    -0.0194410     0.5634370
  C       -0.3230660    -1.2073880     0.2343750
  C       -0.3370590     1.2052280     0.2348720
  C       -3.2735700    -0.0197480    -0.7643280
  C        1.0346870     1.2106680    -0.0181020
  C        1.0480560    -1.1910380    -0.0190010
  C        1.7368580     0.0147850    -0.1457440
  H       -2.7927850    -0.9030380     1.1483340
  H       -2.8082890     0.8538600     1.1573130
  H       -0.8312370    -2.1635460     0.3309200
  H       -0.8364791     2.1395361     0.5814784
  H       -3.0230990     0.8672620    -1.3527740
  H       -4.3574070    -0.0294260    -0.6053230
  H       -3.0076490    -0.8981260    -1.3586750
  H        2.8074370     0.0467670    -0.3362510
  H        1.1590650     3.1223080    -0.0299710
  H        2.6215300    -2.2543830    -0.2976190
units angstrom
no_reorient  #important for SAPT in psi4, default
symmetry c1  #important for SAPT in psi4, default
}

set PROPERTIES_ORIGIN ["COM"]
properties('MP2/aug-cc-pvtz', properties = ['dipole'])
--------------------------------------------------------------------------

    Molecular point group: c1
  Charge       = 0
  Multiplicity = 1
  Basis Set: AUG-CC-PVTZ
    Blend: AUG-CC-PVTZ
  Basis Set: (AUG-CC-PVTZ AUX)
    Blend: AUG-CC-PVTZ-JKFIT

    Orbital Energies [Eh]
    ---------------------

    Doubly Occupied:

       1A    -20.595846     2A    -20.593985     3A    -11.311239
       4A    -11.309666     5A    -11.251916     6A    -11.232185
       7A    -11.224610     8A    -11.224299     9A    -11.219256
      10A    -11.216224    11A     -1.405610    12A     -1.402385
      13A     -1.150676    14A     -1.064100    15A     -1.001099
      16A     -0.987860    17A     -0.876236    18A     -0.836321
      19A     -0.808297    20A     -0.739968    21A     -0.686113
      22A     -0.675587    23A     -0.664316    24A     -0.612393
      25A     -0.600832    26A     -0.595514    27A     -0.587644
      28A     -0.576732    29A     -0.552416    30A     -0.549701
      31A     -0.521660    32A     -0.519519    33A     -0.487889
      34A     -0.482685    35A     -0.453512    36A     -0.326191
      37A     -0.311574

  @DF-RHF Final Energy:  -458.65676171035705

   => Energetics <=

    Nuclear Repulsion Energy =            507.3652339144650796
    One-Electron Energy =               -1630.7318783042451287
    Two-Electron Energy =                 664.7098826794230035
    Total Energy =                       -458.6567617103570456
  Basis Set: (AUG-CC-PVTZ AUX)
    Blend: AUG-CC-PVTZ-RI
    Molecular point group: c1

    Geometry (in Angstrom), charge = 0, multiplicity = 1:

       Center              X                  Y                   Z               Mass
    ------------   -----------------  -----------------  -----------------  -----------------
         O            1.762478952029     2.368424590303    -0.147678762201    15.994914619570
         O            1.675103952029    -2.406951409697    -0.129699762201    15.994914619570
         C           -1.021882047971    -0.007673409697     0.362350237799    12.000000000000
         C           -2.514263047971    -0.019396409697     0.561639237799    12.000000000000
         C           -0.323376047971    -1.207343409697     0.232577237799    12.000000000000
         C           -0.337369047971     1.205272590303     0.233074237799    12.000000000000
         C           -3.273880047971    -0.019703409697    -0.766125762201    12.000000000000
         C            1.034376952029     1.210712590303    -0.019899762201    12.000000000000
         C            1.047745952029    -1.190993409697    -0.020798762201    12.000000000000
         C            1.736547952029     0.014829590303    -0.147541762201    12.000000000000
         H           -2.793095047971    -0.902993409697     1.146536237799     1.007825032230
         H           -2.808599047971     0.853904590303     1.155515237799     1.007825032230
         H           -0.831547047971    -2.163501409697     0.329122237799     1.007825032230
         H           -0.836789147971     2.139580690303     0.579680637799     1.007825032230
         H           -3.023409047971     0.867306590303    -1.354571762201     1.007825032230
         H           -4.357717047971    -0.029381409697    -0.607120762201     1.007825032230
         H           -3.007959047971    -0.898081409697    -1.360472762201     1.007825032230
         H            2.807126952029     0.046811590303    -0.338048762201     1.007825032230
         H            1.158754952029     3.122352590303    -0.031768762201     1.007825032230
         H            2.621219952029    -2.254338409697    -0.299416762201     1.007825032230

  Basis Set: AUG-CC-PVTZ
    Blend: AUG-CC-PVTZ
  Basis Set: (AUG-CC-PVTZ AUX)
    Blend: AUG-CC-PVTZ-JKFIT
	 Reference Energy          =    -458.6567617103570456 [Eh]
	 Singles Energy            =      -0.0000000000000000 [Eh]
	 Same-Spin Energy          =      -0.4819114799322096 [Eh]
	 Opposite-Spin Energy      =      -1.5055317060677926 [Eh]
	 Correlation Energy        =      -1.9874431860000024 [Eh]
	 Total Energy              =    -460.6442048963570528 [Eh]

	 ================> DF-SCS-MP2 Energies <==================
	-----------------------------------------------------------
	 SCS Same-Spin Scale       =       0.3333333333333333 [-]
	 SCS Opposite-Spin Scale   =       1.2000000000000000 [-]
	 SCS Same-Spin Energy      =      -0.1606371599774032 [Eh]
	 SCS Opposite-Spin Energy  =      -1.8066380472813510 [Eh]
	 SCS Correlation Energy    =      -1.9672752072587543 [Eh]
	 SCS Total Energy          =    -460.6240369176157969 [Eh]
	-----------------------------------------------------------

  Dipole Moment: [D]
     X:    -0.4334      Y:     1.1679      Z:     0.1604     Total:     1.2560

*** Psi4 exiting successfully. Buy a developer a beer!
