                               Psi4 1.4a2.dev612

  ==> Input File <==

--------------------------------------------------------------------------
#psi4
#
memory 32 gb

molecule  {
0 1
  O        1.7627890     2.3683800    -0.1458810
  O        1.6754140    -2.4069960    -0.1279020
  C       -1.0215720    -0.0077180     0.3641480
  C       -2.5139530    -0.0194410     0.5634370
  C       -0.3230660    -1.2073880     0.2343750
  C       -0.3370590     1.2052280     0.2348720
  C       -3.2735700    -0.0197480    -0.7643280
  C        1.0346870     1.2106680    -0.0181020
  C        1.0480560    -1.1910380    -0.0190010
  C        1.7368580     0.0147850    -0.1457440
  H       -2.7927850    -0.9030380     1.1483340
  H       -2.8082890     0.8538600     1.1573130
  H       -0.8312370    -2.1635460     0.3309200
  H       -0.8789600     2.1456520     0.3351900
  H       -3.0230990     0.8672620    -1.3527740
  H       -4.3574070    -0.0294260    -0.6053230
  H       -3.0076490    -0.8981260    -1.3586750
  H        2.8605480     0.0469521    -0.0409898
  H        1.1590650     3.1223080    -0.0299710
  H        2.6215300    -2.2543830    -0.2976190
units angstrom
no_reorient  #important for SAPT in psi4, default
symmetry c1  #important for SAPT in psi4, default
}

set PROPERTIES_ORIGIN ["COM"]
properties('MP2/aug-cc-pvtz', properties = ['dipole'])
--------------------------------------------------------------------------

    Molecular point group: c1
  Charge       = 0
  Multiplicity = 1
  Basis Set: AUG-CC-PVTZ
    Blend: AUG-CC-PVTZ
  Basis Set: (AUG-CC-PVTZ AUX)
    Blend: AUG-CC-PVTZ-JKFIT

    Orbital Energies [Eh]
    ---------------------

    Doubly Occupied:

       1A    -20.596048     2A    -20.593445     3A    -11.311475
       4A    -11.309666     5A    -11.252521     6A    -11.232706
       7A    -11.227201     8A    -11.223137     9A    -11.220124
      10A    -11.216307    11A     -1.405628    12A     -1.401995
      13A     -1.150967    14A     -1.064071    15A     -1.001856
      16A     -0.987386    17A     -0.876060    18A     -0.837010
      19A     -0.808010    20A     -0.739671    21A     -0.686257
      22A     -0.673165    23A     -0.664886    24A     -0.613184
      25A     -0.604430    26A     -0.593233    27A     -0.584066
      28A     -0.576572    29A     -0.552539    30A     -0.547068
      31A     -0.523536    32A     -0.521060    33A     -0.488247
      34A     -0.482926    35A     -0.453289    36A     -0.326060
      37A     -0.311774

  @DF-RHF Final Energy:  -458.65479409986415

   => Energetics <=

    Nuclear Repulsion Energy =            507.3271945960715925
    One-Electron Energy =               -1630.6488264769029684
    Two-Electron Energy =                 664.6668377809671711
    Total Energy =                       -458.6547940998641479
  Basis Set: (AUG-CC-PVTZ AUX)
    Blend: AUG-CC-PVTZ-RI
    Molecular point group: c1

    Geometry (in Angstrom), charge = 0, multiplicity = 1:

       Center              X                  Y                   Z               Mass
    ------------   -----------------  -----------------  -----------------  -----------------
         O            1.762401357838     2.368378596286    -0.148036238121    15.994914619570
         O            1.675026357838    -2.406997403714    -0.130057238121    15.994914619570
         C           -1.021959642162    -0.007719403714     0.361992761879    12.000000000000
         C           -2.514340642162    -0.019442403714     0.561281761879    12.000000000000
         C           -0.323453642162    -1.207389403714     0.232219761879    12.000000000000
         C           -0.337446642162     1.205226596286     0.232716761879    12.000000000000
         C           -3.273957642162    -0.019749403714    -0.766483238121    12.000000000000
         C            1.034299357838     1.210666596286    -0.020257238121    12.000000000000
         C            1.047668357838    -1.191039403714    -0.021156238121    12.000000000000
         C            1.736470357838     0.014783596286    -0.147899238121    12.000000000000
         H           -2.793172642162    -0.903039403714     1.146178761879     1.007825032230
         H           -2.808676642162     0.853858596286     1.155157761879     1.007825032230
         H           -0.831624642162    -2.163547403714     0.328764761879     1.007825032230
         H           -0.879347642162     2.145650596286     0.333034761879     1.007825032230
         H           -3.023486642162     0.867260596286    -1.354929238121     1.007825032230
         H           -4.357794642162    -0.029427403714    -0.607478238121     1.007825032230
         H           -3.008036642162    -0.898127403714    -1.360830238121     1.007825032230
         H            2.860160357838     0.046950696286    -0.043145038121     1.007825032230
         H            1.158677357838     3.122306596286    -0.032126238121     1.007825032230
         H            2.621142357838    -2.254384403714    -0.299774238121     1.007825032230

  Basis Set: AUG-CC-PVTZ
    Blend: AUG-CC-PVTZ
  Basis Set: (AUG-CC-PVTZ AUX)
    Blend: AUG-CC-PVTZ-JKFIT
	 Reference Energy          =    -458.6547940998641479 [Eh]
	 Singles Energy            =      -0.0000000000000000 [Eh]
	 Same-Spin Energy          =      -0.4819952060782515 [Eh]
	 Opposite-Spin Energy      =      -1.5057693351062271 [Eh]
	 Correlation Energy        =      -1.9877645411844787 [Eh]
	 Total Energy              =    -460.6425586410486517 [Eh]

	 ================> DF-SCS-MP2 Energies <==================
	-----------------------------------------------------------
	 SCS Same-Spin Scale       =       0.3333333333333333 [-]
	 SCS Opposite-Spin Scale   =       1.2000000000000000 [-]
	 SCS Same-Spin Energy      =      -0.1606650686927505 [Eh]
	 SCS Opposite-Spin Energy  =      -1.8069232021274724 [Eh]
	 SCS Correlation Energy    =      -1.9675882708202228 [Eh]
	 SCS Total Energy          =    -460.6223823706843632 [Eh]
	-----------------------------------------------------------

  Dipole Moment: [D]
     X:    -0.5422      Y:     1.2253      Z:     0.2332     Total:     1.3600

*** Psi4 exiting successfully. Buy a developer a beer!
