                               Psi4 1.4a2.dev612

  ==> Input File <==

--------------------------------------------------------------------------
#psi4
#
memory 32 gb

molecule  {
0 1
  O        1.7627890     2.3683800    -0.1458810
  O        1.6754140    -2.4069960    -0.1279020
  C       -1.0215720    -0.0077180     0.3641480
  C       -2.5139530    -0.0194410     0.5634370
  C       -0.3230660    -1.2073880     0.2343750
  C       -0.3370590     1.2052280     0.2348720
  C       -3.2735700    -0.0197480    -0.7643280
  C        1.0346870     1.2106680    -0.0181020
  C        1.0480560    -1.1910380    -0.0190010
  C        1.7368580     0.0147850    -0.1457440
  H       -2.7927850    -0.9030380     1.1483340
  H       -2.8082890     0.8538600     1.1573130
  H       -0.8312370    -2.1635460     0.3309200
  H       -0.8789600     2.1456520     0.3351900
  H       -3.0230990     0.8672620    -1.3527740
  H       -4.3574070    -0.0294260    -0.6053230
  H       -3.0076490    -0.8981260    -1.3586750
  H        2.8162888     0.0467979    -0.2870408
  H        1.1590650     3.1223080    -0.0299710
  H        2.6215300    -2.2543830    -0.2976190
units angstrom
no_reorient  #important for SAPT in psi4, default
symmetry c1  #important for SAPT in psi4, default
}

set PROPERTIES_ORIGIN ["COM"]
properties('MP2/aug-cc-pvtz', properties = ['dipole'])
--------------------------------------------------------------------------

    Molecular point group: c1
  Charge       = 0
  Multiplicity = 1
  Basis Set: AUG-CC-PVTZ
    Blend: AUG-CC-PVTZ
  Basis Set: (AUG-CC-PVTZ AUX)
    Blend: AUG-CC-PVTZ-JKFIT

    Orbital Energies [Eh]
    ---------------------

    Doubly Occupied:

       1A    -20.595711     2A    -20.593324     3A    -11.310539
       4A    -11.308818     5A    -11.251417     6A    -11.232130
       7A    -11.224068     8A    -11.222747     9A    -11.219732
      10A    -11.215953    11A     -1.405398    12A     -1.401870
      13A     -1.150439    14A     -1.064011    15A     -1.001369
      16A     -0.987993    17A     -0.876622    18A     -0.836701
      19A     -0.808150    20A     -0.739815    21A     -0.687555
      22A     -0.675163    23A     -0.666039    24A     -0.612115
      25A     -0.602718    26A     -0.594749    27A     -0.587293
      28A     -0.576478    29A     -0.552833    30A     -0.549151
      31A     -0.523578    32A     -0.521182    33A     -0.487797
      34A     -0.482729    35A     -0.453920    36A     -0.325940
      37A     -0.311352

  @DF-RHF Final Energy:  -458.66006869694866

   => Energetics <=

    Nuclear Repulsion Energy =            507.4987981657741898
    One-Electron Energy =               -1631.0029376452475844
    Two-Electron Energy =                 664.8440707825247955
    Total Energy =                       -458.6600686969486560
  Basis Set: (AUG-CC-PVTZ AUX)
    Blend: AUG-CC-PVTZ-RI
    Molecular point group: c1

    Geometry (in Angstrom), charge = 0, multiplicity = 1:

       Center              X                  Y                   Z               Mass
    ------------   -----------------  -----------------  -----------------  -----------------
         O            1.762724426934     2.368379721866    -0.146240194041    15.994914619570
         O            1.675349426934    -2.406996278134    -0.128261194041    15.994914619570
         C           -1.021636573066    -0.007718278134     0.363788805959    12.000000000000
         C           -2.514017573066    -0.019441278134     0.563077805959    12.000000000000
         C           -0.323130573066    -1.207388278134     0.234015805959    12.000000000000
         C           -0.337123573066     1.205227721866     0.234512805959    12.000000000000
         C           -3.273634573066    -0.019748278134    -0.764687194041    12.000000000000
         C            1.034622426934     1.210667721866    -0.018461194041    12.000000000000
         C            1.047991426934    -1.191038278134    -0.019360194041    12.000000000000
         C            1.736793426934     0.014784721866    -0.146103194041    12.000000000000
         H           -2.792849573066    -0.903038278134     1.147974805959     1.007825032230
         H           -2.808353573066     0.853859721866     1.156953805959     1.007825032230
         H           -0.831301573066    -2.163546278134     0.330560805959     1.007825032230
         H           -0.879024573066     2.145651721866     0.334830805959     1.007825032230
         H           -3.023163573066     0.867261721866    -1.353133194041     1.007825032230
         H           -4.357471573066    -0.029426278134    -0.605682194041     1.007825032230
         H           -3.007713573066    -0.898126278134    -1.359034194041     1.007825032230
         H            2.816224226934     0.046797621866    -0.287399994041     1.007825032230
         H            1.159000426934     3.122307721866    -0.030330194041     1.007825032230
         H            2.621465426934    -2.254383278134    -0.297978194041     1.007825032230

  Basis Set: AUG-CC-PVTZ
    Blend: AUG-CC-PVTZ
  Basis Set: (AUG-CC-PVTZ AUX)
    Blend: AUG-CC-PVTZ-JKFIT
	 Reference Energy          =    -458.6600686969486560 [Eh]
	 Singles Energy            =      -0.0000000000000000 [Eh]
	 Same-Spin Energy          =      -0.4817408108004257 [Eh]
	 Opposite-Spin Energy      =      -1.5052183938124579 [Eh]
	 Correlation Energy        =      -1.9869592046128837 [Eh]
	 Total Energy              =    -460.6470279015615574 [Eh]

	 ================> DF-SCS-MP2 Energies <==================
	-----------------------------------------------------------
	 SCS Same-Spin Scale       =       0.3333333333333333 [-]
	 SCS Opposite-Spin Scale   =       1.2000000000000000 [-]
	 SCS Same-Spin Energy      =      -0.1605802702668086 [Eh]
	 SCS Opposite-Spin Energy  =      -1.8062620725749494 [Eh]
	 SCS Correlation Energy    =      -1.9668423428417581 [Eh]
	 SCS Total Energy          =    -460.6269110397904001 [Eh]
	-----------------------------------------------------------

  Dipole Moment: [D]
     X:    -0.4940      Y:     1.2212      Z:     0.0459     Total:     1.3182

*** Psi4 exiting successfully. Buy a developer a beer!
