                               Psi4 1.4a2.dev612

  ==> Input File <==

--------------------------------------------------------------------------
#psi4
#
memory 32 gb

molecule  {
0 1
  O        1.7627890     2.3683800    -0.1458810
  O        1.6754140    -2.4069960    -0.1279020
  C       -1.0215720    -0.0077180     0.3641480
  C       -2.5139530    -0.0194410     0.5634370
  C       -0.3230660    -1.2073880     0.2343750
  C       -0.3370590     1.2052280     0.2348720
  C       -3.2735700    -0.0197480    -0.7643280
  C        1.0346870     1.2106680    -0.0181020
  C        1.0480560    -1.1910380    -0.0190010
  C        1.7368580     0.0147850    -0.1457440
  H       -2.7927850    -0.9030380     1.1483340
  H       -2.8082890     0.8538600     1.1573130
  H       -0.8312370    -2.1635460     0.3309200
  H       -0.8704638     2.1444288     0.3844477
  H       -3.0230990     0.8672620    -1.3527740
  H       -4.3574070    -0.0294260    -0.6053230
  H       -3.0076490    -0.8981260    -1.3586750
  H        2.8074370     0.0467670    -0.3362510
  H        1.1590650     3.1223080    -0.0299710
  H        2.6215300    -2.2543830    -0.2976190
units angstrom
no_reorient  #important for SAPT in psi4, default
symmetry c1  #important for SAPT in psi4, default
}

set PROPERTIES_ORIGIN ["COM"]
properties('MP2/aug-cc-pvtz', properties = ['dipole'])
--------------------------------------------------------------------------

    Molecular point group: c1
  Charge       = 0
  Multiplicity = 1
  Basis Set: AUG-CC-PVTZ
    Blend: AUG-CC-PVTZ
  Basis Set: (AUG-CC-PVTZ AUX)
    Blend: AUG-CC-PVTZ-JKFIT

    Orbital Energies [Eh]
    ---------------------

    Doubly Occupied:

       1A    -20.595713     2A    -20.593347     3A    -11.310549
       4A    -11.308824     5A    -11.251380     6A    -11.232125
       7A    -11.223982     8A    -11.222733     9A    -11.219628
      10A    -11.215939    11A     -1.405404    12A     -1.401888
      13A     -1.150429    14A     -1.063994    15A     -1.001351
      16A     -0.988001    17A     -0.876573    18A     -0.836706
      19A     -0.808161    20A     -0.739820    21A     -0.687534
      22A     -0.675254    23A     -0.666107    24A     -0.611999
      25A     -0.601970    26A     -0.595486    27A     -0.587486
      28A     -0.576472    29A     -0.552849    30A     -0.549232
      31A     -0.523056    32A     -0.521289    33A     -0.487816
      34A     -0.482671    35A     -0.453983    36A     -0.325938
      37A     -0.311348

  @DF-RHF Final Energy:  -458.66008912322513

   => Energetics <=

    Nuclear Repulsion Energy =            507.4959884500881913
    One-Electron Energy =               -1630.9980764343770261
    Two-Electron Energy =                 664.8419988610637574
    Total Energy =                       -458.6600891232251342
  Basis Set: (AUG-CC-PVTZ AUX)
    Blend: AUG-CC-PVTZ-RI
    Molecular point group: c1

    Geometry (in Angstrom), charge = 0, multiplicity = 1:

       Center              X                  Y                   Z               Mass
    ------------   -----------------  -----------------  -----------------  -----------------
         O            1.762727022629     2.368388876142    -0.146240540766    15.994914619570
         O            1.675352022629    -2.406987123858    -0.128261540766    15.994914619570
         C           -1.021633977371    -0.007709123858     0.363788459234    12.000000000000
         C           -2.514014977371    -0.019432123858     0.563077459234    12.000000000000
         C           -0.323127977371    -1.207379123858     0.234015459234    12.000000000000
         C           -0.337120977371     1.205236876142     0.234512459234    12.000000000000
         C           -3.273631977371    -0.019739123858    -0.764687540766    12.000000000000
         C            1.034625022629     1.210676876142    -0.018461540766    12.000000000000
         C            1.047994022629    -1.191029123858    -0.019360540766    12.000000000000
         C            1.736796022629     0.014793876142    -0.146103540766    12.000000000000
         H           -2.792846977371    -0.903029123858     1.147974459234     1.007825032230
         H           -2.808350977371     0.853868876142     1.156953459234     1.007825032230
         H           -0.831298977371    -2.163537123858     0.330560459234     1.007825032230
         H           -0.870525777371     2.144437676142     0.384088159234     1.007825032230
         H           -3.023160977371     0.867270876142    -1.353133540766     1.007825032230
         H           -4.357468977371    -0.029417123858    -0.605682540766     1.007825032230
         H           -3.007710977371    -0.898117123858    -1.359034540766     1.007825032230
         H            2.807375022629     0.046775876142    -0.336610540766     1.007825032230
         H            1.159003022629     3.122316876142    -0.030330540766     1.007825032230
         H            2.621468022629    -2.254374123858    -0.297978540766     1.007825032230

  Basis Set: AUG-CC-PVTZ
    Blend: AUG-CC-PVTZ
  Basis Set: (AUG-CC-PVTZ AUX)
    Blend: AUG-CC-PVTZ-JKFIT
	 Reference Energy          =    -458.6600891232251342 [Eh]
	 Singles Energy            =      -0.0000000000000000 [Eh]
	 Same-Spin Energy          =      -0.4817396646312500 [Eh]
	 Opposite-Spin Energy      =      -1.5052067358758547 [Eh]
	 Correlation Energy        =      -1.9869464005071047 [Eh]
	 Total Energy              =    -460.6470355237322565 [Eh]

	 ================> DF-SCS-MP2 Energies <==================
	-----------------------------------------------------------
	 SCS Same-Spin Scale       =       0.3333333333333333 [-]
	 SCS Opposite-Spin Scale   =       1.2000000000000000 [-]
	 SCS Same-Spin Energy      =      -0.1605798882104167 [Eh]
	 SCS Opposite-Spin Energy  =      -1.8062480830510257 [Eh]
	 SCS Correlation Energy    =      -1.9668279712614423 [Eh]
	 SCS Total Energy          =    -460.6269170944866005 [Eh]
	-----------------------------------------------------------

  Dipole Moment: [D]
     X:    -0.4897      Y:     1.2196      Z:     0.0411     Total:     1.3149

*** Psi4 exiting successfully. Buy a developer a beer!
