                               Psi4 1.4a2.dev612

  ==> Input File <==

--------------------------------------------------------------------------
#psi4
#
memory 32 gb

molecule  {
0 1
  O        1.7627890     2.3683800    -0.1458810
  O        1.6754140    -2.4069960    -0.1279020
  C       -1.0215720    -0.0077180     0.3641480
  C       -2.5139530    -0.0194410     0.5634370
  C       -0.3230660    -1.2073880     0.2343750
  C       -0.2923951     1.2054259     0.5315285
  C       -3.2735700    -0.0197480    -0.7643280
  C        1.0346870     1.2106680    -0.0181020
  C        1.0480560    -1.1910380    -0.0190010
  C        1.7368580     0.0147850    -0.1457440
  H       -2.7927850    -0.9030380     1.1483340
  H       -2.8082890     0.8538600     1.1573130
  H       -0.8312370    -2.1635460     0.3309200
  H       -0.8789600     2.1456520     0.3351900
  H       -3.0230990     0.8672620    -1.3527740
  H       -4.3574070    -0.0294260    -0.6053230
  H       -3.0076490    -0.8981260    -1.3586750
  H        2.8074370     0.0467670    -0.3362510
  H        1.1590650     3.1223080    -0.0299710
  H        2.6215300    -2.2543830    -0.2976190
units angstrom
no_reorient  #important for SAPT in psi4, default
symmetry c1  #important for SAPT in psi4, default
}

set PROPERTIES_ORIGIN ["COM"]
properties('MP2/aug-cc-pvtz', properties = ['dipole'])
--------------------------------------------------------------------------

    Molecular point group: c1
  Charge       = 0
  Multiplicity = 1
  Basis Set: AUG-CC-PVTZ
    Blend: AUG-CC-PVTZ
  Basis Set: (AUG-CC-PVTZ AUX)
    Blend: AUG-CC-PVTZ-JKFIT

    Orbital Energies [Eh]
    ---------------------

    Doubly Occupied:

       1A    -20.598245     2A    -20.597463     3A    -11.318917
       4A    -11.314546     5A    -11.257962     6A    -11.232150
       7A    -11.229221     8A    -11.224394     9A    -11.220945
      10A    -11.215624    11A     -1.407711    12A     -1.405043
      13A     -1.147689    14A     -1.064595    15A     -0.998194
      16A     -0.987426    17A     -0.875430    18A     -0.837582
      19A     -0.807161    20A     -0.734038    21A     -0.684588
      22A     -0.677018    23A     -0.661407    24A     -0.616796
      25A     -0.601833    26A     -0.594873    27A     -0.588097
      28A     -0.578775    29A     -0.551032    30A     -0.548001
      31A     -0.521294    32A     -0.515739    33A     -0.487922
      34A     -0.478316    35A     -0.450660    36A     -0.326811
      37A     -0.311823

  @DF-RHF Final Energy:  -458.63607184737532

   => Energetics <=

    Nuclear Repulsion Energy =            506.0446077809800727
    One-Electron Energy =               -1628.0227159718672283
    Two-Electron Energy =                 663.3420363435119498
    Total Energy =                       -458.6360718473753195
  Basis Set: (AUG-CC-PVTZ AUX)
    Blend: AUG-CC-PVTZ-RI
    Molecular point group: c1

    Geometry (in Angstrom), charge = 0, multiplicity = 1:

       Center              X                  Y                   Z               Mass
    ------------   -----------------  -----------------  -----------------  -----------------
         O            1.758907138130     2.368362747209    -0.171664482839    15.994914619570
         O            1.671532138130    -2.407013252791    -0.153685482839    15.994914619570
         C           -1.025453861870    -0.007735252791     0.338364517161    12.000000000000
         C           -2.517834861870    -0.019458252791     0.537653517161    12.000000000000
         C           -0.326947861870    -1.207405252791     0.208591517161    12.000000000000
         C           -0.296276961870     1.205408647209     0.505745017161    12.000000000000
         C           -3.277451861870    -0.019765252791    -0.790111482839    12.000000000000
         C            1.030805138130     1.210650747209    -0.043885482839    12.000000000000
         C            1.044174138130    -1.191055252791    -0.044784482839    12.000000000000
         C            1.732976138130     0.014767747209    -0.171527482839    12.000000000000
         H           -2.796666861870    -0.903055252791     1.122550517161     1.007825032230
         H           -2.812170861870     0.853842747209     1.131529517161     1.007825032230
         H           -0.835118861870    -2.163563252791     0.305136517161     1.007825032230
         H           -0.882841861870     2.145634747209     0.309406517161     1.007825032230
         H           -3.026980861870     0.867244747209    -1.378557482839     1.007825032230
         H           -4.361288861870    -0.029443252791    -0.631106482839     1.007825032230
         H           -3.011530861870    -0.898143252791    -1.384458482839     1.007825032230
         H            2.803555138130     0.046749747209    -0.362034482839     1.007825032230
         H            1.155183138130     3.122290747209    -0.055754482839     1.007825032230
         H            2.617648138130    -2.254400252791    -0.323402482839     1.007825032230

  Basis Set: AUG-CC-PVTZ
    Blend: AUG-CC-PVTZ
  Basis Set: (AUG-CC-PVTZ AUX)
    Blend: AUG-CC-PVTZ-JKFIT
	 Reference Energy          =    -458.6360718473753195 [Eh]
	 Singles Energy            =      -0.0000000000000000 [Eh]
	 Same-Spin Energy          =      -0.4823583977022866 [Eh]
	 Opposite-Spin Energy      =      -1.5078699573371757 [Eh]
	 Correlation Energy        =      -1.9902283550394622 [Eh]
	 Total Energy              =    -460.6263002024147681 [Eh]

	 ================> DF-SCS-MP2 Energies <==================
	-----------------------------------------------------------
	 SCS Same-Spin Scale       =       0.3333333333333333 [-]
	 SCS Opposite-Spin Scale   =       1.2000000000000000 [-]
	 SCS Same-Spin Energy      =      -0.1607861325674289 [Eh]
	 SCS Opposite-Spin Energy  =      -1.8094439488046108 [Eh]
	 SCS Correlation Energy    =      -1.9702300813720397 [Eh]
	 SCS Total Energy          =    -460.6063019287473708 [Eh]
	-----------------------------------------------------------

  Dipole Moment: [D]
     X:    -0.3863      Y:     1.0302      Z:    -0.2360     Total:     1.1253

*** Psi4 exiting successfully. Buy a developer a beer!
