                               Psi4 1.4a2.dev612

  ==> Input File <==

--------------------------------------------------------------------------
#psi4
#
memory 32 gb

molecule  {
0 1
  O        1.7627890     2.3683800    -0.1458810
  O        1.6754140    -2.4069960    -0.1279020
  C       -1.0215720    -0.0077180     0.3641480
  C       -2.5139530    -0.0194410     0.5634370
  C       -0.3230660    -1.2073880     0.2343750
  C       -0.2998391     1.2053929     0.4820858
  C       -3.2735700    -0.0197480    -0.7643280
  C        1.0346870     1.2106680    -0.0181020
  C        1.0480560    -1.1910380    -0.0190010
  C        1.7368580     0.0147850    -0.1457440
  H       -2.7927850    -0.9030380     1.1483340
  H       -2.8082890     0.8538600     1.1573130
  H       -0.8312370    -2.1635460     0.3309200
  H       -0.8789600     2.1456520     0.3351900
  H       -3.0230990     0.8672620    -1.3527740
  H       -4.3574070    -0.0294260    -0.6053230
  H       -3.0076490    -0.8981260    -1.3586750
  H        2.8074370     0.0467670    -0.3362510
  H        1.1590650     3.1223080    -0.0299710
  H        2.6215300    -2.2543830    -0.2976190
units angstrom
no_reorient  #important for SAPT in psi4, default
symmetry c1  #important for SAPT in psi4, default
}

set PROPERTIES_ORIGIN ["COM"]
properties('MP2/aug-cc-pvtz', properties = ['dipole'])
--------------------------------------------------------------------------

    Molecular point group: c1
  Charge       = 0
  Multiplicity = 1
  Basis Set: AUG-CC-PVTZ
    Blend: AUG-CC-PVTZ
  Basis Set: (AUG-CC-PVTZ AUX)
    Blend: AUG-CC-PVTZ-JKFIT

    Orbital Energies [Eh]
    ---------------------

    Doubly Occupied:

       1A    -20.597563     2A    -20.596196     3A    -11.316665
       4A    -11.312797     5A    -11.255968     6A    -11.232094
       7A    -11.227353     8A    -11.224252     9A    -11.220677
      10A    -11.215571    11A     -1.406981    12A     -1.404156
      13A     -1.148425    14A     -1.064392    15A     -0.998853
      16A     -0.987964    17A     -0.875773    18A     -0.837396
      19A     -0.807259    20A     -0.735552    21A     -0.685272
      22A     -0.676535    23A     -0.662879    24A     -0.615906
      25A     -0.601954    26A     -0.594705    27A     -0.587935
      28A     -0.578104    29A     -0.551486    30A     -0.548410
      31A     -0.522230    32A     -0.517499    33A     -0.487896
      34A     -0.479666    35A     -0.451636    36A     -0.326576
      37A     -0.311490

  @DF-RHF Final Energy:  -458.64359377712395

   => Energetics <=

    Nuclear Repulsion Energy =            506.4275492514604480
    One-Electron Energy =               -1628.8101567772089311
    Two-Electron Energy =                 663.7390137486244157
    Total Energy =                       -458.6435937771240106
  Basis Set: (AUG-CC-PVTZ AUX)
    Blend: AUG-CC-PVTZ-RI
    Molecular point group: c1

    Geometry (in Angstrom), charge = 0, multiplicity = 1:

       Center              X                  Y                   Z               Mass
    ------------   -----------------  -----------------  -----------------  -----------------
         O            1.759554123300     2.368365615360    -0.167367237582    15.994914619570
         O            1.672179123300    -2.407010384640    -0.149388237582    15.994914619570
         C           -1.024806876700    -0.007732384640     0.342661762418    12.000000000000
         C           -2.517187876700    -0.019455384640     0.541950762418    12.000000000000
         C           -0.326300876700    -1.207402384640     0.212888762418    12.000000000000
         C           -0.303073976700     1.205378515360     0.460599562418    12.000000000000
         C           -3.276804876700    -0.019762384640    -0.785814237582    12.000000000000
         C            1.031452123300     1.210653615360    -0.039588237582    12.000000000000
         C            1.044821123300    -1.191052384640    -0.040487237582    12.000000000000
         C            1.733623123300     0.014770615360    -0.167230237582    12.000000000000
         H           -2.796019876700    -0.903052384640     1.126847762418     1.007825032230
         H           -2.811523876700     0.853845615360     1.135826762418     1.007825032230
         H           -0.834471876700    -2.163560384640     0.309433762418     1.007825032230
         H           -0.882194876700     2.145637615360     0.313703762418     1.007825032230
         H           -3.026333876700     0.867247615360    -1.374260237582     1.007825032230
         H           -4.360641876700    -0.029440384640    -0.626809237582     1.007825032230
         H           -3.010883876700    -0.898140384640    -1.380161237582     1.007825032230
         H            2.804202123300     0.046752615360    -0.357737237582     1.007825032230
         H            1.155830123300     3.122293615360    -0.051457237582     1.007825032230
         H            2.618295123300    -2.254397384640    -0.319105237582     1.007825032230

  Basis Set: AUG-CC-PVTZ
    Blend: AUG-CC-PVTZ
  Basis Set: (AUG-CC-PVTZ AUX)
    Blend: AUG-CC-PVTZ-JKFIT
	 Reference Energy          =    -458.6435937771239537 [Eh]
	 Singles Energy            =      -0.0000000000000000 [Eh]
	 Same-Spin Energy          =      -0.4821566575979038 [Eh]
	 Opposite-Spin Energy      =      -1.5070231483571899 [Eh]
	 Correlation Energy        =      -1.9891798059550936 [Eh]
	 Total Energy              =    -460.6327735830790289 [Eh]

	 ================> DF-SCS-MP2 Energies <==================
	-----------------------------------------------------------
	 SCS Same-Spin Scale       =       0.3333333333333333 [-]
	 SCS Opposite-Spin Scale   =       1.2000000000000000 [-]
	 SCS Same-Spin Energy      =      -0.1607188858659679 [Eh]
	 SCS Opposite-Spin Energy  =      -1.8084277780286278 [Eh]
	 SCS Correlation Energy    =      -1.9691466638945956 [Eh]
	 SCS Total Energy          =    -460.6127404410185591 [Eh]
	-----------------------------------------------------------

  Dipole Moment: [D]
     X:    -0.4233      Y:     1.0896      Z:    -0.1880     Total:     1.1840

*** Psi4 exiting successfully. Buy a developer a beer!
