                               Psi4 1.4a2.dev612

  ==> Input File <==

--------------------------------------------------------------------------
#psi4
#
memory 32 gb

molecule  {
0 1
  O        1.7627890     2.3683800    -0.1458810
  O        1.6754140    -2.4069960    -0.1279020
  C       -1.0215720    -0.0077180     0.3641480
  C       -2.5139530    -0.0194410     0.5634370
  C       -0.3230660    -1.2073880     0.2343750
  C       -0.3072831     1.2053600     0.4326430
  C       -3.2735700    -0.0197480    -0.7643280
  C        1.0346870     1.2106680    -0.0181020
  C        1.0480560    -1.1910380    -0.0190010
  C        1.7368580     0.0147850    -0.1457440
  H       -2.7927850    -0.9030380     1.1483340
  H       -2.8082890     0.8538600     1.1573130
  H       -0.8312370    -2.1635460     0.3309200
  H       -0.8789600     2.1456520     0.3351900
  H       -3.0230990     0.8672620    -1.3527740
  H       -4.3574070    -0.0294260    -0.6053230
  H       -3.0076490    -0.8981260    -1.3586750
  H        2.8074370     0.0467670    -0.3362510
  H        1.1590650     3.1223080    -0.0299710
  H        2.6215300    -2.2543830    -0.2976190
units angstrom
no_reorient  #important for SAPT in psi4, default
symmetry c1  #important for SAPT in psi4, default
}

set PROPERTIES_ORIGIN ["COM"]
properties('MP2/aug-cc-pvtz', properties = ['dipole'])
--------------------------------------------------------------------------

    Molecular point group: c1
  Charge       = 0
  Multiplicity = 1
  Basis Set: AUG-CC-PVTZ
    Blend: AUG-CC-PVTZ
  Basis Set: (AUG-CC-PVTZ AUX)
    Blend: AUG-CC-PVTZ-JKFIT

    Orbital Energies [Eh]
    ---------------------

    Doubly Occupied:

       1A    -20.596978     2A    -20.595162     3A    -11.314703
       4A    -11.311362     5A    -11.254296     6A    -11.232058
       7A    -11.225779     8A    -11.224149     9A    -11.220437
      10A    -11.215576    11A     -1.406424    12A     -1.403370
      13A     -1.149071    14A     -1.064236    15A     -0.999544
      16A     -0.988236    17A     -0.876060    18A     -0.837234
      19A     -0.807425    20A     -0.736896    21A     -0.686003
      22A     -0.676100    23A     -0.664106    24A     -0.615037
      25A     -0.602063    26A     -0.594640    27A     -0.587818
      28A     -0.577537    29A     -0.551833    30A     -0.548886
      31A     -0.523096    32A     -0.518676    33A     -0.487866
      34A     -0.480715    35A     -0.452441    36A     -0.326403
      37A     -0.311270

  @DF-RHF Final Energy:  -458.64967907779686

   => Energetics <=

    Nuclear Repulsion Energy =            506.7575072501184081
    One-Electron Energy =               -1629.4873973422431845
    Two-Electron Energy =                 664.0802110143279151
    Total Energy =                       -458.6496790777969181
  Basis Set: (AUG-CC-PVTZ AUX)
    Blend: AUG-CC-PVTZ-RI
    Molecular point group: c1

    Geometry (in Angstrom), charge = 0, multiplicity = 1:

       Center              X                  Y                   Z               Mass
    ------------   -----------------  -----------------  -----------------  -----------------
         O            1.760201108471     2.368368474819    -0.163069983634    15.994914619570
         O            1.672826108471    -2.407007525181    -0.145090983634    15.994914619570
         C           -1.024159891529    -0.007729525182     0.346959016366    12.000000000000
         C           -2.516540891529    -0.019452525182     0.546248016366    12.000000000000
         C           -0.325653891529    -1.207399525182     0.217186016366    12.000000000000
         C           -0.309870991529     1.205348474818     0.415454016366    12.000000000000
         C           -3.276157891529    -0.019759525182    -0.781516983634    12.000000000000
         C            1.032099108471     1.210656474818    -0.035290983634    12.000000000000
         C            1.045468108471    -1.191049525182    -0.036189983634    12.000000000000
         C            1.734270108471     0.014773474818    -0.162932983634    12.000000000000
         H           -2.795372891529    -0.903049525182     1.131145016366     1.007825032230
         H           -2.810876891529     0.853848474818     1.140124016366     1.007825032230
         H           -0.833824891529    -2.163557525182     0.313731016366     1.007825032230
         H           -0.881547891529     2.145640474819     0.318001016366     1.007825032230
         H           -3.025686891529     0.867250474818    -1.369962983634     1.007825032230
         H           -4.359994891529    -0.029437525182    -0.622511983634     1.007825032230
         H           -3.010236891529    -0.898137525182    -1.375863983634     1.007825032230
         H            2.804849108471     0.046755474818    -0.353439983634     1.007825032230
         H            1.156477108471     3.122296474818    -0.047159983634     1.007825032230
         H            2.618942108471    -2.254394525181    -0.314807983634     1.007825032230

  Basis Set: AUG-CC-PVTZ
    Blend: AUG-CC-PVTZ
  Basis Set: (AUG-CC-PVTZ AUX)
    Blend: AUG-CC-PVTZ-JKFIT
	 Reference Energy          =    -458.6496790777968613 [Eh]
	 Singles Energy            =      -0.0000000000000000 [Eh]
	 Same-Spin Energy          =      -0.4819862978012939 [Eh]
	 Opposite-Spin Energy      =      -1.5063270028765228 [Eh]
	 Correlation Energy        =      -1.9883133006778166 [Eh]
	 Total Energy              =    -460.6379923784746779 [Eh]

	 ================> DF-SCS-MP2 Energies <==================
	-----------------------------------------------------------
	 SCS Same-Spin Scale       =       0.3333333333333333 [-]
	 SCS Opposite-Spin Scale   =       1.2000000000000000 [-]
	 SCS Same-Spin Energy      =      -0.1606620992670980 [Eh]
	 SCS Opposite-Spin Energy  =      -1.8075924034518271 [Eh]
	 SCS Correlation Energy    =      -1.9682545027189251 [Eh]
	 SCS Total Energy          =    -460.6179335805157962 [Eh]
	-----------------------------------------------------------

  Dipole Moment: [D]
     X:    -0.4533      Y:     1.1384      Z:    -0.1431     Total:     1.2337

*** Psi4 exiting successfully. Buy a developer a beer!
