                               Psi4 1.4a2.dev612

  ==> Input File <==

--------------------------------------------------------------------------
#psi4
#
memory 32 gb

molecule  {
0 1
  O        1.7627890     2.3683800    -0.1458810
  O        1.6754140    -2.4069960    -0.1279020
  C       -1.0215720    -0.0077180     0.3641480
  C       -2.5139530    -0.0194410     0.5634370
  C       -0.3230660    -1.2073880     0.2343750
  C       -0.3370590     1.2052280     0.2348720
  C       -3.2735700    -0.0197480    -0.7643280
  C        1.0346870     1.2106680    -0.0181020
  C        1.0480560    -1.1910380    -0.0190010
  C        1.7368580     0.0147850    -0.1457440
  H       -2.7927850    -0.9030380     1.1483340
  H       -2.8082890     0.8538600     1.1573130
  H       -0.8312370    -2.1635460     0.3309200
  H       -0.8534714     2.1419825     0.4829630
  H       -3.0230990     0.8672620    -1.3527740
  H       -4.3574070    -0.0294260    -0.6053230
  H       -3.0076490    -0.8981260    -1.3586750
  H        2.8074370     0.0467670    -0.3362510
  H        1.1590650     3.1223080    -0.0299710
  H        2.6215300    -2.2543830    -0.2976190
units angstrom
no_reorient  #important for SAPT in psi4, default
symmetry c1  #important for SAPT in psi4, default
}

set PROPERTIES_ORIGIN ["COM"]
properties('MP2/aug-cc-pvtz', properties = ['dipole'])
--------------------------------------------------------------------------

    Molecular point group: c1
  Charge       = 0
  Multiplicity = 1
  Basis Set: AUG-CC-PVTZ
    Blend: AUG-CC-PVTZ
  Basis Set: (AUG-CC-PVTZ AUX)
    Blend: AUG-CC-PVTZ-JKFIT

    Orbital Energies [Eh]
    ---------------------

    Doubly Occupied:

       1A    -20.595765     2A    -20.593563     3A    -11.310791
       4A    -11.309108     5A    -11.251545     6A    -11.232159
       7A    -11.224092     8A    -11.223304     9A    -11.219432
      10A    -11.216026    11A     -1.405475    12A     -1.402059
      13A     -1.150511    14A     -1.064014    15A     -1.001265
      16A     -0.987948    17A     -0.876410    18A     -0.836597
      19A     -0.808206    20A     -0.739861    21A     -0.686985
      22A     -0.675367    23A     -0.665631    24A     -0.612167
      25A     -0.601270    26A     -0.595697    27A     -0.587540
      28A     -0.576550    29A     -0.552732    30A     -0.549468
      31A     -0.521601    32A     -0.521483    33A     -0.487861
      34A     -0.482643    35A     -0.453856    36A     -0.326022
      37A     -0.311425

  @DF-RHF Final Energy:  -458.65904869047006

   => Energetics <=

    Nuclear Repulsion Energy =            507.4488169303465384
    One-Electron Energy =               -1630.9028765030777777
    Two-Electron Energy =                 664.7950108822611810
    Total Energy =                       -458.6590486904700583
  Basis Set: (AUG-CC-PVTZ AUX)
    Blend: AUG-CC-PVTZ-RI
    Molecular point group: c1

    Geometry (in Angstrom), charge = 0, multiplicity = 1:

       Center              X                  Y                   Z               Mass
    ------------   -----------------  -----------------  -----------------  -----------------
         O            1.762602986964     2.368406732857    -0.146959651119    15.994914619570
         O            1.675227986964    -2.406969267143    -0.128980651119    15.994914619570
         C           -1.021758013036    -0.007691267143     0.363069348881    12.000000000000
         C           -2.514139013036    -0.019414267143     0.562358348881    12.000000000000
         C           -0.323252013036    -1.207361267143     0.233296348881    12.000000000000
         C           -0.337245013036     1.205254732857     0.233793348881    12.000000000000
         C           -3.273756013036    -0.019721267143    -0.765406651119    12.000000000000
         C            1.034500986964     1.210694732857    -0.019180651119    12.000000000000
         C            1.047869986964    -1.191011267143    -0.020079651119    12.000000000000
         C            1.736671986964     0.014811732857    -0.146822651119    12.000000000000
         H           -2.792971013036    -0.903011267143     1.147255348881     1.007825032230
         H           -2.808475013036     0.853886732857     1.156234348881     1.007825032230
         H           -0.831423013036    -2.163519267143     0.329841348881     1.007825032230
         H           -0.853657413036     2.142009232857     0.481884348881     1.007825032230
         H           -3.023285013036     0.867288732857    -1.353852651119     1.007825032230
         H           -4.357593013036    -0.029399267143    -0.606401651119     1.007825032230
         H           -3.007835013036    -0.898099267143    -1.359753651119     1.007825032230
         H            2.807250986964     0.046793732857    -0.337329651119     1.007825032230
         H            1.158878986964     3.122334732857    -0.031049651119     1.007825032230
         H            2.621343986964    -2.254356267143    -0.298697651119     1.007825032230

  Basis Set: AUG-CC-PVTZ
    Blend: AUG-CC-PVTZ
  Basis Set: (AUG-CC-PVTZ AUX)
    Blend: AUG-CC-PVTZ-JKFIT
	 Reference Energy          =    -458.6590486904700583 [Eh]
	 Singles Energy            =      -0.0000000000000000 [Eh]
	 Same-Spin Energy          =      -0.4817984589548572 [Eh]
	 Opposite-Spin Energy      =      -1.5053005554656604 [Eh]
	 Correlation Energy        =      -1.9870990144205176 [Eh]
	 Total Energy              =    -460.6461477048905522 [Eh]

	 ================> DF-SCS-MP2 Energies <==================
	-----------------------------------------------------------
	 SCS Same-Spin Scale       =       0.3333333333333333 [-]
	 SCS Opposite-Spin Scale   =       1.2000000000000000 [-]
	 SCS Same-Spin Energy      =      -0.1605994863182857 [Eh]
	 SCS Opposite-Spin Energy  =      -1.8063606665587923 [Eh]
	 SCS Correlation Energy    =      -1.9669601528770781 [Eh]
	 SCS Total Energy          =    -460.6260088433471083 [Eh]
	-----------------------------------------------------------

  Dipole Moment: [D]
     X:    -0.4660      Y:     1.2027      Z:     0.1026     Total:     1.2939

*** Psi4 exiting successfully. Buy a developer a beer!
