                               Psi4 1.4a2.dev612

  ==> Input File <==

--------------------------------------------------------------------------
#psi4
#
memory 32 gb

molecule  {
0 1
  O        1.7627890     2.3683800    -0.1458810
  O        1.6754140    -2.4069960    -0.1279020
  C       -1.0215720    -0.0077180     0.3641480
  C       -2.5139530    -0.0194410     0.5634370
  C       -0.3230660    -1.2073880     0.2343750
  C       -0.3370590     1.2052280     0.2348720
  C       -3.2735700    -0.0197480    -0.7643280
  C        1.0346870     1.2106680    -0.0181020
  C        1.0480560    -1.1910380    -0.0190010
  C        1.7368580     0.0147850    -0.1457440
  H       -2.7927850    -0.9030380     1.1483340
  H       -2.8082890     0.8538600     1.1573130
  H       -0.8312370    -2.1635460     0.3309200
  H       -0.8449753     2.1407593     0.5322207
  H       -3.0230990     0.8672620    -1.3527740
  H       -4.3574070    -0.0294260    -0.6053230
  H       -3.0076490    -0.8981260    -1.3586750
  H        2.8074370     0.0467670    -0.3362510
  H        1.1590650     3.1223080    -0.0299710
  H        2.6215300    -2.2543830    -0.2976190
units angstrom
no_reorient  #important for SAPT in psi4, default
symmetry c1  #important for SAPT in psi4, default
}

set PROPERTIES_ORIGIN ["COM"]
properties('MP2/aug-cc-pvtz', properties = ['dipole'])
--------------------------------------------------------------------------

    Molecular point group: c1
  Charge       = 0
  Multiplicity = 1
  Basis Set: AUG-CC-PVTZ
    Blend: AUG-CC-PVTZ
  Basis Set: (AUG-CC-PVTZ AUX)
    Blend: AUG-CC-PVTZ-JKFIT

    Orbital Energies [Eh]
    ---------------------

    Doubly Occupied:

       1A    -20.595802     2A    -20.593749     3A    -11.310990
       4A    -11.309354     5A    -11.251705     6A    -11.232173
       7A    -11.224183     8A    -11.223867     9A    -11.219342
      10A    -11.216111    11A     -1.405534    12A     -1.402204
      13A     -1.150583    14A     -1.064049    15A     -1.001189
      16A     -0.987908    17A     -0.876323    18A     -0.836477
      19A     -0.808245    20A     -0.739905    21A     -0.686571
      22A     -0.675464    23A     -0.665083    24A     -0.612274
      25A     -0.601009    26A     -0.595662    27A     -0.587587
      28A     -0.576629    29A     -0.552597    30A     -0.549583
      31A     -0.521573    32A     -0.520644    33A     -0.487877
      34A     -0.482656    35A     -0.453711    36A     -0.326096
      37A     -0.311490

  @DF-RHF Final Energy:  -458.65807867576746

   => Energetics <=

    Nuclear Repulsion Energy =            507.4114003488458593
    One-Electron Energy =               -1630.8265632785428352
    Two-Electron Energy =                 664.7570842539296336
    Total Energy =                       -458.6580786757674559
  Basis Set: (AUG-CC-PVTZ AUX)
    Blend: AUG-CC-PVTZ-RI
    Molecular point group: c1

    Geometry (in Angstrom), charge = 0, multiplicity = 1:

       Center              X                  Y                   Z               Mass
    ------------   -----------------  -----------------  -----------------  -----------------
         O            1.762540969861     2.368415661580    -0.147319206660    15.994914619570
         O            1.675165969861    -2.406960338420    -0.129340206660    15.994914619570
         C           -1.021820030139    -0.007682338420     0.362709793340    12.000000000000
         C           -2.514201030139    -0.019405338420     0.561998793340    12.000000000000
         C           -0.323314030139    -1.207352338420     0.232936793340    12.000000000000
         C           -0.337307030139     1.205263661580     0.233433793340    12.000000000000
         C           -3.273818030139    -0.019712338420    -0.765766206660    12.000000000000
         C            1.034438969861     1.210703661580    -0.019540206660    12.000000000000
         C            1.047807969861    -1.191002338420    -0.020439206660    12.000000000000
         C            1.736609969861     0.014820661580    -0.147182206660    12.000000000000
         H           -2.793033030139    -0.903002338420     1.146895793340     1.007825032230
         H           -2.808537030139     0.853895661580     1.155874793340     1.007825032230
         H           -0.831485030139    -2.163510338420     0.329481793340     1.007825032230
         H           -0.845223330139     2.140794961580     0.530782493340     1.007825032230
         H           -3.023347030139     0.867297661580    -1.354212206660     1.007825032230
         H           -4.357655030139    -0.029390338420    -0.606761206660     1.007825032230
         H           -3.007897030139    -0.898090338420    -1.360113206660     1.007825032230
         H            2.807188969861     0.046802661580    -0.337689206660     1.007825032230
         H            1.158816969861     3.122343661580    -0.031409206660     1.007825032230
         H            2.621281969861    -2.254347338420    -0.299057206660     1.007825032230

  Basis Set: AUG-CC-PVTZ
    Blend: AUG-CC-PVTZ
  Basis Set: (AUG-CC-PVTZ AUX)
    Blend: AUG-CC-PVTZ-JKFIT
	 Reference Energy          =    -458.6580786757674559 [Eh]
	 Singles Energy            =      -0.0000000000000000 [Eh]
	 Same-Spin Energy          =      -0.4818484352474229 [Eh]
	 Opposite-Spin Energy      =      -1.5053979451409187 [Eh]
	 Correlation Energy        =      -1.9872463803883416 [Eh]
	 Total Energy              =    -460.6453250561557979 [Eh]

	 ================> DF-SCS-MP2 Energies <==================
	-----------------------------------------------------------
	 SCS Same-Spin Scale       =       0.3333333333333333 [-]
	 SCS Opposite-Spin Scale   =       1.2000000000000000 [-]
	 SCS Same-Spin Energy      =      -0.1606161450824743 [Eh]
	 SCS Opposite-Spin Energy  =      -1.8064775341691024 [Eh]
	 SCS Correlation Energy    =      -1.9670936792515767 [Eh]
	 SCS Total Energy          =    -460.6251723550190604 [Eh]
	-----------------------------------------------------------

  Dipole Moment: [D]
     X:    -0.4508      Y:     1.1875      Z:     0.1320     Total:     1.2770

*** Psi4 exiting successfully. Buy a developer a beer!
