                               Psi4 1.4a2.dev612

  ==> Input File <==

--------------------------------------------------------------------------
#psi4
#
memory 32 gb

molecule  {
0 1
  O        1.7627890     2.3683800    -0.1458810
  O        1.6754140    -2.4069960    -0.1279020
  C       -1.0215720    -0.0077180     0.3641480
  C       -2.5139530    -0.0194410     0.5634370
  C       -0.3230660    -1.2073880     0.2343750
  C       -0.3370590     1.2052280     0.2348720
  C       -3.2735700    -0.0197480    -0.7643280
  C        1.0346870     1.2106680    -0.0181020
  C        1.0480560    -1.1910380    -0.0190010
  C        1.7458302     0.0146890    -0.0965557
  H       -2.7927850    -0.9030380     1.1483340
  H       -2.8082890     0.8538600     1.1573130
  H       -0.8312370    -2.1635460     0.3309200
  H       -0.8789600     2.1456520     0.3351900
  H       -3.0230990     0.8672620    -1.3527740
  H       -4.3574070    -0.0294260    -0.6053230
  H       -3.0076490    -0.8981260    -1.3586750
  H        2.8074370     0.0467670    -0.3362510
  H        1.1590650     3.1223080    -0.0299710
  H        2.6215300    -2.2543830    -0.2976190
units angstrom
no_reorient  #important for SAPT in psi4, default
symmetry c1  #important for SAPT in psi4, default
}

set PROPERTIES_ORIGIN ["COM"]
properties('MP2/aug-cc-pvtz', properties = ['dipole'])
--------------------------------------------------------------------------

    Molecular point group: c1
  Charge       = 0
  Multiplicity = 1
  Basis Set: AUG-CC-PVTZ
    Blend: AUG-CC-PVTZ
  Basis Set: (AUG-CC-PVTZ AUX)
    Blend: AUG-CC-PVTZ-JKFIT

    Orbital Energies [Eh]
    ---------------------

    Doubly Occupied:

       1A    -20.595745     2A    -20.593343     3A    -11.310696
       4A    -11.308945     5A    -11.251497     6A    -11.232175
       7A    -11.224113     8A    -11.222742     9A    -11.219795
      10A    -11.215944    11A     -1.405418    12A     -1.401887
      13A     -1.150382    14A     -1.063948    15A     -1.001359
      16A     -0.987950    17A     -0.876664    18A     -0.836546
      19A     -0.808179    20A     -0.739823    21A     -0.687450
      22A     -0.675121    23A     -0.666032    24A     -0.611615
      25A     -0.602120    26A     -0.595892    27A     -0.587461
      28A     -0.576609    29A     -0.552663    30A     -0.548927
      31A     -0.523427    32A     -0.521042    33A     -0.487840
      34A     -0.482731    35A     -0.453963    36A     -0.325923
      37A     -0.311332

  @DF-RHF Final Energy:  -458.65953626326757

   => Energetics <=

    Nuclear Repulsion Energy =            507.4602486881240111
    One-Electron Energy =               -1630.9249733172953256
    Two-Electron Energy =                 664.8051883659037458
    Total Energy =                       -458.6595362632675688
  Basis Set: (AUG-CC-PVTZ AUX)
    Blend: AUG-CC-PVTZ-RI
    Molecular point group: c1

    Geometry (in Angstrom), charge = 0, multiplicity = 1:

       Center              X                  Y                   Z               Mass
    ------------   -----------------  -----------------  -----------------  -----------------
         O            1.762009233859     2.368388291129    -0.150156119650    15.994914619570
         O            1.674634233859    -2.406987708871    -0.132177119650    15.994914619570
         C           -1.022351766141    -0.007709708871     0.359872880350    12.000000000000
         C           -2.514732766141    -0.019432708871     0.559161880350    12.000000000000
         C           -0.323845766141    -1.207379708871     0.230099880350    12.000000000000
         C           -0.337838766141     1.205236291129     0.230596880350    12.000000000000
         C           -3.274349766141    -0.019739708871    -0.768603119650    12.000000000000
         C            1.033907233859     1.210676291129    -0.022377119650    12.000000000000
         C            1.047276233859    -1.191029708871    -0.023276119650    12.000000000000
         C            1.745050433859     0.014697291129    -0.100830819650    12.000000000000
         H           -2.793564766141    -0.903029708871     1.144058880350     1.007825032230
         H           -2.809068766141     0.853868291129     1.153037880350     1.007825032230
         H           -0.832016766141    -2.163537708871     0.326644880350     1.007825032230
         H           -0.879739766141     2.145660291129     0.330914880350     1.007825032230
         H           -3.023878766141     0.867270291129    -1.357049119650     1.007825032230
         H           -4.358186766141    -0.029417708871    -0.609598119650     1.007825032230
         H           -3.008428766141    -0.898117708871    -1.362950119650     1.007825032230
         H            2.806657233859     0.046775291129    -0.340526119650     1.007825032230
         H            1.158285233859     3.122316291129    -0.034246119650     1.007825032230
         H            2.620750233859    -2.254374708871    -0.301894119650     1.007825032230

  Basis Set: AUG-CC-PVTZ
    Blend: AUG-CC-PVTZ
  Basis Set: (AUG-CC-PVTZ AUX)
    Blend: AUG-CC-PVTZ-JKFIT
	 Reference Energy          =    -458.6595362632675688 [Eh]
	 Singles Energy            =      -0.0000000000000000 [Eh]
	 Same-Spin Energy          =      -0.4817556062654066 [Eh]
	 Opposite-Spin Energy      =      -1.5052626361828416 [Eh]
	 Correlation Energy        =      -1.9870182424482483 [Eh]
	 Total Energy              =    -460.6465545057158124 [Eh]

	 ================> DF-SCS-MP2 Energies <==================
	-----------------------------------------------------------
	 SCS Same-Spin Scale       =       0.3333333333333333 [-]
	 SCS Opposite-Spin Scale   =       1.2000000000000000 [-]
	 SCS Same-Spin Energy      =      -0.1605852020884689 [Eh]
	 SCS Opposite-Spin Energy  =      -1.8063151634194099 [Eh]
	 SCS Correlation Energy    =      -1.9669003655078787 [Eh]
	 SCS Total Energy          =    -460.6264366287754228 [Eh]
	-----------------------------------------------------------

  Dipole Moment: [D]
     X:    -0.5107      Y:     1.2212      Z:    -0.0254     Total:     1.3239

*** Psi4 exiting successfully. Buy a developer a beer!
