                               Psi4 1.4a2.dev612

  ==> Input File <==

--------------------------------------------------------------------------
#psi4
#
memory 32 gb

molecule  {
0 1
  O        1.7627890     2.3683800    -0.1458810
  O        1.6754140    -2.4069960    -0.1279020
  C       -1.0215720    -0.0077180     0.3641480
  C       -2.5139530    -0.0194410     0.5634370
  C       -0.3230660    -1.2073880     0.2343750
  C       -0.3370590     1.2052280     0.2348720
  C       -3.2735700    -0.0197480    -0.7643280
  C        1.0346870     1.2106680    -0.0181020
  C        1.0480560    -1.1910380    -0.0190010
  C        1.7368580     0.0147850    -0.1457440
  H       -2.7927850    -0.9030380     1.1483340
  H       -2.8082890     0.8538600     1.1573130
  H       -0.8312370    -2.1635460     0.3309200
  H       -0.8789600     2.1456520     0.3351900
  H       -3.0230990     0.8672620    -1.3527740
  H       -4.3574070    -0.0294260    -0.6053230
  H       -3.0076490    -0.8981260    -1.3586750
  H        2.8251407     0.0468287    -0.2378306
  H        1.1590650     3.1223080    -0.0299710
  H        2.6215300    -2.2543830    -0.2976190
units angstrom
no_reorient  #important for SAPT in psi4, default
symmetry c1  #important for SAPT in psi4, default
}

set PROPERTIES_ORIGIN ["COM"]
properties('MP2/aug-cc-pvtz', properties = ['dipole'])
--------------------------------------------------------------------------

    Molecular point group: c1
  Charge       = 0
  Multiplicity = 1
  Basis Set: AUG-CC-PVTZ
    Blend: AUG-CC-PVTZ
  Basis Set: (AUG-CC-PVTZ AUX)
    Blend: AUG-CC-PVTZ-JKFIT

    Orbital Energies [Eh]
    ---------------------

    Doubly Occupied:

       1A    -20.595742     2A    -20.593335     3A    -11.310623
       4A    -11.308895     5A    -11.251519     6A    -11.232185
       7A    -11.224350     8A    -11.222783     9A    -11.219758
      10A    -11.215986    11A     -1.405419    12A     -1.401882
      13A     -1.150488    14A     -1.064014    15A     -1.001413
      16A     -0.987933    17A     -0.876564    18A     -0.836729
      19A     -0.808134    20A     -0.739795    21A     -0.687390
      22A     -0.674964    23A     -0.665980    24A     -0.612309
      25A     -0.603085    26A     -0.594258    27A     -0.586950
      28A     -0.576489    29A     -0.552790    30A     -0.549078
      31A     -0.523574    32A     -0.521189    33A     -0.487835
      34A     -0.482756    35A     -0.453848    36A     -0.325955
      37A     -0.311391

  @DF-RHF Final Energy:  -458.65966634981061

   => Energetics <=

    Nuclear Repulsion Energy =            507.4826408222933196
    One-Electron Energy =               -1630.9698348293366053
    Two-Electron Energy =                 664.8275276572328494
    Total Energy =                       -458.6596663498105499
  Basis Set: (AUG-CC-PVTZ AUX)
    Blend: AUG-CC-PVTZ-RI
    Molecular point group: c1

    Geometry (in Angstrom), charge = 0, multiplicity = 1:

       Center              X                  Y                   Z               Mass
    ------------   -----------------  -----------------  -----------------  -----------------
         O            1.762659812677     2.368379497042    -0.146599402857    15.994914619570
         O            1.675284812677    -2.406996502958    -0.128620402857    15.994914619570
         C           -1.021701187323    -0.007718502958     0.363429597143    12.000000000000
         C           -2.514082187323    -0.019441502958     0.562718597143    12.000000000000
         C           -0.323195187323    -1.207388502958     0.233656597143    12.000000000000
         C           -0.337188187323     1.205227497042     0.234153597143    12.000000000000
         C           -3.273699187323    -0.019748502958    -0.765046402857    12.000000000000
         C            1.034557812677     1.210667497042    -0.018820402857    12.000000000000
         C            1.047926812677    -1.191038502958    -0.019719402857    12.000000000000
         C            1.736728812677     0.014784497042    -0.146462402857    12.000000000000
         H           -2.792914187323    -0.903038502958     1.147615597143     1.007825032230
         H           -2.808418187323     0.853859497042     1.156594597143     1.007825032230
         H           -0.831366187323    -2.163546502958     0.330201597143     1.007825032230
         H           -0.879089187323     2.145651497042     0.334471597143     1.007825032230
         H           -3.023228187323     0.867261497042    -1.353492402857     1.007825032230
         H           -4.357536187323    -0.029426502958    -0.606041402857     1.007825032230
         H           -3.007778187323    -0.898126502958    -1.359393402857     1.007825032230
         H            2.825011512677     0.046828197042    -0.238549002857     1.007825032230
         H            1.158935812677     3.122307497042    -0.030689402857     1.007825032230
         H            2.621400812677    -2.254383502958    -0.298337402857     1.007825032230

  Basis Set: AUG-CC-PVTZ
    Blend: AUG-CC-PVTZ
  Basis Set: (AUG-CC-PVTZ AUX)
    Blend: AUG-CC-PVTZ-JKFIT
	 Reference Energy          =    -458.6596663498106068 [Eh]
	 Singles Energy            =      -0.0000000000000000 [Eh]
	 Same-Spin Energy          =      -0.4817645579851728 [Eh]
	 Opposite-Spin Energy      =      -1.5052595647764080 [Eh]
	 Correlation Energy        =      -1.9870241227615808 [Eh]
	 Total Energy              =    -460.6466904725721747 [Eh]

	 ================> DF-SCS-MP2 Energies <==================
	-----------------------------------------------------------
	 SCS Same-Spin Scale       =       0.3333333333333333 [-]
	 SCS Opposite-Spin Scale   =       1.2000000000000000 [-]
	 SCS Same-Spin Energy      =      -0.1605881859950576 [Eh]
	 SCS Opposite-Spin Energy  =      -1.8063114777316895 [Eh]
	 SCS Correlation Energy    =      -1.9668996637267471 [Eh]
	 SCS Total Energy          =    -460.6265660135373423 [Eh]
	-----------------------------------------------------------

  Dipole Moment: [D]
     X:    -0.4946      Y:     1.2216      Z:     0.0829     Total:     1.3205

*** Psi4 exiting successfully. Buy a developer a beer!
