                               Psi4 1.4a2.dev612

  ==> Input File <==

--------------------------------------------------------------------------
#psi4
#
memory 32 gb

molecule  {
0 1
  O        1.7627890     2.3683800    -0.1458810
  O        1.6754140    -2.4069960    -0.1279020
  C       -1.0215720    -0.0077180     0.3641480
  C       -2.5139530    -0.0194410     0.5634370
  C       -0.3230660    -1.2073880     0.2343750
  C       -0.3370590     1.2052280     0.2348720
  C       -3.2735700    -0.0197480    -0.7643280
  C        1.0346870     1.2106680    -0.0181020
  C        1.0480560    -1.1910380    -0.0190010
  C        1.7368580     0.0147850    -0.1457440
  H       -2.7927850    -0.9030380     1.1483340
  H       -2.8082890     0.8538600     1.1573130
  H       -0.8312370    -2.1635460     0.3309200
  H       -0.8789600     2.1456520     0.3351900
  H       -3.0230990     0.8672620    -1.3527740
  H       -4.3574070    -0.0294260    -0.6053230
  H       -3.0076490    -0.8981260    -1.3586750
  H        2.8339925     0.0468596    -0.1886204
  H        1.1590650     3.1223080    -0.0299710
  H        2.6215300    -2.2543830    -0.2976190
units angstrom
no_reorient  #important for SAPT in psi4, default
symmetry c1  #important for SAPT in psi4, default
}

set PROPERTIES_ORIGIN ["COM"]
properties('MP2/aug-cc-pvtz', properties = ['dipole'])
--------------------------------------------------------------------------

    Molecular point group: c1
  Charge       = 0
  Multiplicity = 1
  Basis Set: AUG-CC-PVTZ
    Blend: AUG-CC-PVTZ
  Basis Set: (AUG-CC-PVTZ AUX)
    Blend: AUG-CC-PVTZ-JKFIT

    Orbital Energies [Eh]
    ---------------------

    Doubly Occupied:

       1A    -20.595791     2A    -20.593354     3A    -11.310760
       4A    -11.309019     5A    -11.251683     6A    -11.232271
       7A    -11.224810     8A    -11.222840     9A    -11.219811
      10A    -11.216038    11A     -1.405453    12A     -1.401901
      13A     -1.150565    14A     -1.064021    15A     -1.001484
      16A     -0.987838    17A     -0.876474    18A     -0.836774
      19A     -0.808109    20A     -0.739766    21A     -0.687145
      22A     -0.674644    23A     -0.665859    24A     -0.612518
      25A     -0.603448    26A     -0.593845    27A     -0.586440
      28A     -0.576504    29A     -0.552717    30A     -0.548865
      31A     -0.523568    32A     -0.521190    33A     -0.487900
      34A     -0.482793    35A     -0.453748    36A     -0.325973
      37A     -0.311453

  @DF-RHF Final Energy:  -458.65897500085612

   => Energetics <=

    Nuclear Repulsion Energy =            507.4570404536950150
    One-Electron Energy =               -1630.9172791441890240
    Two-Electron Energy =                 664.8012636896378353
    Total Energy =                       -458.6589750008561168
  Basis Set: (AUG-CC-PVTZ AUX)
    Blend: AUG-CC-PVTZ-RI
    Molecular point group: c1

    Geometry (in Angstrom), charge = 0, multiplicity = 1:

       Center              X                  Y                   Z               Mass
    ------------   -----------------  -----------------  -----------------  -----------------
         O            1.762595199150     2.368379271488    -0.146958611673    15.994914619570
         O            1.675220199150    -2.406996728512    -0.128979611673    15.994914619570
         C           -1.021765800850    -0.007718728512     0.363070388327    12.000000000000
         C           -2.514146800850    -0.019441728512     0.562359388327    12.000000000000
         C           -0.323259800850    -1.207388728512     0.233297388327    12.000000000000
         C           -0.337252800850     1.205227271488     0.233794388327    12.000000000000
         C           -3.273763800850    -0.019748728512    -0.765405611673    12.000000000000
         C            1.034493199150     1.210667271488    -0.019179611673    12.000000000000
         C            1.047862199150    -1.191038728512    -0.020078611673    12.000000000000
         C            1.736664199150     0.014784271488    -0.146821611673    12.000000000000
         H           -2.792978800850    -0.903038728512     1.147256388327     1.007825032230
         H           -2.808482800850     0.853859271488     1.156235388327     1.007825032230
         H           -0.831430800850    -2.163546728512     0.329842388327     1.007825032230
         H           -0.879153800850     2.145651271488     0.334112388327     1.007825032230
         H           -3.023292800850     0.867261271488    -1.353851611673     1.007825032230
         H           -4.357600800850    -0.029426728512    -0.606400611673     1.007825032230
         H           -3.007842800850    -0.898126728512    -1.359752611673     1.007825032230
         H            2.833798699150     0.046858871488    -0.189698011673     1.007825032230
         H            1.158871199150     3.122307271488    -0.031048611673     1.007825032230
         H            2.621336199150    -2.254383728512    -0.298696611673     1.007825032230

  Basis Set: AUG-CC-PVTZ
    Blend: AUG-CC-PVTZ
  Basis Set: (AUG-CC-PVTZ AUX)
    Blend: AUG-CC-PVTZ-JKFIT
	 Reference Energy          =    -458.6589750008561168 [Eh]
	 Singles Energy            =      -0.0000000000000000 [Eh]
	 Same-Spin Energy          =      -0.4818023878984699 [Eh]
	 Opposite-Spin Energy      =      -1.5053327709682234 [Eh]
	 Correlation Energy        =      -1.9871351588666932 [Eh]
	 Total Energy              =    -460.6461101597228094 [Eh]

	 ================> DF-SCS-MP2 Energies <==================
	-----------------------------------------------------------
	 SCS Same-Spin Scale       =       0.3333333333333333 [-]
	 SCS Opposite-Spin Scale   =       1.2000000000000000 [-]
	 SCS Same-Spin Energy      =      -0.1606007959661566 [Eh]
	 SCS Opposite-Spin Energy  =      -1.8063993251618680 [Eh]
	 SCS Correlation Energy    =      -1.9670001211280246 [Eh]
	 SCS Total Energy          =    -460.6259751219841405 [Eh]
	-----------------------------------------------------------

  Dipole Moment: [D]
     X:    -0.4998      Y:     1.2222      Z:     0.1203     Total:     1.3259

*** Psi4 exiting successfully. Buy a developer a beer!
