                               Psi4 1.4a2.dev612

  ==> Input File <==

--------------------------------------------------------------------------
#psi4
#
memory 32 gb

molecule  {
0 1
  O        1.7627890     2.3683800    -0.1458810
  O        1.6754140    -2.4069960    -0.1279020
  C       -1.0215720    -0.0077180     0.3641480
  C       -2.5139530    -0.0194410     0.5634370
  C       -0.3230660    -1.2073880     0.2343750
  C       -0.3370590     1.2052280     0.2348720
  C       -3.2735700    -0.0197480    -0.7643280
  C        1.0346870     1.2106680    -0.0181020
  C        1.0480560    -1.1910380    -0.0190010
  C        1.7817190     0.0143051     0.1001976
  H       -2.7927850    -0.9030380     1.1483340
  H       -2.8082890     0.8538600     1.1573130
  H       -0.8312370    -2.1635460     0.3309200
  H       -0.8789600     2.1456520     0.3351900
  H       -3.0230990     0.8672620    -1.3527740
  H       -4.3574070    -0.0294260    -0.6053230
  H       -3.0076490    -0.8981260    -1.3586750
  H        2.8074370     0.0467670    -0.3362510
  H        1.1590650     3.1223080    -0.0299710
  H        2.6215300    -2.2543830    -0.2976190
units angstrom
no_reorient  #important for SAPT in psi4, default
symmetry c1  #important for SAPT in psi4, default
}

set PROPERTIES_ORIGIN ["COM"]
properties('MP2/aug-cc-pvtz', properties = ['dipole'])
--------------------------------------------------------------------------

    Molecular point group: c1
  Charge       = 0
  Multiplicity = 1
  Basis Set: AUG-CC-PVTZ
    Blend: AUG-CC-PVTZ
  Basis Set: (AUG-CC-PVTZ AUX)
    Blend: AUG-CC-PVTZ-JKFIT

    Orbital Energies [Eh]
    ---------------------

    Doubly Occupied:

       1A    -20.597142     2A    -20.594483     3A    -11.315298
       4A    -11.313312     5A    -11.254744     6A    -11.233645
       7A    -11.228152     8A    -11.222918     9A    -11.221063
      10A    -11.216087    11A     -1.406344    12A     -1.402735
      13A     -1.149761    14A     -1.062477    15A     -1.001669
      16A     -0.986377    17A     -0.876986    18A     -0.833466
      19A     -0.808814    20A     -0.739902    21A     -0.683611
      22A     -0.673101    23A     -0.664966    24A     -0.611688
      25A     -0.601888    26A     -0.596437    27A     -0.586687
      28A     -0.578781    29A     -0.550321    30A     -0.545301
      31A     -0.521282    32A     -0.517158    33A     -0.489062
      34A     -0.483062    35A     -0.452994    36A     -0.326709
      37A     -0.311208

  @DF-RHF Final Energy:  -458.64349943414948

   => Energetics <=

    Nuclear Repulsion Energy =            506.6764133431200889
    One-Electron Energy =               -1629.3205597271660281
    Two-Electron Energy =                 664.0006469498965771
    Total Energy =                       -458.6434994341494757
  Basis Set: (AUG-CC-PVTZ AUX)
    Blend: AUG-CC-PVTZ-RI
    Molecular point group: c1

    Geometry (in Angstrom), charge = 0, multiplicity = 1:

       Center              X                  Y                   Z               Mass
    ------------   -----------------  -----------------  -----------------  -----------------
         O            1.758890007450     2.368421657278    -0.167256666044    15.994914619570
         O            1.671515007450    -2.406954342722    -0.149277666044    15.994914619570
         C           -1.025470992550    -0.007676342722     0.342772333956    12.000000000000
         C           -2.517851992550    -0.019399342722     0.542061333956    12.000000000000
         C           -0.326964992550    -1.207346342722     0.212999333956    12.000000000000
         C           -0.340957992550     1.205269657278     0.213496333956    12.000000000000
         C           -3.277468992550    -0.019706342722    -0.785703666044    12.000000000000
         C            1.030788007450     1.210709657278    -0.039477666044    12.000000000000
         C            1.044157007450    -1.190996342722    -0.040376666044    12.000000000000
         C            1.777820007450     0.014346757278     0.078821933956    12.000000000000
         H           -2.796683992550    -0.902996342722     1.126958333956     1.007825032230
         H           -2.812187992550     0.853901657278     1.135937333956     1.007825032230
         H           -0.835135992550    -2.163504342722     0.309544333956     1.007825032230
         H           -0.882858992550     2.145693657278     0.313814333956     1.007825032230
         H           -3.026997992550     0.867303657278    -1.374149666044     1.007825032230
         H           -4.361305992550    -0.029384342722    -0.626698666044     1.007825032230
         H           -3.011547992550    -0.898084342722    -1.380050666044     1.007825032230
         H            2.803538007450     0.046808657278    -0.357626666044     1.007825032230
         H            1.155166007450     3.122349657278    -0.051346666044     1.007825032230
         H            2.617631007450    -2.254341342722    -0.318994666044     1.007825032230

  Basis Set: AUG-CC-PVTZ
    Blend: AUG-CC-PVTZ
  Basis Set: (AUG-CC-PVTZ AUX)
    Blend: AUG-CC-PVTZ-JKFIT
	 Reference Energy          =    -458.6434994341494757 [Eh]
	 Singles Energy            =      -0.0000000000000000 [Eh]
	 Same-Spin Energy          =      -0.4823440190255355 [Eh]
	 Opposite-Spin Energy      =      -1.5072340491077254 [Eh]
	 Correlation Energy        =      -1.9895780681332609 [Eh]
	 Total Energy              =    -460.6330775022827311 [Eh]

	 ================> DF-SCS-MP2 Energies <==================
	-----------------------------------------------------------
	 SCS Same-Spin Scale       =       0.3333333333333333 [-]
	 SCS Opposite-Spin Scale   =       1.2000000000000000 [-]
	 SCS Same-Spin Energy      =      -0.1607813396751785 [Eh]
	 SCS Opposite-Spin Energy  =      -1.8086808589292704 [Eh]
	 SCS Correlation Energy    =      -1.9694621986044489 [Eh]
	 SCS Total Energy          =    -460.6129616327539225 [Eh]
	-----------------------------------------------------------

  Dipole Moment: [D]
     X:    -0.6859      Y:     1.2188      Z:    -0.1542     Total:     1.4070

*** Psi4 exiting successfully. Buy a developer a beer!
