                               Psi4 1.4a2.dev612

  ==> Input File <==

--------------------------------------------------------------------------
#psi4
#
memory 32 gb

molecule  {
0 1
  O        1.7627890     2.3683800    -0.1458810
  O        1.6754140    -2.4069960    -0.1279020
  C       -1.0215720    -0.0077180     0.3641480
  C       -2.5139530    -0.0194410     0.5634370
  C       -0.3230660    -1.2073880     0.2343750
  C       -0.3370590     1.2052280     0.2348720
  C       -3.2735700    -0.0197480    -0.7643280
  C        1.0346870     1.2106680    -0.0181020
  C        1.0480560    -1.1910380    -0.0190010
  C        1.7368580     0.0147850    -0.1457440
  H       -2.7927850    -0.9030380     1.1483340
  H       -2.8082890     0.8538600     1.1573130
  H       -0.8312370    -2.1635460     0.3309200
  H       -0.8619676     2.1432057     0.4337054
  H       -3.0230990     0.8672620    -1.3527740
  H       -4.3574070    -0.0294260    -0.6053230
  H       -3.0076490    -0.8981260    -1.3586750
  H        2.8074370     0.0467670    -0.3362510
  H        1.1590650     3.1223080    -0.0299710
  H        2.6215300    -2.2543830    -0.2976190
units angstrom
no_reorient  #important for SAPT in psi4, default
symmetry c1  #important for SAPT in psi4, default
}

set PROPERTIES_ORIGIN ["COM"]
properties('MP2/aug-cc-pvtz', properties = ['dipole'])
--------------------------------------------------------------------------

    Molecular point group: c1
  Charge       = 0
  Multiplicity = 1
  Basis Set: AUG-CC-PVTZ
    Blend: AUG-CC-PVTZ
  Basis Set: (AUG-CC-PVTZ AUX)
    Blend: AUG-CC-PVTZ-JKFIT

    Orbital Energies [Eh]
    ---------------------

    Doubly Occupied:

       1A    -20.595735     2A    -20.593428     3A    -11.310644
       4A    -11.308931     5A    -11.251437     6A    -11.232143
       7A    -11.224025     8A    -11.222925     9A    -11.219528
      10A    -11.215968    11A     -1.405432    12A     -1.401953
      13A     -1.150459    14A     -1.063996    15A     -1.001321
      16A     -0.987979    17A     -0.876494    18A     -0.836675
      19A     -0.808178    20A     -0.739833    21A     -0.687316
      22A     -0.675297    23A     -0.665970    24A     -0.612074
      25A     -0.601598    26A     -0.595633    27A     -0.587506
      28A     -0.576498    29A     -0.552816    30A     -0.549352
      31A     -0.522400    32A     -0.521391    33A     -0.487841
      34A     -0.482648    35A     -0.453947    36A     -0.325970
      37A     -0.311378

  @DF-RHF Final Energy:  -458.65970934601637

   => Energetics <=

    Nuclear Repulsion Energy =            507.4771036716687149
    One-Electron Energy =               -1630.9601943259292511
    Two-Electron Energy =                 664.8233813082442794
    Total Energy =                       -458.6597093460163705
  Basis Set: (AUG-CC-PVTZ AUX)
    Blend: AUG-CC-PVTZ-RI
    Molecular point group: c1

    Geometry (in Angstrom), charge = 0, multiplicity = 1:

       Center              X                  Y                   Z               Mass
    ------------   -----------------  -----------------  -----------------  -----------------
         O            1.762665004796     2.368397804135    -0.146600096307    15.994914619570
         O            1.675290004796    -2.406978195865    -0.128621096307    15.994914619570
         C           -1.021695995204    -0.007700195865     0.363428903693    12.000000000000
         C           -2.514076995204    -0.019423195865     0.562717903693    12.000000000000
         C           -0.323189995204    -1.207370195865     0.233655903693    12.000000000000
         C           -0.337182995204     1.205245804135     0.234152903693    12.000000000000
         C           -3.273693995204    -0.019730195865    -0.765047096307    12.000000000000
         C            1.034563004796     1.210685804135    -0.018821096307    12.000000000000
         C            1.047932004796    -1.191020195865    -0.019720096307    12.000000000000
         C            1.736734004796     0.014802804135    -0.146463096307    12.000000000000
         H           -2.792908995204    -0.903020195865     1.147614903693     1.007825032230
         H           -2.808412995204     0.853877804135     1.156593903693     1.007825032230
         H           -0.831360995204    -2.163528195865     0.330200903693     1.007825032230
         H           -0.862091595204     2.143223504135     0.432986303693     1.007825032230
         H           -3.023222995204     0.867279804135    -1.353493096307     1.007825032230
         H           -4.357530995204    -0.029408195865    -0.606042096307     1.007825032230
         H           -3.007772995204    -0.898108195865    -1.359394096307     1.007825032230
         H            2.807313004796     0.046784804135    -0.336970096307     1.007825032230
         H            1.158941004796     3.122325804135    -0.030690096307     1.007825032230
         H            2.621406004796    -2.254365195865    -0.298338096307     1.007825032230

  Basis Set: AUG-CC-PVTZ
    Blend: AUG-CC-PVTZ
  Basis Set: (AUG-CC-PVTZ AUX)
    Blend: AUG-CC-PVTZ-JKFIT
	 Reference Energy          =    -458.6597093460163705 [Eh]
	 Singles Energy            =      -0.0000000000000000 [Eh]
	 Same-Spin Energy          =      -0.4817620928717312 [Eh]
	 Opposite-Spin Energy      =      -1.5052375818171166 [Eh]
	 Correlation Energy        =      -1.9869996746888479 [Eh]
	 Total Energy              =    -460.6467090207052024 [Eh]

	 ================> DF-SCS-MP2 Energies <==================
	-----------------------------------------------------------
	 SCS Same-Spin Scale       =       0.3333333333333333 [-]
	 SCS Opposite-Spin Scale   =       1.2000000000000000 [-]
	 SCS Same-Spin Energy      =      -0.1605873642905771 [Eh]
	 SCS Opposite-Spin Energy  =      -1.8062850981805398 [Eh]
	 SCS Correlation Energy    =      -1.9668724624711169 [Eh]
	 SCS Total Energy          =    -460.6265818084875150 [Eh]
	-----------------------------------------------------------

  Dipole Moment: [D]
     X:    -0.4790      Y:     1.2135      Z:     0.0722     Total:     1.3066

*** Psi4 exiting successfully. Buy a developer a beer!
