                               Psi4 1.4a2.dev612

  ==> Input File <==

--------------------------------------------------------------------------
#psi4
#
memory 32 gb

molecule  {
0 1
  O        1.7627890     2.3683800    -0.1458810
  O        1.6754140    -2.4069960    -0.1279020
  C       -1.0215720    -0.0077180     0.3641480
  C       -2.5139530    -0.0194410     0.5634370
  C       -0.3230660    -1.2073880     0.2343750
  C       -0.3370590     1.2052280     0.2348720
  C       -3.2735700    -0.0197480    -0.7643280
  C        1.0346870     1.2106680    -0.0181020
  C        1.0480560    -1.1910380    -0.0190010
  C        1.7906912     0.0142091     0.1493859
  H       -2.7927850    -0.9030380     1.1483340
  H       -2.8082890     0.8538600     1.1573130
  H       -0.8312370    -2.1635460     0.3309200
  H       -0.8789600     2.1456520     0.3351900
  H       -3.0230990     0.8672620    -1.3527740
  H       -4.3574070    -0.0294260    -0.6053230
  H       -3.0076490    -0.8981260    -1.3586750
  H        2.8074370     0.0467670    -0.3362510
  H        1.1590650     3.1223080    -0.0299710
  H        2.6215300    -2.2543830    -0.2976190
units angstrom
no_reorient  #important for SAPT in psi4, default
symmetry c1  #important for SAPT in psi4, default
}

set PROPERTIES_ORIGIN ["COM"]
properties('MP2/aug-cc-pvtz', properties = ['dipole'])
--------------------------------------------------------------------------

    Molecular point group: c1
  Charge       = 0
  Multiplicity = 1
  Basis Set: AUG-CC-PVTZ
    Blend: AUG-CC-PVTZ
  Basis Set: (AUG-CC-PVTZ AUX)
    Blend: AUG-CC-PVTZ-JKFIT

    Orbital Energies [Eh]
    ---------------------

    Doubly Occupied:

       1A    -20.597784     2A    -20.595025     3A    -11.317286
       4A    -11.315222     5A    -11.256250     6A    -11.234320
       7A    -11.229963     8A    -11.223028     9A    -11.221643
      10A    -11.216184    11A     -1.406766    12A     -1.403124
      13A     -1.149564    14A     -1.061830    15A     -1.001851
      16A     -0.985580    17A     -0.877124    18A     -0.832273
      19A     -0.809077    20A     -0.740023    21A     -0.682116
      22A     -0.672755    23A     -0.664120    24A     -0.612072
      25A     -0.601868    26A     -0.596411    27A     -0.586332
      28A     -0.579509    29A     -0.549827    30A     -0.543756
      31A     -0.520342    32A     -0.514848    33A     -0.489626
      34A     -0.483075    35A     -0.452497    36A     -0.327206
      37A     -0.311180

  @DF-RHF Final Energy:  -458.63599479594848

   => Energetics <=

    Nuclear Repulsion Energy =            506.3378967297282998
    One-Electron Energy =               -1628.6248646271337748
    Two-Electron Energy =                 663.6509731014569979
    Total Energy =                       -458.6359947959484771
  Basis Set: (AUG-CC-PVTZ AUX)
    Blend: AUG-CC-PVTZ-RI
    Molecular point group: c1

    Geometry (in Angstrom), charge = 0, multiplicity = 1:

       Center              X                  Y                   Z               Mass
    ------------   -----------------  -----------------  -----------------  -----------------
         O            1.758110200848     2.368430000988    -0.171531800469    15.994914619570
         O            1.670735200848    -2.406945999012    -0.153552800469    15.994914619570
         C           -1.026250799152    -0.007667999012     0.338497199531    12.000000000000
         C           -2.518631799152    -0.019390999012     0.537786199531    12.000000000000
         C           -0.327744799152    -1.207337999012     0.208724199531    12.000000000000
         C           -0.341737799152     1.205278000988     0.209221199531    12.000000000000
         C           -3.278248799152    -0.019697999012    -0.789978800469    12.000000000000
         C            1.030008200848     1.210718000988    -0.043752800469    12.000000000000
         C            1.043377200848    -1.190987999012    -0.044651800469    12.000000000000
         C            1.786012400848     0.014259100988     0.123735099531    12.000000000000
         H           -2.797463799152    -0.902987999012     1.122683199531     1.007825032230
         H           -2.812967799152     0.853910000988     1.131662199531     1.007825032230
         H           -0.835915799152    -2.163495999012     0.305269199531     1.007825032230
         H           -0.883638799152     2.145702000988     0.309539199531     1.007825032230
         H           -3.027777799152     0.867312000988    -1.378424800469     1.007825032230
         H           -4.362085799152    -0.029375999012    -0.630973800469     1.007825032230
         H           -3.012327799152    -0.898075999012    -1.384325800469     1.007825032230
         H            2.802758200848     0.046817000988    -0.361901800469     1.007825032230
         H            1.154386200848     3.122358000988    -0.055621800469     1.007825032230
         H            2.616851200848    -2.254332999012    -0.323269800469     1.007825032230

  Basis Set: AUG-CC-PVTZ
    Blend: AUG-CC-PVTZ
  Basis Set: (AUG-CC-PVTZ AUX)
    Blend: AUG-CC-PVTZ-JKFIT
	 Reference Energy          =    -458.6359947959484771 [Eh]
	 Singles Energy            =      -0.0000000000000000 [Eh]
	 Same-Spin Energy          =      -0.4825965951125572 [Eh]
	 Opposite-Spin Energy      =      -1.5081705023632792 [Eh]
	 Correlation Energy        =      -1.9907670974758365 [Eh]
	 Total Energy              =    -460.6267618934243160 [Eh]

	 ================> DF-SCS-MP2 Energies <==================
	-----------------------------------------------------------
	 SCS Same-Spin Scale       =       0.3333333333333333 [-]
	 SCS Opposite-Spin Scale   =       1.2000000000000000 [-]
	 SCS Same-Spin Energy      =      -0.1608655317041857 [Eh]
	 SCS Opposite-Spin Energy  =      -1.8098046028359349 [Eh]
	 SCS Correlation Energy    =      -1.9706701345401205 [Eh]
	 SCS Total Energy          =    -460.6066649304885914 [Eh]
	-----------------------------------------------------------

  Dipole Moment: [D]
     X:    -0.7595      Y:     1.2174      Z:    -0.1852     Total:     1.4468

*** Psi4 exiting successfully. Buy a developer a beer!
