                               Psi4 1.4a2.dev612

  ==> Input File <==

--------------------------------------------------------------------------
#psi4
#
memory 32 gb

molecule  {
0 1
  O        1.7627890     2.3683800    -0.1458810
  O        1.6754140    -2.4069960    -0.1279020
  C       -1.0215720    -0.0077180     0.3641480
  C       -2.5139530    -0.0194410     0.5634370
  C       -0.3230660    -1.2073880     0.2343750
  C       -0.3370590     1.2052280     0.2348720
  C       -3.2735700    -0.0197480    -0.7643280
  C        1.0346870     1.2106680    -0.0181020
  C        1.0480560    -1.1910380    -0.0190010
  C        1.7368580     0.0147850    -0.1457440
  H       -2.7927850    -0.9030380     1.1483340
  H       -2.8082890     0.8538600     1.1573130
  H       -0.8312370    -2.1635460     0.3309200
  H       -0.8789600     2.1456520     0.3351900
  H       -3.0230990     0.8672620    -1.3527740
  H       -4.3574070    -0.0294260    -0.6053230
  H       -3.0076490    -0.8981260    -1.3586750
  H        2.8428443     0.0468904    -0.1394102
  H        1.1590650     3.1223080    -0.0299710
  H        2.6215300    -2.2543830    -0.2976190
units angstrom
no_reorient  #important for SAPT in psi4, default
symmetry c1  #important for SAPT in psi4, default
}

set PROPERTIES_ORIGIN ["COM"]
properties('MP2/aug-cc-pvtz', properties = ['dipole'])
--------------------------------------------------------------------------

    Molecular point group: c1
  Charge       = 0
  Multiplicity = 1
  Basis Set: AUG-CC-PVTZ
    Blend: AUG-CC-PVTZ
  Basis Set: (AUG-CC-PVTZ AUX)
    Blend: AUG-CC-PVTZ-JKFIT

    Orbital Energies [Eh]
    ---------------------

    Doubly Occupied:

       1A    -20.595859     2A    -20.593379     3A    -11.310948
       4A    -11.309189     5A    -11.251906     6A    -11.232387
       7A    -11.225443     8A    -11.222918     9A    -11.219891
      10A    -11.216109    11A     -1.405499    12A     -1.401926
      13A     -1.150671    14A     -1.064031    15A     -1.001582
      16A     -0.987712    17A     -0.876356    18A     -0.836836
      19A     -0.808079    20A     -0.739732    21A     -0.686852
      22A     -0.674217    23A     -0.665658    24A     -0.612737
      25A     -0.603797    26A     -0.593537    27A     -0.585769
      28A     -0.576523    29A     -0.552636    30A     -0.548481
      31A     -0.523559    32A     -0.521178    33A     -0.487991
      34A     -0.482837    35A     -0.453622    36A     -0.325996
      37A     -0.311538

  @DF-RHF Final Energy:  -458.65796090458997

   => Energetics <=

    Nuclear Repulsion Energy =            507.4223087720194485
    One-Electron Energy =               -1630.8457770448608244
    Two-Electron Energy =                 664.7655073682514058
    Total Energy =                       -458.6579609045899133
  Basis Set: (AUG-CC-PVTZ AUX)
    Blend: AUG-CC-PVTZ-RI
    Molecular point group: c1

    Geometry (in Angstrom), charge = 0, multiplicity = 1:

       Center              X                  Y                   Z               Mass
    ------------   -----------------  -----------------  -----------------  -----------------
         O            1.762530585622     2.368379046664    -0.147317820489    15.994914619570
         O            1.675155585622    -2.406996953336    -0.129338820489    15.994914619570
         C           -1.021830414378    -0.007718953336     0.362711179511    12.000000000000
         C           -2.514211414378    -0.019441953336     0.562000179511    12.000000000000
         C           -0.323324414378    -1.207388953336     0.232938179511    12.000000000000
         C           -0.337317414378     1.205227046664     0.233435179511    12.000000000000
         C           -3.273828414378    -0.019748953336    -0.765764820489    12.000000000000
         C            1.034428585622     1.210667046664    -0.019538820489    12.000000000000
         C            1.047797585622    -1.191038953336    -0.020437820489    12.000000000000
         C            1.736599585622     0.014784046664    -0.147180820489    12.000000000000
         H           -2.793043414378    -0.903038953336     1.146897179511     1.007825032230
         H           -2.808547414378     0.853859046664     1.155876179511     1.007825032230
         H           -0.831495414378    -2.163546953336     0.329483179511     1.007825032230
         H           -0.879218414378     2.145651046664     0.333753179511     1.007825032230
         H           -3.023357414378     0.867261046664    -1.354210820489     1.007825032230
         H           -4.357665414378    -0.029426953336    -0.606759820489     1.007825032230
         H           -3.007907414378    -0.898126953336    -1.360111820489     1.007825032230
         H            2.842585885622     0.046889446664    -0.140847020489     1.007825032230
         H            1.158806585622     3.122307046664    -0.031407820489     1.007825032230
         H            2.621271585622    -2.254383953336    -0.299055820489     1.007825032230

  Basis Set: AUG-CC-PVTZ
    Blend: AUG-CC-PVTZ
  Basis Set: (AUG-CC-PVTZ AUX)
    Blend: AUG-CC-PVTZ-JKFIT
	 Reference Energy          =    -458.6579609045899701 [Eh]
	 Singles Energy            =      -0.0000000000000000 [Eh]
	 Same-Spin Energy          =      -0.4818538822511358 [Eh]
	 Opposite-Spin Energy      =      -1.5054409292205979 [Eh]
	 Correlation Energy        =      -1.9872948114717337 [Eh]
	 Total Energy              =    -460.6452557160616834 [Eh]

	 ================> DF-SCS-MP2 Energies <==================
	-----------------------------------------------------------
	 SCS Same-Spin Scale       =       0.3333333333333333 [-]
	 SCS Opposite-Spin Scale   =       1.2000000000000000 [-]
	 SCS Same-Spin Energy      =      -0.1606179607503786 [Eh]
	 SCS Opposite-Spin Energy  =      -1.8065291150647174 [Eh]
	 SCS Correlation Energy    =      -1.9671470758150960 [Eh]
	 SCS Total Energy          =    -460.6251079804050619 [Eh]
	-----------------------------------------------------------

  Dipole Moment: [D]
     X:    -0.5096      Y:     1.2230      Z:     0.1579     Total:     1.3343

*** Psi4 exiting successfully. Buy a developer a beer!
