                               Psi4 1.4a2.dev612

  ==> Input File <==

--------------------------------------------------------------------------
#psi4
#
memory 32 gb

molecule  {
0 1
  O        1.7627890     2.3683800    -0.1458810
  O        1.6754140    -2.4069960    -0.1279020
  C       -1.0215720    -0.0077180     0.3641480
  C       -2.5139530    -0.0194410     0.5634370
  C       -0.3230660    -1.2073880     0.2343750
  C       -0.3370590     1.2052280     0.2348720
  C       -3.2735700    -0.0197480    -0.7643280
  C        1.0346870     1.2106680    -0.0181020
  C        1.0480560    -1.1910380    -0.0190010
  C        1.7727468     0.0144010     0.0510093
  H       -2.7927850    -0.9030380     1.1483340
  H       -2.8082890     0.8538600     1.1573130
  H       -0.8312370    -2.1635460     0.3309200
  H       -0.8789600     2.1456520     0.3351900
  H       -3.0230990     0.8672620    -1.3527740
  H       -4.3574070    -0.0294260    -0.6053230
  H       -3.0076490    -0.8981260    -1.3586750
  H        2.8074370     0.0467670    -0.3362510
  H        1.1590650     3.1223080    -0.0299710
  H        2.6215300    -2.2543830    -0.2976190
units angstrom
no_reorient  #important for SAPT in psi4, default
symmetry c1  #important for SAPT in psi4, default
}

set PROPERTIES_ORIGIN ["COM"]
properties('MP2/aug-cc-pvtz', properties = ['dipole'])
--------------------------------------------------------------------------

    Molecular point group: c1
  Charge       = 0
  Multiplicity = 1
  Basis Set: AUG-CC-PVTZ
    Blend: AUG-CC-PVTZ
  Basis Set: (AUG-CC-PVTZ AUX)
    Blend: AUG-CC-PVTZ-JKFIT

    Orbital Energies [Eh]
    ---------------------

    Doubly Occupied:

       1A    -20.596612     2A    -20.594042     3A    -11.313613
       4A    -11.311699     5A    -11.253515     6A    -11.233094
       7A    -11.226647     8A    -11.222842     9A    -11.220590
      10A    -11.216022    11A     -1.405994    12A     -1.402413
      13A     -1.149961    14A     -1.063021    15A     -1.001536
      16A     -0.986993    17A     -0.876869    18A     -0.834541
      19A     -0.808583    20A     -0.739839    21A     -0.684955
      22A     -0.673638    23A     -0.665512    24A     -0.611446
      25A     -0.601872    26A     -0.596498    27A     -0.586988
      28A     -0.578077    29A     -0.550953    30A     -0.546646
      31A     -0.521986    32A     -0.518871    33A     -0.488603
      34A     -0.482979    35A     -0.453383    36A     -0.326358
      37A     -0.311244

  @DF-RHF Final Energy:  -458.64957175596294

   => Energetics <=

    Nuclear Repulsion Energy =            506.9600709483909213
    One-Electron Energy =               -1629.9024229150036263
    Two-Electron Energy =                 664.2927802106497666
    Total Energy =                       -458.6495717559629384
  Basis Set: (AUG-CC-PVTZ AUX)
    Blend: AUG-CC-PVTZ-RI
    Molecular point group: c1

    Geometry (in Angstrom), charge = 0, multiplicity = 1:

       Center              X                  Y                   Z               Mass
    ------------   -----------------  -----------------  -----------------  -----------------
         O            1.759669814052     2.368413322259    -0.162981531618    15.994914619570
         O            1.672294814052    -2.406962677741    -0.145002531618    15.994914619570
         C           -1.024691185948    -0.007684677741     0.347047468382    12.000000000000
         C           -2.517072185948    -0.019407677741     0.546336468382    12.000000000000
         C           -0.326185185948    -1.207354677741     0.217274468382    12.000000000000
         C           -0.340178185948     1.205261322259     0.217771468382    12.000000000000
         C           -3.276689185948    -0.019714677741    -0.781428531618    12.000000000000
         C            1.031567814052     1.210701322259    -0.035202531618    12.000000000000
         C            1.044936814052    -1.191004677741    -0.036101531618    12.000000000000
         C            1.769627614052     0.014434322259     0.033908768382    12.000000000000
         H           -2.795904185948    -0.903004677741     1.131233468382     1.007825032230
         H           -2.811408185948     0.853893322259     1.140212468382     1.007825032230
         H           -0.834356185948    -2.163512677741     0.313819468382     1.007825032230
         H           -0.882079185948     2.145685322259     0.318089468382     1.007825032230
         H           -3.026218185948     0.867295322259    -1.369874531618     1.007825032230
         H           -4.360526185948    -0.029392677741    -0.622423531618     1.007825032230
         H           -3.010768185948    -0.898092677741    -1.375775531618     1.007825032230
         H            2.804317814052     0.046800322259    -0.353351531618     1.007825032230
         H            1.155945814052     3.122341322259    -0.047071531618     1.007825032230
         H            2.618410814052    -2.254349677741    -0.314719531618     1.007825032230

  Basis Set: AUG-CC-PVTZ
    Blend: AUG-CC-PVTZ
  Basis Set: (AUG-CC-PVTZ AUX)
    Blend: AUG-CC-PVTZ-JKFIT
	 Reference Energy          =    -458.6495717559629384 [Eh]
	 Singles Energy            =      -0.0000000000000000 [Eh]
	 Same-Spin Energy          =      -0.4821280763683358 [Eh]
	 Opposite-Spin Energy      =      -1.5064633153122466 [Eh]
	 Correlation Energy        =      -1.9885913916805824 [Eh]
	 Total Energy              =    -460.6381631476435246 [Eh]

	 ================> DF-SCS-MP2 Energies <==================
	-----------------------------------------------------------
	 SCS Same-Spin Scale       =       0.3333333333333333 [-]
	 SCS Opposite-Spin Scale   =       1.2000000000000000 [-]
	 SCS Same-Spin Energy      =      -0.1607093587894453 [Eh]
	 SCS Opposite-Spin Energy  =      -1.8077559783746959 [Eh]
	 SCS Correlation Energy    =      -1.9684653371641412 [Eh]
	 SCS Total Energy          =    -460.6180370931271000 [Eh]
	-----------------------------------------------------------

  Dipole Moment: [D]
     X:    -0.6238      Y:     1.2198      Z:    -0.1228     Total:     1.3756

*** Psi4 exiting successfully. Buy a developer a beer!
