                               Psi4 1.4a2.dev612

  ==> Input File <==

--------------------------------------------------------------------------
#psi4
#
memory 32 gb

molecule  {
0 1
  O        1.7627890     2.3683800    -0.1458810
  O        1.6754140    -2.4069960    -0.1279020
  C       -1.0215720    -0.0077180     0.3641480
  C       -2.5139530    -0.0194410     0.5634370
  C       -0.3230660    -1.2073880     0.2343750
  C       -0.3370590     1.2052280     0.2348720
  C       -3.2735700    -0.0197480    -0.7643280
  C        1.0346870     1.2106680    -0.0181020
  C        1.0480560    -1.1910380    -0.0190010
  C        1.7548024     0.0145930    -0.0473674
  H       -2.7927850    -0.9030380     1.1483340
  H       -2.8082890     0.8538600     1.1573130
  H       -0.8312370    -2.1635460     0.3309200
  H       -0.8789600     2.1456520     0.3351900
  H       -3.0230990     0.8672620    -1.3527740
  H       -4.3574070    -0.0294260    -0.6053230
  H       -3.0076490    -0.8981260    -1.3586750
  H        2.8074370     0.0467670    -0.3362510
  H        1.1590650     3.1223080    -0.0299710
  H        2.6215300    -2.2543830    -0.2976190
units angstrom
no_reorient  #important for SAPT in psi4, default
symmetry c1  #important for SAPT in psi4, default
}

set PROPERTIES_ORIGIN ["COM"]
properties('MP2/aug-cc-pvtz', properties = ['dipole'])
--------------------------------------------------------------------------

    Molecular point group: c1
  Charge       = 0
  Multiplicity = 1
  Basis Set: AUG-CC-PVTZ
    Blend: AUG-CC-PVTZ
  Basis Set: (AUG-CC-PVTZ AUX)
    Blend: AUG-CC-PVTZ-JKFIT

    Orbital Energies [Eh]
    ---------------------

    Doubly Occupied:

       1A    -20.595912     2A    -20.593471     3A    -11.311286
       4A    -11.309492     5A    -11.251892     6A    -11.232361
       7A    -11.224614     8A    -11.222760     9A    -11.219958
      10A    -11.215957    11A     -1.405528    12A     -1.401986
      13A     -1.150286    14A     -1.063761    15A     -1.001388
      16A     -0.987764    17A     -0.876708    18A     -0.836122
      19A     -0.808259    20A     -0.739817    21A     -0.686927
      22A     -0.674769    23A     -0.665966    24A     -0.611413
      25A     -0.601948    26A     -0.596306    27A     -0.587373
      28A     -0.576945    29A     -0.552237    30A     -0.548461
      31A     -0.523073    32A     -0.520693    33A     -0.487994
      34A     -0.482788    35A     -0.453866    36A     -0.325984
      37A     -0.311312

  @DF-RHF Final Energy:  -458.65755722814816

   => Energetics <=

    Nuclear Repulsion Energy =            507.3536763358242183
    One-Electron Energy =               -1630.7077141861132077
    Two-Electron Energy =                 664.6964806221407116
    Total Energy =                       -458.6575572281482209
  Basis Set: (AUG-CC-PVTZ AUX)
    Blend: AUG-CC-PVTZ-RI
    Molecular point group: c1

    Geometry (in Angstrom), charge = 0, multiplicity = 1:

       Center              X                  Y                   Z               Mass
    ------------   -----------------  -----------------  -----------------  -----------------
         O            1.761229427257     2.368396634839    -0.154431254076    15.994914619570
         O            1.673854427257    -2.406979365161    -0.136452254076    15.994914619570
         C           -1.023131572743    -0.007701365161     0.355597745924    12.000000000000
         C           -2.515512572743    -0.019424365161     0.554886745924    12.000000000000
         C           -0.324625572743    -1.207371365161     0.225824745924    12.000000000000
         C           -0.338618572743     1.205244634839     0.226321745924    12.000000000000
         C           -3.275129572743    -0.019731365161    -0.772878254076    12.000000000000
         C            1.033127427257     1.210684634839    -0.026652254076    12.000000000000
         C            1.046496427257    -1.191021365161    -0.027551254076    12.000000000000
         C            1.753242827257     0.014609634839    -0.055917654076    12.000000000000
         H           -2.794344572743    -0.903021365161     1.139783745924     1.007825032230
         H           -2.809848572743     0.853876634839     1.148762745924     1.007825032230
         H           -0.832796572743    -2.163529365161     0.322369745924     1.007825032230
         H           -0.880519572743     2.145668634839     0.326639745924     1.007825032230
         H           -3.024658572743     0.867278634839    -1.361324254076     1.007825032230
         H           -4.358966572743    -0.029409365161    -0.613873254076     1.007825032230
         H           -3.009208572743    -0.898109365161    -1.367225254076     1.007825032230
         H            2.805877427257     0.046783634839    -0.344801254076     1.007825032230
         H            1.157505427257     3.122324634839    -0.038521254076     1.007825032230
         H            2.619970427257    -2.254366365161    -0.306169254076     1.007825032230

  Basis Set: AUG-CC-PVTZ
    Blend: AUG-CC-PVTZ
  Basis Set: (AUG-CC-PVTZ AUX)
    Blend: AUG-CC-PVTZ-JKFIT
	 Reference Energy          =    -458.6575572281481641 [Eh]
	 Singles Energy            =      -0.0000000000000000 [Eh]
	 Same-Spin Energy          =      -0.4818297848967252 [Eh]
	 Opposite-Spin Energy      =      -1.5054725407860114 [Eh]
	 Correlation Energy        =      -1.9873023256827367 [Eh]
	 Total Energy              =    -460.6448595538308837 [Eh]

	 ================> DF-SCS-MP2 Energies <==================
	-----------------------------------------------------------
	 SCS Same-Spin Scale       =       0.3333333333333333 [-]
	 SCS Opposite-Spin Scale   =       1.2000000000000000 [-]
	 SCS Same-Spin Energy      =      -0.1606099282989084 [Eh]
	 SCS Opposite-Spin Energy  =      -1.8065670489432137 [Eh]
	 SCS Correlation Energy    =      -1.9671769772421221 [Eh]
	 SCS Total Energy          =    -460.6247342053902685 [Eh]
	-----------------------------------------------------------

  Dipole Moment: [D]
     X:    -0.5359      Y:     1.2210      Z:    -0.0588     Total:     1.3347

*** Psi4 exiting successfully. Buy a developer a beer!
