                               Psi4 1.4a2.dev612

  ==> Input File <==

--------------------------------------------------------------------------
#psi4
#
memory 32 gb

molecule  {
0 1
  O        1.7627890     2.3683800    -0.1458810
  O        1.6754140    -2.4069960    -0.1279020
  C       -1.0215720    -0.0077180     0.3641480
  C       -2.5139530    -0.0194410     0.5634370
  C       -0.3230660    -1.2073880     0.2343750
  C       -0.3221710     1.2052940     0.3337575
  C       -3.2735700    -0.0197480    -0.7643280
  C        1.0346870     1.2106680    -0.0181020
  C        1.0480560    -1.1910380    -0.0190010
  C        1.7368580     0.0147850    -0.1457440
  H       -2.7927850    -0.9030380     1.1483340
  H       -2.8082890     0.8538600     1.1573130
  H       -0.8312370    -2.1635460     0.3309200
  H       -0.8789600     2.1456520     0.3351900
  H       -3.0230990     0.8672620    -1.3527740
  H       -4.3574070    -0.0294260    -0.6053230
  H       -3.0076490    -0.8981260    -1.3586750
  H        2.8074370     0.0467670    -0.3362510
  H        1.1590650     3.1223080    -0.0299710
  H        2.6215300    -2.2543830    -0.2976190
units angstrom
no_reorient  #important for SAPT in psi4, default
symmetry c1  #important for SAPT in psi4, default
}

set PROPERTIES_ORIGIN ["COM"]
properties('MP2/aug-cc-pvtz', properties = ['dipole'])
--------------------------------------------------------------------------

    Molecular point group: c1
  Charge       = 0
  Multiplicity = 1
  Basis Set: AUG-CC-PVTZ
    Blend: AUG-CC-PVTZ
  Basis Set: (AUG-CC-PVTZ AUX)
    Blend: AUG-CC-PVTZ-JKFIT

    Orbital Energies [Eh]
    ---------------------

    Doubly Occupied:

       1A    -20.596121     2A    -20.593785     3A    -11.311817
       4A    -11.309445     5A    -11.252045     6A    -11.232046
       7A    -11.224025     8A    -11.223578     9A    -11.220038
      10A    -11.215709    11A     -1.405694    12A     -1.402261
      13A     -1.150018    14A     -1.064053    15A     -1.000718
      16A     -0.988306    17A     -0.876466    18A     -0.836954
      19A     -0.807833    20A     -0.738902    21A     -0.687234
      22A     -0.675475    23A     -0.665678    24A     -0.613397
      25A     -0.602211    26A     -0.594838    27A     -0.587639
      28A     -0.576754    29A     -0.552354    30A     -0.549529
      31A     -0.524011    32A     -0.520166    33A     -0.487823
      34A     -0.482087    35A     -0.453545    36A     -0.326153
      37A     -0.311134

  @DF-RHF Final Energy:  -458.65765296696361

   => Energetics <=

    Nuclear Repulsion Energy =            507.2491055906211841
    One-Electron Energy =               -1630.4938313508305328
    Two-Electron Energy =                 664.5870727932457385
    Total Energy =                       -458.6576529669636102
  Basis Set: (AUG-CC-PVTZ AUX)
    Blend: AUG-CC-PVTZ-RI
    Molecular point group: c1

    Geometry (in Angstrom), charge = 0, multiplicity = 1:

       Center              X                  Y                   Z               Mass
    ------------   -----------------  -----------------  -----------------  -----------------
         O            1.761495070120     2.368374211119    -0.154475484429    15.994914619570
         O            1.674120070120    -2.407001788881    -0.136496484429    15.994914619570
         C           -1.022865929880    -0.007723788881     0.355553515571    12.000000000000
         C           -2.515246929880    -0.019446788881     0.554842515571    12.000000000000
         C           -0.324359929880    -1.207393788881     0.225780515571    12.000000000000
         C           -0.323464929880     1.205288211119     0.325163015571    12.000000000000
         C           -3.274863929880    -0.019753788881    -0.772922484429    12.000000000000
         C            1.033393070120     1.210662211119    -0.026696484429    12.000000000000
         C            1.046762070120    -1.191043788881    -0.027595484429    12.000000000000
         C            1.735564070120     0.014779211119    -0.154338484429    12.000000000000
         H           -2.794078929880    -0.903043788881     1.139739515571     1.007825032230
         H           -2.809582929880     0.853854211119     1.148718515571     1.007825032230
         H           -0.832530929880    -2.163551788881     0.322325515571     1.007825032230
         H           -0.880253929880     2.145646211119     0.326595515571     1.007825032230
         H           -3.024392929880     0.867256211119    -1.361368484429     1.007825032230
         H           -4.358700929880    -0.029431788881    -0.613917484429     1.007825032230
         H           -3.008942929880    -0.898131788881    -1.367269484429     1.007825032230
         H            2.806143070120     0.046761211119    -0.344845484429     1.007825032230
         H            1.157771070120     3.122302211119    -0.038565484429     1.007825032230
         H            2.620236070120    -2.254388788881    -0.306213484429     1.007825032230

  Basis Set: AUG-CC-PVTZ
    Blend: AUG-CC-PVTZ
  Basis Set: (AUG-CC-PVTZ AUX)
    Blend: AUG-CC-PVTZ-JKFIT
	 Reference Energy          =    -458.6576529669636102 [Eh]
	 Singles Energy            =      -0.0000000000000000 [Eh]
	 Same-Spin Energy          =      -0.4817651514685068 [Eh]
	 Opposite-Spin Energy      =      -1.5054229757577717 [Eh]
	 Correlation Energy        =      -1.9871881272262786 [Eh]
	 Total Energy              =    -460.6448410941898715 [Eh]

	 ================> DF-SCS-MP2 Energies <==================
	-----------------------------------------------------------
	 SCS Same-Spin Scale       =       0.3333333333333333 [-]
	 SCS Opposite-Spin Scale   =       1.2000000000000000 [-]
	 SCS Same-Spin Energy      =      -0.1605883838228356 [Eh]
	 SCS Opposite-Spin Energy  =      -1.8065075709093259 [Eh]
	 SCS Correlation Energy    =      -1.9670959547321614 [Eh]
	 SCS Total Energy          =    -460.6247489216957547 [Eh]
	-----------------------------------------------------------

  Dipole Moment: [D]
     X:    -0.4912      Y:     1.2026      Z:    -0.0619     Total:     1.3005

*** Psi4 exiting successfully. Buy a developer a beer!
