                               Psi4 1.4a2.dev612

  ==> Input File <==

--------------------------------------------------------------------------
#psi4
#
memory 32 gb

molecule  {
0 1
  O        1.7627890     2.3683800    -0.1458810
  O        1.6754140    -2.4069960    -0.1279020
  C       -1.0215720    -0.0077180     0.3641480
  C       -2.5139530    -0.0194410     0.5634370
  C       -0.3230660    -1.2073880     0.2343750
  C       -0.3147271     1.2053270     0.3832003
  C       -3.2735700    -0.0197480    -0.7643280
  C        1.0346870     1.2106680    -0.0181020
  C        1.0480560    -1.1910380    -0.0190010
  C        1.7368580     0.0147850    -0.1457440
  H       -2.7927850    -0.9030380     1.1483340
  H       -2.8082890     0.8538600     1.1573130
  H       -0.8312370    -2.1635460     0.3309200
  H       -0.8789600     2.1456520     0.3351900
  H       -3.0230990     0.8672620    -1.3527740
  H       -4.3574070    -0.0294260    -0.6053230
  H       -3.0076490    -0.8981260    -1.3586750
  H        2.8074370     0.0467670    -0.3362510
  H        1.1590650     3.1223080    -0.0299710
  H        2.6215300    -2.2543830    -0.2976190
units angstrom
no_reorient  #important for SAPT in psi4, default
symmetry c1  #important for SAPT in psi4, default
}

set PROPERTIES_ORIGIN ["COM"]
properties('MP2/aug-cc-pvtz', properties = ['dipole'])
--------------------------------------------------------------------------

    Molecular point group: c1
  Charge       = 0
  Multiplicity = 1
  Basis Set: AUG-CC-PVTZ
    Blend: AUG-CC-PVTZ
  Basis Set: (AUG-CC-PVTZ AUX)
    Blend: AUG-CC-PVTZ-JKFIT

    Orbital Energies [Eh]
    ---------------------

    Doubly Occupied:

       1A    -20.596496     2A    -20.594358     3A    -11.313076
       4A    -11.310245     5A    -11.252980     6A    -11.232042
       7A    -11.224516     8A    -11.224075     9A    -11.220224
      10A    -11.215626    11A     -1.406002    12A     -1.402730
      13A     -1.149607    14A     -1.064125    15A     -1.000184
      16A     -0.988330    17A     -0.876291    18A     -0.837089
      19A     -0.807627    20A     -0.738024    21A     -0.686688
      22A     -0.675741    23A     -0.665044    24A     -0.614198
      25A     -0.602148    26A     -0.594688    27A     -0.587724
      28A     -0.577085    29A     -0.552106    30A     -0.549303
      31A     -0.523717    32A     -0.519512    33A     -0.487841
      34A     -0.481509    35A     -0.453077    36A     -0.326269
      37A     -0.311155

  @DF-RHF Final Energy:  -458.65435551679104

   => Energetics <=

    Nuclear Repulsion Energy =            507.0320321802926742
    One-Electron Energy =               -1630.0498622768593577
    Two-Electron Energy =                 664.3634745797756977
    Total Energy =                       -458.6543555167910426
  Basis Set: (AUG-CC-PVTZ AUX)
    Blend: AUG-CC-PVTZ-RI
    Molecular point group: c1

    Geometry (in Angstrom), charge = 0, multiplicity = 1:

       Center              X                  Y                   Z               Mass
    ------------   -----------------  -----------------  -----------------  -----------------
         O            1.760848093641     2.368371342969    -0.158772738378    15.994914619570
         O            1.673473093641    -2.407004657031    -0.140793738378    15.994914619570
         C           -1.023512906359    -0.007726657031     0.351256261622    12.000000000000
         C           -2.515893906359    -0.019449657031     0.550545261622    12.000000000000
         C           -0.325006906359    -1.207396657031     0.221483261622    12.000000000000
         C           -0.316668006359     1.205318342969     0.370308561622    12.000000000000
         C           -3.275510906359    -0.019756657031    -0.777219738378    12.000000000000
         C            1.032746093641     1.210659342969    -0.030993738378    12.000000000000
         C            1.046115093641    -1.191046657031    -0.031892738378    12.000000000000
         C            1.734917093641     0.014776342969    -0.158635738378    12.000000000000
         H           -2.794725906359    -0.903046657031     1.135442261622     1.007825032230
         H           -2.810229906359     0.853851342969     1.144421261622     1.007825032230
         H           -0.833177906359    -2.163554657031     0.318028261622     1.007825032230
         H           -0.880900906359     2.145643342969     0.322298261622     1.007825032230
         H           -3.025039906359     0.867253342969    -1.365665738378     1.007825032230
         H           -4.359347906359    -0.029434657031    -0.618214738378     1.007825032230
         H           -3.009589906359    -0.898134657031    -1.371566738378     1.007825032230
         H            2.805496093641     0.046758342969    -0.349142738378     1.007825032230
         H            1.157124093641     3.122299342969    -0.042862738378     1.007825032230
         H            2.619589093641    -2.254391657031    -0.310510738378     1.007825032230

  Basis Set: AUG-CC-PVTZ
    Blend: AUG-CC-PVTZ
  Basis Set: (AUG-CC-PVTZ AUX)
    Blend: AUG-CC-PVTZ-JKFIT
	 Reference Energy          =    -458.6543555167910426 [Eh]
	 Singles Energy            =      -0.0000000000000000 [Eh]
	 Same-Spin Energy          =      -0.4818539423835968 [Eh]
	 Opposite-Spin Energy      =      -1.5057908036268441 [Eh]
	 Correlation Energy        =      -1.9876447460104409 [Eh]
	 Total Energy              =    -460.6420002628015027 [Eh]

	 ================> DF-SCS-MP2 Energies <==================
	-----------------------------------------------------------
	 SCS Same-Spin Scale       =       0.3333333333333333 [-]
	 SCS Opposite-Spin Scale   =       1.2000000000000000 [-]
	 SCS Same-Spin Energy      =      -0.1606179807945323 [Eh]
	 SCS Opposite-Spin Energy  =      -1.8069489643522130 [Eh]
	 SCS Correlation Energy    =      -1.9675669451467452 [Eh]
	 SCS Total Energy          =    -460.6219224619377997 [Eh]
	-----------------------------------------------------------

  Dipole Moment: [D]
     X:    -0.4760      Y:     1.1761      Z:    -0.1011     Total:     1.2728

*** Psi4 exiting successfully. Buy a developer a beer!
