                               Psi4 1.4a2.dev612

  ==> Input File <==

--------------------------------------------------------------------------
#psi4
#
memory 32 gb

molecule  {
0 1
  O        1.7627890     2.3683800    -0.1458810
  O        1.6754140    -2.4069960    -0.1279020
  C       -1.0215720    -0.0077180     0.3641480
  C       -2.5139530    -0.0194410     0.5634370
  C       -0.3230660    -1.2073880     0.2343750
  C       -0.3370590     1.2052280     0.2348720
  C       -3.2735700    -0.0197480    -0.7643280
  C        1.0346870     1.2106680    -0.0181020
  C        1.0480560    -1.1910380    -0.0190010
  C        1.7368580     0.0147850    -0.1457440
  H       -2.7927850    -0.9030380     1.1483340
  H       -2.8082890     0.8538600     1.1573130
  H       -0.8312370    -2.1635460     0.3309200
  H       -0.8279829     2.1383130     0.6307361
  H       -3.0230990     0.8672620    -1.3527740
  H       -4.3574070    -0.0294260    -0.6053230
  H       -3.0076490    -0.8981260    -1.3586750
  H        2.8074370     0.0467670    -0.3362510
  H        1.1590650     3.1223080    -0.0299710
  H        2.6215300    -2.2543830    -0.2976190
units angstrom
no_reorient  #important for SAPT in psi4, default
symmetry c1  #important for SAPT in psi4, default
}

set PROPERTIES_ORIGIN ["COM"]
properties('MP2/aug-cc-pvtz', properties = ['dipole'])
--------------------------------------------------------------------------

    Molecular point group: c1
  Charge       = 0
  Multiplicity = 1
  Basis Set: AUG-CC-PVTZ
    Blend: AUG-CC-PVTZ
  Basis Set: (AUG-CC-PVTZ AUX)
    Blend: AUG-CC-PVTZ-JKFIT

    Orbital Energies [Eh]
    ---------------------

    Doubly Occupied:

       1A    -20.595897     2A    -20.594270     3A    -11.311538
       4A    -11.310041     5A    -11.252178     6A    -11.232194
       7A    -11.225523     8A    -11.224439     9A    -11.219177
      10A    -11.216366    11A     -1.405706    12A     -1.402597
      13A     -1.150791    14A     -1.064168    15A     -1.001002
      16A     -0.987803    17A     -0.876152    18A     -0.836137
      19A     -0.808362    20A     -0.740049    21A     -0.685651
      22A     -0.675735    23A     -0.663330    24A     -0.612524
      25A     -0.600747    26A     -0.595257    27A     -0.587710
      28A     -0.576859    29A     -0.552191    30A     -0.549825
      31A     -0.521745    32A     -0.518207    33A     -0.487897
      34A     -0.482727    35A     -0.453260    36A     -0.326307
      37A     -0.311678

  @DF-RHF Final Energy:  -458.65505510220748

   => Energetics <=

    Nuclear Repulsion Energy =            507.3107864139786329
    One-Electron Energy =               -1630.6196016183205302
    Two-Electron Energy =                 664.6537601021344699
    Total Energy =                       -458.6550551022074842
  Basis Set: (AUG-CC-PVTZ AUX)
    Blend: AUG-CC-PVTZ-RI
    Molecular point group: c1

    Geometry (in Angstrom), charge = 0, multiplicity = 1:

       Center              X                  Y                   Z               Mass
    ------------   -----------------  -----------------  -----------------  -----------------
         O            1.762416934196     2.368433518295    -0.148038317743    15.994914619570
         O            1.675041934196    -2.406942481705    -0.130059317743    15.994914619570
         C           -1.021944065804    -0.007664481705     0.361990682257    12.000000000000
         C           -2.514325065804    -0.019387481705     0.561279682257    12.000000000000
         C           -0.323438065804    -1.207334481705     0.232217682257    12.000000000000
         C           -0.337431065804     1.205281518295     0.232714682257    12.000000000000
         C           -3.273942065804    -0.019694481705    -0.766485317743    12.000000000000
         C            1.034314934196     1.210721518295    -0.020259317743    12.000000000000
         C            1.047683934196    -1.190984481705    -0.021158317743    12.000000000000
         C            1.736485934196     0.014838518295    -0.147901317743    12.000000000000
         H           -2.793157065804    -0.902984481705     1.146176682257     1.007825032230
         H           -2.808661065804     0.853913518295     1.155155682257     1.007825032230
         H           -0.831609065804    -2.163492481705     0.328762682257     1.007825032230
         H           -0.828354965804     2.138366518295     0.628578782257     1.007825032230
         H           -3.023471065804     0.867315518295    -1.354931317743     1.007825032230
         H           -4.357779065804    -0.029372481705    -0.607480317743     1.007825032230
         H           -3.008021065804    -0.898072481705    -1.360832317743     1.007825032230
         H            2.807064934196     0.046820518295    -0.338408317743     1.007825032230
         H            1.158692934196     3.122361518295    -0.032128317743     1.007825032230
         H            2.621157934196    -2.254329481705    -0.299776317743     1.007825032230

  Basis Set: AUG-CC-PVTZ
    Blend: AUG-CC-PVTZ
  Basis Set: (AUG-CC-PVTZ AUX)
    Blend: AUG-CC-PVTZ-JKFIT
	 Reference Energy          =    -458.6550551022074842 [Eh]
	 Singles Energy            =      -0.0000000000000000 [Eh]
	 Same-Spin Energy          =      -0.4819868130198198 [Eh]
	 Opposite-Spin Energy      =      -1.5057032263741423 [Eh]
	 Correlation Energy        =      -1.9876900393939620 [Eh]
	 Total Energy              =    -460.6427451416014378 [Eh]

	 ================> DF-SCS-MP2 Energies <==================
	-----------------------------------------------------------
	 SCS Same-Spin Scale       =       0.3333333333333333 [-]
	 SCS Opposite-Spin Scale   =       1.2000000000000000 [-]
	 SCS Same-Spin Energy      =      -0.1606622710066066 [Eh]
	 SCS Opposite-Spin Energy  =      -1.8068438716489708 [Eh]
	 SCS Correlation Energy    =      -1.9675061426555773 [Eh]
	 SCS Total Energy          =    -460.6225612448630500 [Eh]
	-----------------------------------------------------------

  Dipole Moment: [D]
     X:    -0.4142      Y:     1.1443      Z:     0.1876     Total:     1.2313

*** Psi4 exiting successfully. Buy a developer a beer!
