                               Psi4 1.3.2 release

  ==> Input File <==

--------------------------------------------------------------------------
#psi4
#
memory 32 gb

molecule  {
0 1
  O       -1.4891210     1.1679660    -0.0005210
  O       -1.4891280    -1.1679560    -0.0004790
  C       -0.1944510     0.6951560    -0.0000890
  C       -0.1944370    -0.6951450    -0.0000610
  C       -2.3278770    -0.0000160     0.0005000
  C        0.9772920     1.4300230    -0.0000060
  C        0.9772900    -1.4300260     0.0000640
  C        2.1768970     0.6987030     0.0001890
  C        2.1768990    -0.6987090     0.0002190
  H       -2.9446710     0.0000210     0.9046330
  H       -2.9467630    -0.0000130    -0.9021640
  H        0.9615330     2.5156070    -0.0000720
  H        0.9615200    -2.5156090     0.0000480
  H        3.1223165     1.2342484     0.2503040
  H        3.1223530    -1.2342490     0.0003630
units angstrom
no_reorient  #important for SAPT in psi4, default
symmetry c1  #important for SAPT in psi4, default
}

set PROPERTIES_ORIGIN ["COM"]
properties('MP2/aug-cc-pvtz', properties = ['dipole'])
--------------------------------------------------------------------------

    Molecular point group: c1
  Charge       = 0
  Multiplicity = 1
  Basis Set: AUG-CC-PVTZ
    Blend: AUG-CC-PVTZ
  Basis Set: (AUG-CC-PVTZ AUX)
    Blend: AUG-CC-PVTZ-JKFIT

    Orbital Energies [Eh]
    ---------------------

    Doubly Occupied:

       1A    -20.602873     2A    -20.602540     3A    -11.358796
       4A    -11.301900     5A    -11.300522     6A    -11.245439
       7A    -11.245222     8A    -11.242579     9A    -11.240515
      10A     -1.472237    11A     -1.372825    12A     -1.155311
      13A     -1.024246    14A     -1.022914    15A     -0.912712
      16A     -0.852094    17A     -0.831803    18A     -0.715106
      19A     -0.712264    20A     -0.703836    21A     -0.674172
      22A     -0.618890    23A     -0.593678    24A     -0.586974
      25A     -0.566741    26A     -0.555963    27A     -0.550380
      28A     -0.526997    29A     -0.506808    30A     -0.457070
      31A     -0.341954    32A     -0.305257

  @DF-RHF Final Energy:  -418.41431384939528

   => Energetics <=

    Nuclear Repulsion Energy =            426.4418642233140417
    One-Electron Energy =               -1415.3111231335310549
    Two-Electron Energy =                 570.4549450608217285
    Total Energy =                       -418.4143138493952847
  Basis Set: (AUG-CC-PVTZ AUX)
    Blend: AUG-CC-PVTZ-RI
    Molecular point group: c1

    Geometry (in Angstrom), charge = 0, multiplicity = 1:

       Center              X                  Y                   Z               Mass
    ------------   -----------------  -----------------  -----------------  -----------------
         O           -1.470738165330     1.167966021376    -0.002560464628    15.994914619570
         O           -1.470745165330    -1.167955978624    -0.002518464628    15.994914619570
         C           -0.176068165330     0.695156021376    -0.002128464628    12.000000000000
         C           -0.176054165330    -0.695144978624    -0.002100464628    12.000000000000
         C           -2.309494165330    -0.000015978624    -0.001539464628    12.000000000000
         C            0.995674834670     1.430023021376    -0.002045464628    12.000000000000
         C            0.995672834670    -1.430025978624    -0.001975464628    12.000000000000
         C            2.195279834670     0.698703021376    -0.001850464628    12.000000000000
         C            2.195281834670    -0.698708978624    -0.001820464628    12.000000000000
         H           -2.926288165330     0.000021021376     0.902593535372     1.007825032230
         H           -2.928380165330    -0.000012978624    -0.904203464628     1.007825032230
         H            0.979915834670     2.515607021376    -0.002111464628     1.007825032230
         H            0.979902834670    -2.515608978624    -0.001991464628     1.007825032230
         H            3.140699334670     1.234248421376     0.248264535372     1.007825032230
         H            3.140735834670    -1.234248978624    -0.001676464628     1.007825032230

  Basis Set: AUG-CC-PVTZ
    Blend: AUG-CC-PVTZ
  Basis Set: (AUG-CC-PVTZ AUX)
    Blend: AUG-CC-PVTZ-JKFIT
	 Reference Energy          =    -418.4143138493952847 [Eh]
	 Singles Energy            =      -0.0000000000000000 [Eh]
	 Same-Spin Energy          =      -0.4345625356431252 [Eh]
	 Opposite-Spin Energy      =      -1.3174347465281371 [Eh]
	 Correlation Energy        =      -1.7519972821712622 [Eh]
	 Total Energy              =    -420.1663111315665446 [Eh]

	 ================> DF-SCS-MP2 Energies <==================
	-----------------------------------------------------------
	 SCS Same-Spin Scale       =       0.3333333333333333 [-]
	 SCS Opposite-Spin Scale   =       1.2000000000000000 [-]
	 SCS Same-Spin Energy      =      -0.1448541785477084 [Eh]
	 SCS Opposite-Spin Energy  =      -1.5809216958337644 [Eh]
	 SCS Correlation Energy    =      -1.7257758743814728 [Eh]
	 SCS Total Energy          =    -420.1400897237767822 [Eh]
	-----------------------------------------------------------

  Dipole Moment: [D]
     X:    -0.4646      Y:    -0.0318      Z:     0.1658     Total:     0.4943

*** Psi4 exiting successfully. Buy a developer a beer!
