                               Psi4 1.3.2 release

  ==> Input File <==

--------------------------------------------------------------------------
#psi4
#
memory 32 gb

molecule  {
0 1
  O       -1.4891210     1.1679660    -0.0005210
  O       -1.4891280    -1.1679560    -0.0004790
  C       -0.1944510     0.6951560    -0.0000890
  C       -0.1944370    -0.6951450    -0.0000610
  C       -2.3278770    -0.0000160     0.0005000
  C        0.9772263     1.4300514     0.2999940
  C        0.9772900    -1.4300260     0.0000640
  C        2.1768970     0.6987030     0.0001890
  C        2.1768990    -0.6987090     0.0002190
  H       -2.9446710     0.0000210     0.9046330
  H       -2.9467630    -0.0000130    -0.9021640
  H        0.9615330     2.5156070    -0.0000720
  H        0.9615200    -2.5156090     0.0000480
  H        3.1223520     1.2342420     0.0003040
  H        3.1223530    -1.2342490     0.0003630
units angstrom
no_reorient  #important for SAPT in psi4, default
symmetry c1  #important for SAPT in psi4, default
}

set PROPERTIES_ORIGIN ["COM"]
properties('MP2/aug-cc-pvtz', properties = ['dipole'])
--------------------------------------------------------------------------

    Molecular point group: c1
  Charge       = 0
  Multiplicity = 1
  Basis Set: AUG-CC-PVTZ
    Blend: AUG-CC-PVTZ
  Basis Set: (AUG-CC-PVTZ AUX)
    Blend: AUG-CC-PVTZ-JKFIT

    Orbital Energies [Eh]
    ---------------------

    Doubly Occupied:

       1A    -20.604916     2A    -20.602942     3A    -11.359358
       4A    -11.308510     5A    -11.300853     6A    -11.251835
       7A    -11.249564     8A    -11.246542     9A    -11.239719
      10A     -1.473387    11A     -1.373866    12A     -1.152518
      13A     -1.023470    14A     -1.019417    15A     -0.913368
      16A     -0.851098    17A     -0.829446    18A     -0.716496
      19A     -0.708196    20A     -0.704580    21A     -0.673342
      22A     -0.607570    23A     -0.594150    24A     -0.585530
      25A     -0.566850    26A     -0.556789    27A     -0.548626
      28A     -0.526491    29A     -0.500433    30A     -0.455771
      31A     -0.342709    32A     -0.304274

  @DF-RHF Final Energy:  -418.39141181960036

   => Energetics <=

    Nuclear Repulsion Energy =            425.5365044226604141
    One-Electron Energy =               -1413.4706083683040561
    Two-Electron Energy =                 569.5426921260433346
    Total Energy =                       -418.3914118196003074
  Basis Set: (AUG-CC-PVTZ AUX)
    Blend: AUG-CC-PVTZ-RI
    Molecular point group: c1

    Geometry (in Angstrom), charge = 0, multiplicity = 1:

       Center              X                  Y                   Z               Mass
    ------------   -----------------  -----------------  -----------------  -----------------
         O           -1.470731998155     1.167963281628    -0.029995175356    15.994914619570
         O           -1.470738998155    -1.167958718372    -0.029953175356    15.994914619570
         C           -0.176061998155     0.695153281628    -0.029563175356    12.000000000000
         C           -0.176047998155    -0.695147718372    -0.029535175356    12.000000000000
         C           -2.309487998155    -0.000018718372    -0.028974175356    12.000000000000
         C            0.995615301845     1.430048681628     0.270519824644    12.000000000000
         C            0.995679001845    -1.430028718372    -0.029410175356    12.000000000000
         C            2.195286001845     0.698700281628    -0.029285175356    12.000000000000
         C            2.195288001845    -0.698711718372    -0.029255175356    12.000000000000
         H           -2.926281998155     0.000018281628     0.875158824644     1.007825032230
         H           -2.928373998155    -0.000015718372    -0.931638175356     1.007825032230
         H            0.979922001845     2.515604281628    -0.029546175356     1.007825032230
         H            0.979909001845    -2.515611718372    -0.029426175356     1.007825032230
         H            3.140741001845     1.234239281628    -0.029170175356     1.007825032230
         H            3.140742001845    -1.234251718372    -0.029111175356     1.007825032230

  Basis Set: AUG-CC-PVTZ
    Blend: AUG-CC-PVTZ
  Basis Set: (AUG-CC-PVTZ AUX)
    Blend: AUG-CC-PVTZ-JKFIT
	 Reference Energy          =    -418.3914118196003642 [Eh]
	 Singles Energy            =      -0.0000000000000000 [Eh]
	 Same-Spin Energy          =      -0.4357934970350908 [Eh]
	 Opposite-Spin Energy      =      -1.3212417779439649 [Eh]
	 Correlation Energy        =      -1.7570352749790557 [Eh]
	 Total Energy              =    -420.1484470945794101 [Eh]

	 ================> DF-SCS-MP2 Energies <==================
	-----------------------------------------------------------
	 SCS Same-Spin Scale       =       0.3333333333333333 [-]
	 SCS Opposite-Spin Scale   =       1.2000000000000000 [-]
	 SCS Same-Spin Energy      =      -0.1452644990116969 [Eh]
	 SCS Opposite-Spin Energy  =      -1.5854901335327578 [Eh]
	 SCS Correlation Energy    =      -1.7307546325444547 [Eh]
	 SCS Total Energy          =    -420.1221664521448247 [Eh]
	-----------------------------------------------------------

  Dipole Moment: [D]
     X:    -0.4659      Y:    -0.2122      Z:    -0.2242     Total:     0.5588

*** Psi4 exiting successfully. Buy a developer a beer!
