                               Psi4 1.3.2 release

  ==> Input File <==

--------------------------------------------------------------------------
#psi4
#
memory 32 gb

molecule  {
0 1
  O       -1.4891210     1.1679660    -0.0005210
  O       -1.4891280    -1.1679560    -0.0004790
  C       -0.1944510     0.6951560    -0.0000890
  C       -0.1944370    -0.6951450    -0.0000610
  C       -2.3278770    -0.0000160     0.0005000
  C        0.9772373     1.4300467     0.2499940
  C        0.9772900    -1.4300260     0.0000640
  C        2.1768970     0.6987030     0.0001890
  C        2.1768990    -0.6987090     0.0002190
  H       -2.9446710     0.0000210     0.9046330
  H       -2.9467630    -0.0000130    -0.9021640
  H        0.9615330     2.5156070    -0.0000720
  H        0.9615200    -2.5156090     0.0000480
  H        3.1223520     1.2342420     0.0003040
  H        3.1223530    -1.2342490     0.0003630
units angstrom
no_reorient  #important for SAPT in psi4, default
symmetry c1  #important for SAPT in psi4, default
}

set PROPERTIES_ORIGIN ["COM"]
properties('MP2/aug-cc-pvtz', properties = ['dipole'])
--------------------------------------------------------------------------

    Molecular point group: c1
  Charge       = 0
  Multiplicity = 1
  Basis Set: AUG-CC-PVTZ
    Blend: AUG-CC-PVTZ
  Basis Set: (AUG-CC-PVTZ AUX)
    Blend: AUG-CC-PVTZ-JKFIT

    Orbital Energies [Eh]
    ---------------------

    Doubly Occupied:

       1A    -20.604125     2A    -20.602743     3A    -11.359094
       4A    -11.306246     5A    -11.300750     6A    -11.249819
       7A    -11.248133     8A    -11.244677     9A    -11.239752
      10A     -1.472919    11A     -1.373433    12A     -1.153237
      13A     -1.023387    14A     -1.020849    15A     -0.913180
      16A     -0.851353    17A     -0.830332    18A     -0.716060
      19A     -0.709134    20A     -0.704705    21A     -0.673979
      22A     -0.610803    23A     -0.594090    24A     -0.586141
      25A     -0.566691    26A     -0.556426    27A     -0.548827
      28A     -0.527613    29A     -0.502583    30A     -0.456588
      31A     -0.342381    32A     -0.304504

  @DF-RHF Final Energy:  -418.39979003682129

   => Energetics <=

    Nuclear Repulsion Energy =            425.8393754854872668
    One-Electron Energy =               -1414.0892234787449979
    Two-Electron Energy =                 569.8500579564364443
    Total Energy =                       -418.3997900368212868
  Basis Set: (AUG-CC-PVTZ AUX)
    Blend: AUG-CC-PVTZ-RI
    Molecular point group: c1

    Geometry (in Angstrom), charge = 0, multiplicity = 1:

       Center              X                  Y                   Z               Mass
    ------------   -----------------  -----------------  -----------------  -----------------
         O           -1.470733079796     1.167963743784    -0.025078624765    15.994914619570
         O           -1.470740079796    -1.167958256216    -0.025036624765    15.994914619570
         C           -0.176063079796     0.695153743784    -0.024646624765    12.000000000000
         C           -0.176049079796    -0.695147256216    -0.024618624765    12.000000000000
         C           -2.309489079796    -0.000018256216    -0.024057624765    12.000000000000
         C            0.995625220204     1.430044443784     0.225436375235    12.000000000000
         C            0.995677920204    -1.430028256216    -0.024493624765    12.000000000000
         C            2.195284920204     0.698700743784    -0.024368624765    12.000000000000
         C            2.195286920204    -0.698711256216    -0.024338624765    12.000000000000
         H           -2.926283079796     0.000018743784     0.880075375235     1.007825032230
         H           -2.928375079796    -0.000015256216    -0.926721624765     1.007825032230
         H            0.979920920204     2.515604743784    -0.024629624765     1.007825032230
         H            0.979907920204    -2.515611256216    -0.024509624765     1.007825032230
         H            3.140739920204     1.234239743784    -0.024253624765     1.007825032230
         H            3.140740920204    -1.234251256216    -0.024194624765     1.007825032230

  Basis Set: AUG-CC-PVTZ
    Blend: AUG-CC-PVTZ
  Basis Set: (AUG-CC-PVTZ AUX)
    Blend: AUG-CC-PVTZ-JKFIT
	 Reference Energy          =    -418.3997900368212868 [Eh]
	 Singles Energy            =      -0.0000000000000000 [Eh]
	 Same-Spin Energy          =      -0.4353651913113263 [Eh]
	 Opposite-Spin Energy      =      -1.3199096319014301 [Eh]
	 Correlation Energy        =      -1.7552748232127564 [Eh]
	 Total Energy              =    -420.1550648600340310 [Eh]

	 ================> DF-SCS-MP2 Energies <==================
	-----------------------------------------------------------
	 SCS Same-Spin Scale       =       0.3333333333333333 [-]
	 SCS Opposite-Spin Scale   =       1.2000000000000000 [-]
	 SCS Same-Spin Energy      =      -0.1451217304371087 [Eh]
	 SCS Opposite-Spin Energy  =      -1.5838915582817161 [Eh]
	 SCS Correlation Energy    =      -1.7290132887188250 [Eh]
	 SCS Total Energy          =    -420.1288033255401047 [Eh]
	-----------------------------------------------------------

  Dipole Moment: [D]
     X:    -0.4494      Y:    -0.1490      Z:    -0.1839     Total:     0.5079

*** Psi4 exiting successfully. Buy a developer a beer!
