                               Psi4 1.3.2 release

  ==> Input File <==

--------------------------------------------------------------------------
#psi4
#
memory 32 gb

molecule  {
0 1
  O       -1.4891210     1.1679660    -0.0005210
  O       -1.4891280    -1.1679560    -0.0004790
  C       -0.1944510     0.6951560    -0.0000890
  C       -0.1944370    -0.6951450    -0.0000610
  C       -2.3278770    -0.0000160     0.0005000
  C        0.9772920     1.4300230    -0.0000060
  C        0.9772900    -1.4300260     0.0000640
  C        2.1768970     0.6987030     0.0001890
  C        2.1768990    -0.6987090     0.0002190
  H       -2.9446710     0.0000210     0.9046330
  H       -2.9467630    -0.0000130    -0.9021640
  H        0.9615154     2.5156168     0.1499280
  H        0.9615200    -2.5156090     0.0000480
  H        3.1223520     1.2342420     0.0003040
  H        3.1223530    -1.2342490     0.0003630
units angstrom
no_reorient  #important for SAPT in psi4, default
symmetry c1  #important for SAPT in psi4, default
}

set PROPERTIES_ORIGIN ["COM"]
properties('MP2/aug-cc-pvtz', properties = ['dipole'])
--------------------------------------------------------------------------

    Molecular point group: c1
  Charge       = 0
  Multiplicity = 1
  Basis Set: AUG-CC-PVTZ
    Blend: AUG-CC-PVTZ
  Basis Set: (AUG-CC-PVTZ AUX)
    Blend: AUG-CC-PVTZ-JKFIT

    Orbital Energies [Eh]
    ---------------------

    Doubly Occupied:

       1A    -20.602478     2A    -20.602407     3A    -11.358581
       4A    -11.301530     5A    -11.300260     6A    -11.245781
       7A    -11.245195     8A    -11.240785     9A    -11.239585
      10A     -1.471970    11A     -1.372560    12A     -1.155158
      13A     -1.023813    14A     -1.023401    15A     -0.912873
      16A     -0.851521    17A     -0.832790    18A     -0.714924
      19A     -0.711593    20A     -0.705125    21A     -0.675670
      22A     -0.617094    23A     -0.594511    24A     -0.587334
      25A     -0.566470    26A     -0.555705    27A     -0.549525
      28A     -0.529847    29A     -0.506413    30A     -0.458304
      31A     -0.341770    32A     -0.305244

  @DF-RHF Final Energy:  -418.41706739107713

   => Energetics <=

    Nuclear Repulsion Energy =            426.5074186865206798
    One-Electron Energy =               -1415.4485336743225616
    Two-Electron Energy =                 570.5240475967248130
    Total Energy =                       -418.4170673910771256
  Basis Set: (AUG-CC-PVTZ AUX)
    Blend: AUG-CC-PVTZ-RI
    Molecular point group: c1

    Geometry (in Angstrom), charge = 0, multiplicity = 1:

       Center              X                  Y                   Z               Mass
    ------------   -----------------  -----------------  -----------------  -----------------
         O           -1.470738313155     1.167965993297    -0.001734627502    15.994914619570
         O           -1.470745313155    -1.167956006703    -0.001692627502    15.994914619570
         C           -0.176068313155     0.695155993297    -0.001302627502    12.000000000000
         C           -0.176054313155    -0.695145006703    -0.001274627502    12.000000000000
         C           -2.309494313155    -0.000016006703    -0.000713627502    12.000000000000
         C            0.995674686845     1.430022993297    -0.001219627502    12.000000000000
         C            0.995672686845    -1.430026006703    -0.001149627502    12.000000000000
         C            2.195279686845     0.698702993297    -0.001024627502    12.000000000000
         C            2.195281686845    -0.698709006703    -0.000994627502    12.000000000000
         H           -2.926288313155     0.000020993297     0.903419372498     1.007825032230
         H           -2.928380313155    -0.000013006703    -0.903377627502     1.007825032230
         H            0.979898086845     2.515616793297     0.148714372498     1.007825032230
         H            0.979902686845    -2.515609006703    -0.001165627502     1.007825032230
         H            3.140734686845     1.234241993297    -0.000909627502     1.007825032230
         H            3.140735686845    -1.234249006703    -0.000850627502     1.007825032230

  Basis Set: AUG-CC-PVTZ
    Blend: AUG-CC-PVTZ
  Basis Set: (AUG-CC-PVTZ AUX)
    Blend: AUG-CC-PVTZ-JKFIT
	 Reference Energy          =    -418.4170673910771256 [Eh]
	 Singles Energy            =      -0.0000000000000000 [Eh]
	 Same-Spin Energy          =      -0.4344242672600913 [Eh]
	 Opposite-Spin Energy      =      -1.3170532028516320 [Eh]
	 Correlation Energy        =      -1.7514774701117233 [Eh]
	 Total Energy              =    -420.1685448611888205 [Eh]

	 ================> DF-SCS-MP2 Energies <==================
	-----------------------------------------------------------
	 SCS Same-Spin Scale       =       0.3333333333333333 [-]
	 SCS Opposite-Spin Scale   =       1.2000000000000000 [-]
	 SCS Same-Spin Energy      =      -0.1448080890866971 [Eh]
	 SCS Opposite-Spin Energy  =      -1.5804638434219582 [Eh]
	 SCS Correlation Energy    =      -1.7252719325086554 [Eh]
	 SCS Total Energy          =    -420.1423393235857588 [Eh]
	-----------------------------------------------------------

  Dipole Moment: [D]
     X:    -0.4135      Y:    -0.0189      Z:     0.1081     Total:     0.4278

*** Psi4 exiting successfully. Buy a developer a beer!
