                               Psi4 1.3.2 release

  ==> Input File <==

--------------------------------------------------------------------------
#psi4
#
memory 32 gb

molecule  {
0 1
  O       -1.4891210     1.1679660    -0.0005210
  O       -1.4891280    -1.1679560    -0.0004790
  C       -0.1944510     0.6951560    -0.0000890
  C       -0.1944370    -0.6951450    -0.0000610
  C       -2.3278770    -0.0000160     0.0005000
  C        0.9772592     1.4300372     0.1499940
  C        0.9772900    -1.4300260     0.0000640
  C        2.1768970     0.6987030     0.0001890
  C        2.1768990    -0.6987090     0.0002190
  H       -2.9446710     0.0000210     0.9046330
  H       -2.9467630    -0.0000130    -0.9021640
  H        0.9615330     2.5156070    -0.0000720
  H        0.9615200    -2.5156090     0.0000480
  H        3.1223520     1.2342420     0.0003040
  H        3.1223530    -1.2342490     0.0003630
units angstrom
no_reorient  #important for SAPT in psi4, default
symmetry c1  #important for SAPT in psi4, default
}

set PROPERTIES_ORIGIN ["COM"]
properties('MP2/aug-cc-pvtz', properties = ['dipole'])
--------------------------------------------------------------------------

    Molecular point group: c1
  Charge       = 0
  Multiplicity = 1
  Basis Set: AUG-CC-PVTZ
    Blend: AUG-CC-PVTZ
  Basis Set: (AUG-CC-PVTZ AUX)
    Blend: AUG-CC-PVTZ-JKFIT

    Orbital Energies [Eh]
    ---------------------

    Doubly Occupied:

       1A    -20.602984     2A    -20.602480     3A    -11.358721
       4A    -11.302915     5A    -11.300565     6A    -11.246750
       7A    -11.246082     8A    -11.241915     9A    -11.239770
      10A     -1.472249    11A     -1.372815    12A     -1.154381
      13A     -1.023320    14A     -1.022880    15A     -0.912922
      16A     -0.851748    17A     -0.831786    18A     -0.715341
      19A     -0.710915    20A     -0.705005    21A     -0.675033
      22A     -0.615744    23A     -0.594210    24A     -0.586929
      25A     -0.566500    26A     -0.555911    27A     -0.549202
      28A     -0.529049    29A     -0.505482    30A     -0.457783
      31A     -0.342002    32A     -0.304898

  @DF-RHF Final Energy:  -418.41180905023447

   => Energetics <=

    Nuclear Repulsion Energy =            426.2895841602112341
    One-Electron Energy =               -1415.0062164095609205
    Two-Electron Energy =                 570.3048231991152761
    Total Energy =                       -418.4118090502344103
  Basis Set: (AUG-CC-PVTZ AUX)
    Blend: AUG-CC-PVTZ-RI
    Molecular point group: c1

    Geometry (in Angstrom), charge = 0, multiplicity = 1:

       Center              X                  Y                   Z               Mass
    ------------   -----------------  -----------------  -----------------  -----------------
         O           -1.470735233245     1.167964677929    -0.015245523584    15.994914619570
         O           -1.470742233245    -1.167957322071    -0.015203523584    15.994914619570
         C           -0.176065233245     0.695154677929    -0.014813523584    12.000000000000
         C           -0.176051233245    -0.695146322071    -0.014785523584    12.000000000000
         C           -2.309491233245    -0.000017322071    -0.014224523584    12.000000000000
         C            0.995644966755     1.430035877929     0.135269476416    12.000000000000
         C            0.995675766755    -1.430027322071    -0.014660523584    12.000000000000
         C            2.195282766755     0.698701677929    -0.014535523584    12.000000000000
         C            2.195284766755    -0.698710322071    -0.014505523584    12.000000000000
         H           -2.926285233245     0.000019677929     0.889908476416     1.007825032230
         H           -2.928377233245    -0.000014322071    -0.916888523584     1.007825032230
         H            0.979918766755     2.515605677929    -0.014796523584     1.007825032230
         H            0.979905766755    -2.515610322071    -0.014676523584     1.007825032230
         H            3.140737766755     1.234240677929    -0.014420523584     1.007825032230
         H            3.140738766755    -1.234250322071    -0.014361523584     1.007825032230

  Basis Set: AUG-CC-PVTZ
    Blend: AUG-CC-PVTZ
  Basis Set: (AUG-CC-PVTZ AUX)
    Blend: AUG-CC-PVTZ-JKFIT
	 Reference Energy          =    -418.4118090502344671 [Eh]
	 Singles Energy            =      -0.0000000000000000 [Eh]
	 Same-Spin Energy          =      -0.4347187227116723 [Eh]
	 Opposite-Spin Energy      =      -1.3179398656144850 [Eh]
	 Correlation Energy        =      -1.7526585883261572 [Eh]
	 Total Energy              =    -420.1644676385606090 [Eh]

	 ================> DF-SCS-MP2 Energies <==================
	-----------------------------------------------------------
	 SCS Same-Spin Scale       =       0.3333333333333333 [-]
	 SCS Opposite-Spin Scale   =       1.2000000000000000 [-]
	 SCS Same-Spin Energy      =      -0.1449062409038908 [Eh]
	 SCS Opposite-Spin Energy  =      -1.5815278387373819 [Eh]
	 SCS Correlation Energy    =      -1.7264340796412727 [Eh]
	 SCS Total Energy          =    -420.1382431298757183 [Eh]
	-----------------------------------------------------------

  Dipole Moment: [D]
     X:    -0.4255      Y:    -0.0546      Z:    -0.1067     Total:     0.4420

*** Psi4 exiting successfully. Buy a developer a beer!
