                               Psi4 1.3.2 release

  ==> Input File <==

--------------------------------------------------------------------------
#psi4
#
memory 32 gb

molecule  {
0 1
  O       -1.4891210     1.1679660    -0.0005210
  O       -1.4891280    -1.1679560    -0.0004790
  C       -0.1944510     0.6951560    -0.0000890
  C       -0.1944370    -0.6951450    -0.0000610
  C       -2.3278770    -0.0000160     0.0005000
  C        0.9772920     1.4300230    -0.0000060
  C        0.9772900    -1.4300260     0.0000640
  C        2.1768970     0.6987030     0.0001890
  C        2.1768990    -0.6987090     0.0002190
  H       -2.9446710     0.0000210     0.9046330
  H       -2.9467630    -0.0000130    -0.9021640
  H        0.9615330     2.5156070    -0.0000720
  H        0.9615200    -2.5156090     0.0000480
  H        3.1223378     1.2342446     0.1003040
  H        3.1223530    -1.2342490     0.0003630
units angstrom
no_reorient  #important for SAPT in psi4, default
symmetry c1  #important for SAPT in psi4, default
}

set PROPERTIES_ORIGIN ["COM"]
properties('MP2/aug-cc-pvtz', properties = ['dipole'])
--------------------------------------------------------------------------

    Molecular point group: c1
  Charge       = 0
  Multiplicity = 1
  Basis Set: AUG-CC-PVTZ
    Blend: AUG-CC-PVTZ
  Basis Set: (AUG-CC-PVTZ AUX)
    Blend: AUG-CC-PVTZ-JKFIT

    Orbital Energies [Eh]
    ---------------------

    Doubly Occupied:

       1A    -20.602442     2A    -20.602383     3A    -11.358567
       4A    -11.301452     5A    -11.300189     6A    -11.245037
       7A    -11.245006     8A    -11.240919     9A    -11.239695
      10A     -1.471945    11A     -1.372538    12A     -1.155123
      13A     -1.024047    14A     -1.023250    15A     -0.912779
      16A     -0.852012    17A     -0.832554    18A     -0.714847
      19A     -0.712250    20A     -0.705023    21A     -0.675462
      22A     -0.618662    23A     -0.594291    24A     -0.587256
      25A     -0.566476    26A     -0.555689    27A     -0.549628
      28A     -0.529311    29A     -0.506981    30A     -0.458245
      31A     -0.341868    32A     -0.305178

  @DF-RHF Final Energy:  -418.41783191849612

   => Energetics <=

    Nuclear Repulsion Energy =            426.5306583625918506
    One-Electron Energy =               -1415.4947690775629781
    Two-Electron Energy =                 570.5462787964750078
    Total Energy =                       -418.4178319184961765
  Basis Set: (AUG-CC-PVTZ AUX)
    Blend: AUG-CC-PVTZ-RI
    Molecular point group: c1

    Geometry (in Angstrom), charge = 0, multiplicity = 1:

       Center              X                  Y                   Z               Mass
    ------------   -----------------  -----------------  -----------------  -----------------
         O           -1.470738341234     1.167966052757    -0.001321708938    15.994914619570
         O           -1.470745341234    -1.167955947243    -0.001279708938    15.994914619570
         C           -0.176068341234     0.695156052757    -0.000889708938    12.000000000000
         C           -0.176054341234    -0.695144947243    -0.000861708938    12.000000000000
         C           -2.309494341234    -0.000015947243    -0.000300708938    12.000000000000
         C            0.995674658766     1.430023052757    -0.000806708938    12.000000000000
         C            0.995672658766    -1.430025947243    -0.000736708938    12.000000000000
         C            2.195279658766     0.698703052757    -0.000611708938    12.000000000000
         C            2.195281658766    -0.698708947243    -0.000581708938    12.000000000000
         H           -2.926288341234     0.000021052757     0.903832291062     1.007825032230
         H           -2.928380341234    -0.000012947243    -0.902964708938     1.007825032230
         H            0.979915658766     2.515607052757    -0.000872708938     1.007825032230
         H            0.979902658766    -2.515608947243    -0.000752708938     1.007825032230
         H            3.140720458766     1.234244652757     0.099503291062     1.007825032230
         H            3.140735658766    -1.234248947243    -0.000437708938     1.007825032230

  Basis Set: AUG-CC-PVTZ
    Blend: AUG-CC-PVTZ
  Basis Set: (AUG-CC-PVTZ AUX)
    Blend: AUG-CC-PVTZ-JKFIT
	 Reference Energy          =    -418.4178319184961197 [Eh]
	 Singles Energy            =      -0.0000000000000000 [Eh]
	 Same-Spin Energy          =      -0.4343750141129156 [Eh]
	 Opposite-Spin Energy      =      -1.3169588750029826 [Eh]
	 Correlation Energy        =      -1.7513338891158983 [Eh]
	 Total Energy              =    -420.1691658076120461 [Eh]

	 ================> DF-SCS-MP2 Energies <==================
	-----------------------------------------------------------
	 SCS Same-Spin Scale       =       0.3333333333333333 [-]
	 SCS Opposite-Spin Scale   =       1.2000000000000000 [-]
	 SCS Same-Spin Energy      =      -0.1447916713709719 [Eh]
	 SCS Opposite-Spin Energy  =      -1.5803506500035791 [Eh]
	 SCS Correlation Energy    =      -1.7251423213745509 [Eh]
	 SCS Total Energy          =    -420.1429742398706821 [Eh]
	-----------------------------------------------------------

  Dipole Moment: [D]
     X:    -0.4205      Y:    -0.0052      Z:     0.0684     Total:     0.4260

*** Psi4 exiting successfully. Buy a developer a beer!
