                               Psi4 1.3.2 release

  ==> Input File <==

--------------------------------------------------------------------------
#psi4
#
memory 32 gb

molecule  {
0 1
  O       -1.4891210     1.1679660    -0.0005210
  O       -1.4891280    -1.1679560    -0.0004790
  C       -0.1944510     0.6951560    -0.0000890
  C       -0.1944370    -0.6951450    -0.0000610
  C       -2.3278770    -0.0000160     0.0005000
  C        0.9772920     1.4300230    -0.0000060
  C        0.9772900    -1.4300260     0.0000640
  C        2.1768970     0.6987030     0.0001890
  C        2.1768990    -0.6987090     0.0002190
  H       -2.9446710     0.0000210     0.9046330
  H       -2.9467630    -0.0000130    -0.9021640
  H        0.9615213     2.5156135     0.0999280
  H        0.9615200    -2.5156090     0.0000480
  H        3.1223520     1.2342420     0.0003040
  H        3.1223530    -1.2342490     0.0003630
units angstrom
no_reorient  #important for SAPT in psi4, default
symmetry c1  #important for SAPT in psi4, default
}

set PROPERTIES_ORIGIN ["COM"]
properties('MP2/aug-cc-pvtz', properties = ['dipole'])
--------------------------------------------------------------------------

    Molecular point group: c1
  Charge       = 0
  Multiplicity = 1
  Basis Set: AUG-CC-PVTZ
    Blend: AUG-CC-PVTZ
  Basis Set: (AUG-CC-PVTZ AUX)
    Blend: AUG-CC-PVTZ-JKFIT

    Orbital Energies [Eh]
    ---------------------

    Doubly Occupied:

       1A    -20.602413     2A    -20.602377     3A    -11.358550
       4A    -11.301444     5A    -11.300182     6A    -11.245329
       7A    -11.245069     8A    -11.240717     9A    -11.239522
      10A     -1.471925    11A     -1.372518    12A     -1.155120
      13A     -1.023931    14A     -1.023348    15A     -0.912831
      16A     -0.851785    17A     -0.832745    18A     -0.714860
      19A     -0.711950    20A     -0.705210    21A     -0.675691
      22A     -0.617940    23A     -0.594465    24A     -0.587316
      25A     -0.566446    26A     -0.555667    27A     -0.549493
      28A     -0.529807    29A     -0.506743    30A     -0.458396
      31A     -0.341817    32A     -0.305201

  @DF-RHF Final Energy:  -418.41784553262727

   => Energetics <=

    Nuclear Repulsion Energy =            426.5298997172301370
    One-Electron Energy =               -1415.4938778054583963
    Two-Electron Energy =                 570.5461325556010479
    Total Energy =                       -418.4178455326272115
  Basis Set: (AUG-CC-PVTZ AUX)
    Blend: AUG-CC-PVTZ-RI
    Molecular point group: c1

    Geometry (in Angstrom), charge = 0, multiplicity = 1:

       Center              X                  Y                   Z               Mass
    ------------   -----------------  -----------------  -----------------  -----------------
         O           -1.470738361879     1.167966020550    -0.001321708938    15.994914619570
         O           -1.470745361879    -1.167955979450    -0.001279708938    15.994914619570
         C           -0.176068361879     0.695156020550    -0.000889708938    12.000000000000
         C           -0.176054361879    -0.695144979450    -0.000861708938    12.000000000000
         C           -2.309494361879    -0.000015979450    -0.000300708938    12.000000000000
         C            0.995674638121     1.430023020550    -0.000806708938    12.000000000000
         C            0.995672638121    -1.430025979450    -0.000736708938    12.000000000000
         C            2.195279638121     0.698703020550    -0.000611708938    12.000000000000
         C            2.195281638121    -0.698708979450    -0.000581708938    12.000000000000
         H           -2.926288361879     0.000021020550     0.903832291062     1.007825032230
         H           -2.928380361879    -0.000012979450    -0.902964708938     1.007825032230
         H            0.979903938121     2.515613520550     0.099127291062     1.007825032230
         H            0.979902638121    -2.515608979450    -0.000752708938     1.007825032230
         H            3.140734638121     1.234242020550    -0.000496708938     1.007825032230
         H            3.140735638121    -1.234248979450    -0.000437708938     1.007825032230

  Basis Set: AUG-CC-PVTZ
    Blend: AUG-CC-PVTZ
  Basis Set: (AUG-CC-PVTZ AUX)
    Blend: AUG-CC-PVTZ-JKFIT
	 Reference Energy          =    -418.4178455326272683 [Eh]
	 Singles Energy            =      -0.0000000000000000 [Eh]
	 Same-Spin Energy          =      -0.4343761660901967 [Eh]
	 Opposite-Spin Energy      =      -1.3169534768915532 [Eh]
	 Correlation Energy        =      -1.7513296429817500 [Eh]
	 Total Energy              =    -420.1691751756090412 [Eh]

	 ================> DF-SCS-MP2 Energies <==================
	-----------------------------------------------------------
	 SCS Same-Spin Scale       =       0.3333333333333333 [-]
	 SCS Opposite-Spin Scale   =       1.2000000000000000 [-]
	 SCS Same-Spin Energy      =      -0.1447920553633989 [Eh]
	 SCS Opposite-Spin Energy  =      -1.5803441722698637 [Eh]
	 SCS Correlation Energy    =      -1.7251362276332625 [Eh]
	 SCS Total Energy          =    -420.1429817602605112 [Eh]
	-----------------------------------------------------------

  Dipole Moment: [D]
     X:    -0.4126      Y:    -0.0085      Z:     0.0729     Total:     0.4191

*** Psi4 exiting successfully. Buy a developer a beer!
