                               Psi4 1.3.2 release

  ==> Input File <==

--------------------------------------------------------------------------
#psi4
#
memory 32 gb

molecule  {
0 1
  O       -1.4891210     1.1679660    -0.0005210
  O       -1.4891280    -1.1679560    -0.0004790
  C       -0.1944510     0.6951560    -0.0000890
  C       -0.1944370    -0.6951450    -0.0000610
  C       -2.3278770    -0.0000160     0.0005000
  C        0.9772920     1.4300230    -0.0000060
  C        0.9772900    -1.4300260     0.0000640
  C        2.1768970     0.6987030     0.0001890
  C        2.1768990    -0.6987090     0.0002190
  H       -2.9446710     0.0000210     0.9046330
  H       -2.9467630    -0.0000130    -0.9021640
  H        0.9615330     2.5156070    -0.0000720
  H        0.9615200    -2.5156090     0.0000480
  H        3.1223307     1.2342458     0.1503040
  H        3.1223530    -1.2342490     0.0003630
units angstrom
no_reorient  #important for SAPT in psi4, default
symmetry c1  #important for SAPT in psi4, default
}

set PROPERTIES_ORIGIN ["COM"]
properties('MP2/aug-cc-pvtz', properties = ['dipole'])
--------------------------------------------------------------------------

    Molecular point group: c1
  Charge       = 0
  Multiplicity = 1
  Basis Set: AUG-CC-PVTZ
    Blend: AUG-CC-PVTZ
  Basis Set: (AUG-CC-PVTZ AUX)
    Blend: AUG-CC-PVTZ-JKFIT

    Orbital Energies [Eh]
    ---------------------

    Doubly Occupied:

       1A    -20.602545     2A    -20.602420     3A    -11.358621
       4A    -11.301551     5A    -11.300274     6A    -11.245128
       7A    -11.245056     8A    -11.241277     9A    -11.239934
      10A     -1.472014    11A     -1.372606    12A     -1.155166
      13A     -1.024082    14A     -1.023173    15A     -0.912758
      16A     -0.852027    17A     -0.832366    18A     -0.714909
      19A     -0.712238    20A     -0.704724    21A     -0.675154
      22A     -0.618715    23A     -0.594128    24A     -0.587196
      25A     -0.566538    26A     -0.555755    27A     -0.549821
      28A     -0.528741    29A     -0.506949    30A     -0.457964
      31A     -0.341887    32A     -0.305195

  @DF-RHF Final Energy:  -418.41703688229882

   => Energetics <=

    Nuclear Repulsion Energy =            426.5091180771730137
    One-Electron Energy =               -1415.4504839910462124
    Two-Electron Energy =                 570.5243290315743252
    Total Energy =                       -418.4170368822988166
  Basis Set: (AUG-CC-PVTZ AUX)
    Blend: AUG-CC-PVTZ-RI
    Molecular point group: c1

    Geometry (in Angstrom), charge = 0, multiplicity = 1:

       Center              X                  Y                   Z               Mass
    ------------   -----------------  -----------------  -----------------  -----------------
         O           -1.470738282599     1.167966042847    -0.001734627502    15.994914619570
         O           -1.470745282599    -1.167955957153    -0.001692627502    15.994914619570
         C           -0.176068282599     0.695156042847    -0.001302627502    12.000000000000
         C           -0.176054282599    -0.695144957153    -0.001274627502    12.000000000000
         C           -2.309494282599    -0.000015957153    -0.000713627502    12.000000000000
         C            0.995674717401     1.430023042847    -0.001219627502    12.000000000000
         C            0.995672717401    -1.430025957153    -0.001149627502    12.000000000000
         C            2.195279717401     0.698703042847    -0.001024627502    12.000000000000
         C            2.195281717401    -0.698708957153    -0.000994627502    12.000000000000
         H           -2.926288282599     0.000021042847     0.903419372498     1.007825032230
         H           -2.928380282599    -0.000012957153    -0.903377627502     1.007825032230
         H            0.979915717401     2.515607042847    -0.001285627502     1.007825032230
         H            0.979902717401    -2.515608957153    -0.001165627502     1.007825032230
         H            3.140713417401     1.234245842847     0.149090372498     1.007825032230
         H            3.140735717401    -1.234248957153    -0.000850627502     1.007825032230

  Basis Set: AUG-CC-PVTZ
    Blend: AUG-CC-PVTZ
  Basis Set: (AUG-CC-PVTZ AUX)
    Blend: AUG-CC-PVTZ-JKFIT
	 Reference Energy          =    -418.4170368822988166 [Eh]
	 Singles Energy            =      -0.0000000000000000 [Eh]
	 Same-Spin Energy          =      -0.4344209118320714 [Eh]
	 Opposite-Spin Energy      =      -1.3170665808722630 [Eh]
	 Correlation Energy        =      -1.7514874927043345 [Eh]
	 Total Energy              =    -420.1685243750031304 [Eh]

	 ================> DF-SCS-MP2 Energies <==================
	-----------------------------------------------------------
	 SCS Same-Spin Scale       =       0.3333333333333333 [-]
	 SCS Opposite-Spin Scale   =       1.2000000000000000 [-]
	 SCS Same-Spin Energy      =      -0.1448069706106905 [Eh]
	 SCS Opposite-Spin Energy  =      -1.5804798970467155 [Eh]
	 SCS Correlation Energy    =      -1.7252868676574060 [Eh]
	 SCS Total Energy          =    -420.1423237499562333 [Eh]
	-----------------------------------------------------------

  Dipole Moment: [D]
     X:    -0.4311      Y:    -0.0116      Z:     0.1014     Total:     0.4430

*** Psi4 exiting successfully. Buy a developer a beer!
