                               Psi4 1.3.2 release

  ==> Input File <==

--------------------------------------------------------------------------
#psi4
#
memory 32 gb

molecule  {
0 1
  O       -1.4891210     1.1679660    -0.0005210
  O       -1.4891280    -1.1679560    -0.0004790
  C       -0.1944510     0.6951560    -0.0000890
  C       -0.1944370    -0.6951450    -0.0000610
  C       -2.3278770    -0.0000160     0.0005000
  C        0.9772920     1.4300230    -0.0000060
  C        0.9772900    -1.4300260     0.0000640
  C        2.1768970     0.6987030     0.0001890
  C        2.1768990    -0.6987090     0.0002190
  H       -2.9446710     0.0000210     0.9046330
  H       -2.9467630    -0.0000130    -0.9021640
  H        0.9615330     2.5156070    -0.0000720
  H        0.9615200    -2.5156090     0.0000480
  H        3.1223449     1.2342433     0.0503040
  H        3.1223530    -1.2342490     0.0003630
units angstrom
no_reorient  #important for SAPT in psi4, default
symmetry c1  #important for SAPT in psi4, default
}

set PROPERTIES_ORIGIN ["COM"]
properties('MP2/aug-cc-pvtz', properties = ['dipole'])
--------------------------------------------------------------------------

    Molecular point group: c1
  Charge       = 0
  Multiplicity = 1
  Basis Set: AUG-CC-PVTZ
    Blend: AUG-CC-PVTZ
  Basis Set: (AUG-CC-PVTZ AUX)
    Blend: AUG-CC-PVTZ-JKFIT

    Orbital Energies [Eh]
    ---------------------

    Doubly Occupied:

       1A    -20.602384     2A    -20.602359     3A    -11.358535
       4A    -11.301396     5A    -11.300136     6A    -11.244983
       7A    -11.244977     8A    -11.240725     9A    -11.239530
      10A     -1.471903    11A     -1.372498    12A     -1.155098
      13A     -1.024032    14A     -1.023293    15A     -0.912792
      16A     -0.852005    17A     -0.832671    18A     -0.714810
      19A     -0.712264    20A     -0.705207    21A     -0.675648
      22A     -0.618631    23A     -0.594393    24A     -0.587290
      25A     -0.566439    26A     -0.555650    27A     -0.549508
      28A     -0.529659    29A     -0.506998    30A     -0.458413
      31A     -0.341858    32A     -0.305169

  @DF-RHF Final Energy:  -418.41829465049994

   => Energetics <=

    Nuclear Repulsion Energy =            426.5437066079248325
    One-Electron Energy =               -1415.5214902192126374
    Two-Electron Energy =                 570.5594889607878031
    Total Energy =                       -418.4182946505000018
  Basis Set: (AUG-CC-PVTZ AUX)
    Blend: AUG-CC-PVTZ-RI
    Molecular point group: c1

    Geometry (in Angstrom), charge = 0, multiplicity = 1:

       Center              X                  Y                   Z               Mass
    ------------   -----------------  -----------------  -----------------  -----------------
         O           -1.470738399868     1.167966063493    -0.000908790375    15.994914619570
         O           -1.470745399868    -1.167955936507    -0.000866790375    15.994914619570
         C           -0.176068399868     0.695156063493    -0.000476790375    12.000000000000
         C           -0.176054399868    -0.695144936507    -0.000448790375    12.000000000000
         C           -2.309494399868    -0.000015936507     0.000112209625    12.000000000000
         C            0.995674600132     1.430023063493    -0.000393790375    12.000000000000
         C            0.995672600132    -1.430025936507    -0.000323790375    12.000000000000
         C            2.195279600132     0.698703063493    -0.000198790375    12.000000000000
         C            2.195281600132    -0.698708936507    -0.000168790375    12.000000000000
         H           -2.926288399868     0.000021063493     0.904245209625     1.007825032230
         H           -2.928380399868    -0.000012936507    -0.902551790375     1.007825032230
         H            0.979915600132     2.515607063493    -0.000459790375     1.007825032230
         H            0.979902600132    -2.515608936507    -0.000339790375     1.007825032230
         H            3.140727500132     1.234243363493     0.049916209625     1.007825032230
         H            3.140735600132    -1.234248936507    -0.000024790375     1.007825032230

  Basis Set: AUG-CC-PVTZ
    Blend: AUG-CC-PVTZ
  Basis Set: (AUG-CC-PVTZ AUX)
    Blend: AUG-CC-PVTZ-JKFIT
	 Reference Energy          =    -418.4182946504999450 [Eh]
	 Singles Energy            =      -0.0000000000000000 [Eh]
	 Same-Spin Energy          =      -0.4343469375291416 [Eh]
	 Opposite-Spin Energy      =      -1.3168983669687757 [Eh]
	 Correlation Energy        =      -1.7512453044979173 [Eh]
	 Total Energy              =    -420.1695399549978447 [Eh]

	 ================> DF-SCS-MP2 Energies <==================
	-----------------------------------------------------------
	 SCS Same-Spin Scale       =       0.3333333333333333 [-]
	 SCS Opposite-Spin Scale   =       1.2000000000000000 [-]
	 SCS Same-Spin Energy      =      -0.1447823125097139 [Eh]
	 SCS Opposite-Spin Energy  =      -1.5802780403625307 [Eh]
	 SCS Correlation Energy    =      -1.7250603528722446 [Eh]
	 SCS Total Energy          =    -420.1433550033721644 [Eh]
	-----------------------------------------------------------

  Dipole Moment: [D]
     X:    -0.4140      Y:    -0.0013      Z:     0.0351     Total:     0.4155

*** Psi4 exiting successfully. Buy a developer a beer!
