                               Psi4 1.3.2 release

  ==> Input File <==

--------------------------------------------------------------------------
#psi4
#
memory 32 gb

molecule  {
0 1
  O       -1.4891210     1.1679660    -0.0005210
  O       -1.4891280    -1.1679560    -0.0004790
  C       -0.1944510     0.6951560    -0.0000890
  C       -0.1944370    -0.6951450    -0.0000610
  C       -2.3278770    -0.0000160     0.0005000
  C        0.9772482     1.4300420     0.1999940
  C        0.9772900    -1.4300260     0.0000640
  C        2.1768970     0.6987030     0.0001890
  C        2.1768990    -0.6987090     0.0002190
  H       -2.9446710     0.0000210     0.9046330
  H       -2.9467630    -0.0000130    -0.9021640
  H        0.9615330     2.5156070    -0.0000720
  H        0.9615200    -2.5156090     0.0000480
  H        3.1223520     1.2342420     0.0003040
  H        3.1223530    -1.2342490     0.0003630
units angstrom
no_reorient  #important for SAPT in psi4, default
symmetry c1  #important for SAPT in psi4, default
}

set PROPERTIES_ORIGIN ["COM"]
properties('MP2/aug-cc-pvtz', properties = ['dipole'])
--------------------------------------------------------------------------

    Molecular point group: c1
  Charge       = 0
  Multiplicity = 1
  Basis Set: AUG-CC-PVTZ
    Blend: AUG-CC-PVTZ
  Basis Set: (AUG-CC-PVTZ AUX)
    Blend: AUG-CC-PVTZ-JKFIT

    Orbital Energies [Eh]
    ---------------------

    Doubly Occupied:

       1A    -20.603481     2A    -20.602590     3A    -11.358882
       4A    -11.304364     5A    -11.300663     6A    -11.248113
       7A    -11.246974     8A    -11.243118     9A    -11.239779
      10A     -1.472540    11A     -1.373083    12A     -1.153866
      13A     -1.023339    14A     -1.022001    15A     -0.913032
      16A     -0.851571    17A     -0.831125    18A     -0.715675
      19A     -0.710064    20A     -0.704853    21A     -0.674552
      22A     -0.613553    23A     -0.594122    24A     -0.586604
      25A     -0.566577    26A     -0.556134    27A     -0.549025
      28A     -0.528449    29A     -0.504247    30A     -0.457258
      31A     -0.342153    32A     -0.304716

  @DF-RHF Final Energy:  -418.40657918160946

   => Energetics <=

    Nuclear Repulsion Energy =            426.0911759920389272
    One-Electron Energy =               -1414.6025031896158453
    Two-Electron Energy =                 570.1047480159675160
    Total Energy =                       -418.4065791816094588
  Basis Set: (AUG-CC-PVTZ AUX)
    Blend: AUG-CC-PVTZ-RI
    Molecular point group: c1

    Geometry (in Angstrom), charge = 0, multiplicity = 1:

       Center              X                  Y                   Z               Mass
    ------------   -----------------  -----------------  -----------------  -----------------
         O           -1.470734151604     1.167964205940    -0.020162074175    15.994914619570
         O           -1.470741151604    -1.167957794060    -0.020120074175    15.994914619570
         C           -0.176064151604     0.695154205940    -0.019730074175    12.000000000000
         C           -0.176050151604    -0.695146794060    -0.019702074175    12.000000000000
         C           -2.309490151604    -0.000017794060    -0.019141074175    12.000000000000
         C            0.995635048396     1.430040205940     0.180352925825    12.000000000000
         C            0.995676848396    -1.430027794060    -0.019577074175    12.000000000000
         C            2.195283848396     0.698701205940    -0.019452074175    12.000000000000
         C            2.195285848396    -0.698710794060    -0.019422074175    12.000000000000
         H           -2.926284151604     0.000019205940     0.884991925825     1.007825032230
         H           -2.928376151604    -0.000014794060    -0.921805074175     1.007825032230
         H            0.979919848396     2.515605205940    -0.019713074175     1.007825032230
         H            0.979906848396    -2.515610794060    -0.019593074175     1.007825032230
         H            3.140738848396     1.234240205940    -0.019337074175     1.007825032230
         H            3.140739848396    -1.234250794060    -0.019278074175     1.007825032230

  Basis Set: AUG-CC-PVTZ
    Blend: AUG-CC-PVTZ
  Basis Set: (AUG-CC-PVTZ AUX)
    Blend: AUG-CC-PVTZ-JKFIT
	 Reference Energy          =    -418.4065791816094588 [Eh]
	 Singles Energy            =      -0.0000000000000000 [Eh]
	 Same-Spin Energy          =      -0.4350050257645778 [Eh]
	 Opposite-Spin Energy      =      -1.3188051835615839 [Eh]
	 Correlation Energy        =      -1.7538102093261618 [Eh]
	 Total Energy              =    -420.1603893909356202 [Eh]

	 ================> DF-SCS-MP2 Energies <==================
	-----------------------------------------------------------
	 SCS Same-Spin Scale       =       0.3333333333333333 [-]
	 SCS Opposite-Spin Scale   =       1.2000000000000000 [-]
	 SCS Same-Spin Energy      =      -0.1450016752548592 [Eh]
	 SCS Opposite-Spin Energy  =      -1.5825662202739006 [Eh]
	 SCS Correlation Energy    =      -1.7275678955287599 [Eh]
	 SCS Total Energy          =    -420.1341470771382092 [Eh]
	-----------------------------------------------------------

  Dipole Moment: [D]
     X:    -0.4359      Y:    -0.0962      Z:    -0.1447     Total:     0.4693

*** Psi4 exiting successfully. Buy a developer a beer!
