                               Psi4 1.3.2 release

  ==> Input File <==

--------------------------------------------------------------------------
#psi4
#
memory 32 gb

molecule  {
0 1
  O       -1.4891210     1.1679660    -0.0005210
  O       -1.4891280    -1.1679560    -0.0004790
  C       -0.1944510     0.6951560    -0.0000890
  C       -0.1944370    -0.6951450    -0.0000610
  C       -2.3278770    -0.0000160     0.0005000
  C        0.9772920     1.4300230    -0.0000060
  C        0.9772900    -1.4300260     0.0000640
  C        2.1768970     0.6987030     0.0001890
  C        2.1768990    -0.6987090     0.0002190
  H       -2.9446710     0.0000210     0.9046330
  H       -2.9467630    -0.0000130    -0.9021640
  H        0.9615330     2.5156070    -0.0000720
  H        0.9615200    -2.5156090     0.0000480
  H        3.1223093     1.2342497     0.3003040
  H        3.1223530    -1.2342490     0.0003630
units angstrom
no_reorient  #important for SAPT in psi4, default
symmetry c1  #important for SAPT in psi4, default
}

set PROPERTIES_ORIGIN ["COM"]
properties('MP2/aug-cc-pvtz', properties = ['dipole'])
--------------------------------------------------------------------------

    Molecular point group: c1
  Charge       = 0
  Multiplicity = 1
  Basis Set: AUG-CC-PVTZ
    Blend: AUG-CC-PVTZ
  Basis Set: (AUG-CC-PVTZ AUX)
    Blend: AUG-CC-PVTZ-JKFIT

    Orbital Energies [Eh]
    ---------------------

    Doubly Occupied:

       1A    -20.603097     2A    -20.602625     3A    -11.358916
       4A    -11.302160     5A    -11.300672     6A    -11.245677
       7A    -11.245339     8A    -11.243502     9A    -11.240844
      10A     -1.472391    11A     -1.372976    12A     -1.155415
      13A     -1.024378    14A     -1.022741    15A     -0.912694
      16A     -0.852153    17A     -0.831448    18A     -0.715240
      19A     -0.712319    20A     -0.703291    21A     -0.673505
      22A     -0.619012    23A     -0.593428    24A     -0.586792
      25A     -0.566880    26A     -0.556105    27A     -0.550721
      28A     -0.525864    29A     -0.506670    30A     -0.456455
      31A     -0.342004    32A     -0.305305

  @DF-RHF Final Energy:  -418.41230403833833

   => Energetics <=

    Nuclear Repulsion Energy =            426.3970364839334479
    One-Electron Energy =               -1415.2174410335878747
    Two-Electron Energy =                 570.4081005113160927
    Total Energy =                       -418.4123040383383341
  Basis Set: (AUG-CC-PVTZ AUX)
    Blend: AUG-CC-PVTZ-RI
    Molecular point group: c1

    Geometry (in Angstrom), charge = 0, multiplicity = 1:

       Center              X                  Y                   Z               Mass
    ------------   -----------------  -----------------  -----------------  -----------------
         O           -1.470738105870     1.167966010640    -0.002973383191    15.994914619570
         O           -1.470745105870    -1.167955989360    -0.002931383191    15.994914619570
         C           -0.176068105870     0.695156010640    -0.002541383191    12.000000000000
         C           -0.176054105870    -0.695144989360    -0.002513383191    12.000000000000
         C           -2.309494105870    -0.000015989360    -0.001952383191    12.000000000000
         C            0.995674894130     1.430023010640    -0.002458383191    12.000000000000
         C            0.995672894130    -1.430025989360    -0.002388383191    12.000000000000
         C            2.195279894130     0.698703010640    -0.002263383191    12.000000000000
         C            2.195281894130    -0.698708989360    -0.002233383191    12.000000000000
         H           -2.926288105870     0.000021010640     0.902180616809     1.007825032230
         H           -2.928380105870    -0.000012989360    -0.904616383191     1.007825032230
         H            0.979915894130     2.515607010640    -0.002524383191     1.007825032230
         H            0.979902894130    -2.515608989360    -0.002404383191     1.007825032230
         H            3.140692194130     1.234249710640     0.297851616809     1.007825032230
         H            3.140735894130    -1.234248989360    -0.002089383191     1.007825032230

  Basis Set: AUG-CC-PVTZ
    Blend: AUG-CC-PVTZ
  Basis Set: (AUG-CC-PVTZ AUX)
    Blend: AUG-CC-PVTZ-JKFIT
	 Reference Energy          =    -418.4123040383383341 [Eh]
	 Singles Energy            =      -0.0000000000000000 [Eh]
	 Same-Spin Energy          =      -0.4346564594845372 [Eh]
	 Opposite-Spin Energy      =      -1.3176948598546285 [Eh]
	 Correlation Energy        =      -1.7523513193391658 [Eh]
	 Total Energy              =    -420.1646553576774750 [Eh]

	 ================> DF-SCS-MP2 Energies <==================
	-----------------------------------------------------------
	 SCS Same-Spin Scale       =       0.3333333333333333 [-]
	 SCS Opposite-Spin Scale   =       1.2000000000000000 [-]
	 SCS Same-Spin Energy      =      -0.1448854864948457 [Eh]
	 SCS Opposite-Spin Energy  =      -1.5812338318255541 [Eh]
	 SCS Correlation Energy    =      -1.7261193183203998 [Eh]
	 SCS Total Energy          =    -420.1384233566587341 [Eh]
	-----------------------------------------------------------

  Dipole Moment: [D]
     X:    -0.4872      Y:    -0.0453      Z:     0.1969     Total:     0.5274

*** Psi4 exiting successfully. Buy a developer a beer!
