                               Psi4 1.3.2 release

  ==> Input File <==

--------------------------------------------------------------------------
#psi4
#
memory 32 gb

molecule  {
0 1
  O       -1.4891210     1.1679660    -0.0005210
  O       -1.4891280    -1.1679560    -0.0004790
  C       -0.1944510     0.6951560    -0.0000890
  C       -0.1944370    -0.6951450    -0.0000610
  C       -2.3278770    -0.0000160     0.0005000
  C        0.9772920     1.4300230    -0.0000060
  C        0.9772900    -1.4300260     0.0000640
  C        2.1768970     0.6987030     0.0001890
  C        2.1768990    -0.6987090     0.0002190
  H       -2.9446710     0.0000210     0.9046330
  H       -2.9467630    -0.0000130    -0.9021640
  H        0.9615095     2.5156200     0.1999280
  H        0.9615200    -2.5156090     0.0000480
  H        3.1223520     1.2342420     0.0003040
  H        3.1223530    -1.2342490     0.0003630
units angstrom
no_reorient  #important for SAPT in psi4, default
symmetry c1  #important for SAPT in psi4, default
}

set PROPERTIES_ORIGIN ["COM"]
properties('MP2/aug-cc-pvtz', properties = ['dipole'])
--------------------------------------------------------------------------

    Molecular point group: c1
  Charge       = 0
  Multiplicity = 1
  Basis Set: AUG-CC-PVTZ
    Blend: AUG-CC-PVTZ
  Basis Set: (AUG-CC-PVTZ AUX)
    Blend: AUG-CC-PVTZ-JKFIT

    Orbital Energies [Eh]
    ---------------------

    Doubly Occupied:

       1A    -20.602569     2A    -20.602448     3A    -11.358625
       4A    -11.301656     5A    -11.300366     6A    -11.246410
       7A    -11.245372     8A    -11.240883     9A    -11.239671
      10A     -1.472034    11A     -1.372619    12A     -1.155213
      13A     -1.023661    14A     -1.023469    15A     -0.912933
      16A     -0.851168    17A     -0.832853    18A     -0.715002
      19A     -0.711158    20A     -0.704988    21A     -0.675643
      22A     -0.615918    23A     -0.594575    24A     -0.587359
      25A     -0.566504    26A     -0.555758    27A     -0.549572
      28A     -0.529905    29A     -0.505944    30A     -0.458176
      31A     -0.341708    32A     -0.305305

  @DF-RHF Final Energy:  -418.41593069531410

   => Energetics <=

    Nuclear Repulsion Energy =            426.4763765688947501
    One-Electron Energy =               -1415.3856810876325198
    Two-Electron Energy =                 570.4933738234237808
    Total Energy =                       -418.4159306953140458
  Basis Set: (AUG-CC-PVTZ AUX)
    Blend: AUG-CC-PVTZ-RI
    Molecular point group: c1

    Geometry (in Angstrom), charge = 0, multiplicity = 1:

       Center              X                  Y                   Z               Mass
    ------------   -----------------  -----------------  -----------------  -----------------
         O           -1.470738264431     1.167965966870    -0.002147546065    15.994914619570
         O           -1.470745264431    -1.167956033130    -0.002105546065    15.994914619570
         C           -0.176068264431     0.695155966870    -0.001715546065    12.000000000000
         C           -0.176054264431    -0.695145033130    -0.001687546065    12.000000000000
         C           -2.309494264431    -0.000016033130    -0.001126546065    12.000000000000
         C            0.995674735569     1.430022966870    -0.001632546065    12.000000000000
         C            0.995672735569    -1.430026033130    -0.001562546065    12.000000000000
         C            2.195279735569     0.698702966870    -0.001437546065    12.000000000000
         C            2.195281735569    -0.698709033130    -0.001407546065    12.000000000000
         H           -2.926288264431     0.000020966870     0.903006453935     1.007825032230
         H           -2.928380264431    -0.000013033130    -0.903790546065     1.007825032230
         H            0.979892235569     2.515619966870     0.198301453935     1.007825032230
         H            0.979902735569    -2.515609033130    -0.001578546065     1.007825032230
         H            3.140734735569     1.234241966870    -0.001322546065     1.007825032230
         H            3.140735735569    -1.234249033130    -0.001263546065     1.007825032230

  Basis Set: AUG-CC-PVTZ
    Blend: AUG-CC-PVTZ
  Basis Set: (AUG-CC-PVTZ AUX)
    Blend: AUG-CC-PVTZ-JKFIT
	 Reference Energy          =    -418.4159306953141026 [Eh]
	 Singles Energy            =      -0.0000000000000000 [Eh]
	 Same-Spin Energy          =      -0.4344907594753111 [Eh]
	 Opposite-Spin Energy      =      -1.3172007877909355 [Eh]
	 Correlation Energy        =      -1.7516915472662467 [Eh]
	 Total Energy              =    -420.1676222425803644 [Eh]

	 ================> DF-SCS-MP2 Energies <==================
	-----------------------------------------------------------
	 SCS Same-Spin Scale       =       0.3333333333333333 [-]
	 SCS Opposite-Spin Scale   =       1.2000000000000000 [-]
	 SCS Same-Spin Energy      =      -0.1448302531584370 [Eh]
	 SCS Opposite-Spin Energy  =      -1.5806409453491226 [Eh]
	 SCS Correlation Energy    =      -1.7254711985075597 [Eh]
	 SCS Total Energy          =    -420.1414018938216373 [Eh]
	-----------------------------------------------------------

  Dipole Moment: [D]
     X:    -0.4147      Y:    -0.0332      Z:     0.1429     Total:     0.4399

*** Psi4 exiting successfully. Buy a developer a beer!
