                               Psi4 1.3.2 release

  ==> Input File <==

--------------------------------------------------------------------------
#psi4
#
memory 32 gb

molecule  {
0 1
  O       -1.4891210     1.1679660    -0.0005210
  O       -1.4891280    -1.1679560    -0.0004790
  C       -0.1944510     0.6951560    -0.0000890
  C       -0.1944370    -0.6951450    -0.0000610
  C       -2.3278770    -0.0000160     0.0005000
  C        0.9772920     1.4300230    -0.0000060
  C        0.9772900    -1.4300260     0.0000640
  C        2.1768970     0.6987030     0.0001890
  C        2.1768990    -0.6987090     0.0002190
  H       -2.9446710     0.0000210     0.9046330
  H       -2.9467630    -0.0000130    -0.9021640
  H        0.9615330     2.5156070    -0.0000720
  H        0.9615200    -2.5156090     0.0000480
  H        3.1223236     1.2342471     0.2003040
  H        3.1223530    -1.2342490     0.0003630
units angstrom
no_reorient  #important for SAPT in psi4, default
symmetry c1  #important for SAPT in psi4, default
}

set PROPERTIES_ORIGIN ["COM"]
properties('MP2/aug-cc-pvtz', properties = ['dipole'])
--------------------------------------------------------------------------

    Molecular point group: c1
  Charge       = 0
  Multiplicity = 1
  Basis Set: AUG-CC-PVTZ
    Blend: AUG-CC-PVTZ
  Basis Set: (AUG-CC-PVTZ AUX)
    Blend: AUG-CC-PVTZ-JKFIT

    Orbital Energies [Eh]
    ---------------------

    Doubly Occupied:

       1A    -20.602689     2A    -20.602472     3A    -11.358698
       4A    -11.301698     5A    -11.300388     6A    -11.245261
       7A    -11.245127     8A    -11.241829     9A    -11.240212
      10A     -1.472111    11A     -1.372702    12A     -1.155228
      13A     -1.024147    14A     -1.023061    15A     -0.912735
      16A     -0.852053    17A     -0.832112    18A     -0.714996
      19A     -0.712239    20A     -0.704322    21A     -0.674723
      22A     -0.618791    23A     -0.593918    24A     -0.587105
      25A     -0.566627    26A     -0.555846    27A     -0.550076
      28A     -0.527964    29A     -0.506895    30A     -0.457573
      31A     -0.341915    32A     -0.305221

  @DF-RHF Final Energy:  -418.41587732000420

   => Energetics <=

    Nuclear Repulsion Energy =            426.4793861936506687
    One-Electron Energy =               -1415.3890625555882252
    Two-Electron Energy =                 570.4937990419333573
    Total Energy =                       -418.4158773200041423
  Basis Set: (AUG-CC-PVTZ AUX)
    Blend: AUG-CC-PVTZ-RI
    Molecular point group: c1

    Geometry (in Angstrom), charge = 0, multiplicity = 1:

       Center              X                  Y                   Z               Mass
    ------------   -----------------  -----------------  -----------------  -----------------
         O           -1.470738223965     1.167966032111    -0.002147546065    15.994914619570
         O           -1.470745223965    -1.167955967889    -0.002105546065    15.994914619570
         C           -0.176068223965     0.695156032111    -0.001715546065    12.000000000000
         C           -0.176054223965    -0.695144967889    -0.001687546065    12.000000000000
         C           -2.309494223965    -0.000015967889    -0.001126546065    12.000000000000
         C            0.995674776035     1.430023032111    -0.001632546065    12.000000000000
         C            0.995672776035    -1.430025967889    -0.001562546065    12.000000000000
         C            2.195279776035     0.698703032111    -0.001437546065    12.000000000000
         C            2.195281776035    -0.698708967889    -0.001407546065    12.000000000000
         H           -2.926288223965     0.000021032111     0.903006453935     1.007825032230
         H           -2.928380223965    -0.000012967889    -0.903790546065     1.007825032230
         H            0.979915776035     2.515607032111    -0.001698546065     1.007825032230
         H            0.979902776035    -2.515608967889    -0.001578546065     1.007825032230
         H            3.140706376035     1.234247132111     0.198677453935     1.007825032230
         H            3.140735776035    -1.234248967889    -0.001263546065     1.007825032230

  Basis Set: AUG-CC-PVTZ
    Blend: AUG-CC-PVTZ
  Basis Set: (AUG-CC-PVTZ AUX)
    Blend: AUG-CC-PVTZ-JKFIT
	 Reference Energy          =    -418.4158773200041992 [Eh]
	 Singles Energy            =      -0.0000000000000000 [Eh]
	 Same-Spin Energy          =      -0.4344836337247786 [Eh]
	 Opposite-Spin Energy      =      -1.3172252099404633 [Eh]
	 Correlation Energy        =      -1.7517088436652419 [Eh]
	 Total Energy              =    -420.1675861636694549 [Eh]

	 ================> DF-SCS-MP2 Energies <==================
	-----------------------------------------------------------
	 SCS Same-Spin Scale       =       0.3333333333333333 [-]
	 SCS Opposite-Spin Scale   =       1.2000000000000000 [-]
	 SCS Same-Spin Energy      =      -0.1448278779082595 [Eh]
	 SCS Opposite-Spin Energy  =      -1.5806702519285560 [Eh]
	 SCS Correlation Energy    =      -1.7254981298368155 [Eh]
	 SCS Total Energy          =    -420.1413754498410071 [Eh]
	-----------------------------------------------------------

  Dipole Moment: [D]
     X:    -0.4458      Y:    -0.0205      Z:     0.1339     Total:     0.4660

*** Psi4 exiting successfully. Buy a developer a beer!
