                               Psi4 1.3.2 release

  ==> Input File <==

--------------------------------------------------------------------------
#psi4
#
memory 32 gb

molecule  {
0 1
  O       -1.4891210     1.1679660    -0.0005210
  O       -1.4891280    -1.1679560    -0.0004790
  C       -0.1944510     0.6951560    -0.0000890
  C       -0.1944370    -0.6951450    -0.0000610
  C       -2.3278770    -0.0000160     0.0005000
  C        0.9772701     1.4300325     0.0999940
  C        0.9772900    -1.4300260     0.0000640
  C        2.1768970     0.6987030     0.0001890
  C        2.1768990    -0.6987090     0.0002190
  H       -2.9446710     0.0000210     0.9046330
  H       -2.9467630    -0.0000130    -0.9021640
  H        0.9615330     2.5156070    -0.0000720
  H        0.9615200    -2.5156090     0.0000480
  H        3.1223520     1.2342420     0.0003040
  H        3.1223530    -1.2342490     0.0003630
units angstrom
no_reorient  #important for SAPT in psi4, default
symmetry c1  #important for SAPT in psi4, default
}

set PROPERTIES_ORIGIN ["COM"]
properties('MP2/aug-cc-pvtz', properties = ['dipole'])
--------------------------------------------------------------------------

    Molecular point group: c1
  Charge       = 0
  Multiplicity = 1
  Basis Set: AUG-CC-PVTZ
    Blend: AUG-CC-PVTZ
  Basis Set: (AUG-CC-PVTZ AUX)
    Blend: AUG-CC-PVTZ-JKFIT

    Orbital Energies [Eh]
    ---------------------

    Doubly Occupied:

       1A    -20.602632     2A    -20.602407     3A    -11.358608
       4A    -11.301956     5A    -11.300413     6A    -11.245758
       7A    -11.245453     8A    -11.241126     9A    -11.239688
      10A     -1.472045    11A     -1.372626    12A     -1.154764
      13A     -1.023532    14A     -1.023287    15A     -0.912848
      16A     -0.851882    17A     -0.832286    18A     -0.715064
      19A     -0.711616    20A     -0.705138    21A     -0.675397
      22A     -0.617332    23A     -0.594313    24A     -0.587139
      25A     -0.566453    26A     -0.555755    27A     -0.549342
      28A     -0.529455    29A     -0.506334    30A     -0.458161
      31A     -0.341911    32A     -0.305039

  @DF-RHF Final Energy:  -418.41551198847259

   => Energetics <=

    Nuclear Repulsion Energy =            426.4327094875869193
    One-Electron Energy =               -1415.2969201538178368
    Two-Electron Energy =                 570.4486986777583297
    Total Energy =                       -418.4155119884726446
  Basis Set: (AUG-CC-PVTZ AUX)
    Blend: AUG-CC-PVTZ-RI
    Molecular point group: c1

    Geometry (in Angstrom), charge = 0, multiplicity = 1:

       Center              X                  Y                   Z               Mass
    ------------   -----------------  -----------------  -----------------  -----------------
         O           -1.470736305053     1.167965140084    -0.010328972993    15.994914619570
         O           -1.470743305053    -1.167956859916    -0.010286972993    15.994914619570
         C           -0.176066305053     0.695155140084    -0.009896972993    12.000000000000
         C           -0.176052305053    -0.695145859916    -0.009868972993    12.000000000000
         C           -2.309492305053    -0.000016859916    -0.009307972993    12.000000000000
         C            0.995654794947     1.430031640084     0.090186027007    12.000000000000
         C            0.995674694947    -1.430026859916    -0.009743972993    12.000000000000
         C            2.195281694947     0.698702140084    -0.009618972993    12.000000000000
         C            2.195283694947    -0.698709859916    -0.009588972993    12.000000000000
         H           -2.926286305053     0.000020140084     0.894825027007     1.007825032230
         H           -2.928378305053    -0.000013859916    -0.911971972993     1.007825032230
         H            0.979917694947     2.515606140084    -0.009879972993     1.007825032230
         H            0.979904694947    -2.515609859916    -0.009759972993     1.007825032230
         H            3.140736694947     1.234241140084    -0.009503972993     1.007825032230
         H            3.140737694947    -1.234249859916    -0.009444972993     1.007825032230

  Basis Set: AUG-CC-PVTZ
    Blend: AUG-CC-PVTZ
  Basis Set: (AUG-CC-PVTZ AUX)
    Blend: AUG-CC-PVTZ-JKFIT
	 Reference Energy          =    -418.4155119884725877 [Eh]
	 Singles Energy            =      -0.0000000000000000 [Eh]
	 Same-Spin Energy          =      -0.4345102239247590 [Eh]
	 Opposite-Spin Energy      =      -1.3173264165433727 [Eh]
	 Correlation Energy        =      -1.7518366404681318 [Eh]
	 Total Energy              =    -420.1673486289407151 [Eh]

	 ================> DF-SCS-MP2 Energies <==================
	-----------------------------------------------------------
	 SCS Same-Spin Scale       =       0.3333333333333333 [-]
	 SCS Opposite-Spin Scale   =       1.2000000000000000 [-]
	 SCS Same-Spin Energy      =      -0.1448367413082530 [Eh]
	 SCS Opposite-Spin Energy  =      -1.5807916998520473 [Eh]
	 SCS Correlation Energy    =      -1.7256284411603002 [Eh]
	 SCS Total Energy          =    -420.1411404296329124 [Eh]
	-----------------------------------------------------------

  Dipole Moment: [D]
     X:    -0.4180      Y:    -0.0245      Z:    -0.0698     Total:     0.4245

*** Psi4 exiting successfully. Buy a developer a beer!
