                               Psi4 1.3.2 release

  ==> Input File <==

--------------------------------------------------------------------------
#psi4
#
memory 32 gb

molecule  {
0 1
  O       -1.4891210     1.1679660    -0.0005210
  O       -1.4891280    -1.1679560    -0.0004790
  C       -0.1944510     0.6951560    -0.0000890
  C       -0.1944370    -0.6951450    -0.0000610
  C       -2.3278770    -0.0000160     0.0005000
  C        0.9772920     1.4300230    -0.0000060
  C        0.9772900    -1.4300260     0.0000640
  C        2.1768970     0.6987030     0.0001890
  C        2.1768990    -0.6987090     0.0002190
  H       -2.9446710     0.0000210     0.9046330
  H       -2.9467630    -0.0000130    -0.9021640
  H        0.9615271     2.5156103     0.0499280
  H        0.9615200    -2.5156090     0.0000480
  H        3.1223520     1.2342420     0.0003040
  H        3.1223530    -1.2342490     0.0003630
units angstrom
no_reorient  #important for SAPT in psi4, default
symmetry c1  #important for SAPT in psi4, default
}

set PROPERTIES_ORIGIN ["COM"]
properties('MP2/aug-cc-pvtz', properties = ['dipole'])
--------------------------------------------------------------------------

    Molecular point group: c1
  Charge       = 0
  Multiplicity = 1
  Basis Set: AUG-CC-PVTZ
    Blend: AUG-CC-PVTZ
  Basis Set: (AUG-CC-PVTZ AUX)
    Blend: AUG-CC-PVTZ-JKFIT

    Orbital Energies [Eh]
    ---------------------

    Doubly Occupied:

       1A    -20.602378     2A    -20.602357     3A    -11.358531
       4A    -11.301394     5A    -11.300134     6A    -11.245057
       7A    -11.244993     8A    -11.240678     9A    -11.239484
      10A     -1.471899    11A     -1.372493    12A     -1.155098
      13A     -1.024004    14A     -1.023317    15A     -0.912806
      16A     -0.851947    17A     -0.832719    18A     -0.714815
      19A     -0.712186    20A     -0.705255    21A     -0.675705
      22A     -0.618451    23A     -0.594437    24A     -0.587305
      25A     -0.566431    26A     -0.555645    27A     -0.549474
      28A     -0.529784    29A     -0.506938    30A     -0.458451
      31A     -0.341845    32A     -0.305175

  @DF-RHF Final Energy:  -418.41829798875489

   => Energetics <=

    Nuclear Repulsion Energy =            426.5435146817076202
    One-Electron Energy =               -1415.5212596639039475
    Two-Electron Energy =                 570.5594469934414974
    Total Energy =                       -418.4182979887548299
  Basis Set: (AUG-CC-PVTZ AUX)
    Blend: AUG-CC-PVTZ-RI
    Molecular point group: c1

    Geometry (in Angstrom), charge = 0, multiplicity = 1:

       Center              X                  Y                   Z               Mass
    ------------   -----------------  -----------------  -----------------  -----------------
         O           -1.470738409778     1.167966046976    -0.000908790375    15.994914619570
         O           -1.470745409778    -1.167955953024    -0.000866790375    15.994914619570
         C           -0.176068409778     0.695156046976    -0.000476790375    12.000000000000
         C           -0.176054409778    -0.695144953024    -0.000448790375    12.000000000000
         C           -2.309494409778    -0.000015953024     0.000112209625    12.000000000000
         C            0.995674590222     1.430023046976    -0.000393790375    12.000000000000
         C            0.995672590222    -1.430025953024    -0.000323790375    12.000000000000
         C            2.195279590222     0.698703046976    -0.000198790375    12.000000000000
         C            2.195281590222    -0.698708953024    -0.000168790375    12.000000000000
         H           -2.926288409778     0.000021046976     0.904245209625     1.007825032230
         H           -2.928380409778    -0.000012953024    -0.902551790375     1.007825032230
         H            0.979909690222     2.515610346976     0.049540209625     1.007825032230
         H            0.979902590222    -2.515608953024    -0.000339790375     1.007825032230
         H            3.140734590222     1.234242046976    -0.000083790375     1.007825032230
         H            3.140735590222    -1.234248953024    -0.000024790375     1.007825032230

  Basis Set: AUG-CC-PVTZ
    Blend: AUG-CC-PVTZ
  Basis Set: (AUG-CC-PVTZ AUX)
    Blend: AUG-CC-PVTZ-JKFIT
	 Reference Energy          =    -418.4182979887548868 [Eh]
	 Singles Energy            =      -0.0000000000000000 [Eh]
	 Same-Spin Energy          =      -0.4343471508752659 [Eh]
	 Opposite-Spin Energy      =      -1.3168972098703378 [Eh]
	 Correlation Energy        =      -1.7512443607456036 [Eh]
	 Total Energy              =    -420.1695423495004889 [Eh]

	 ================> DF-SCS-MP2 Energies <==================
	-----------------------------------------------------------
	 SCS Same-Spin Scale       =       0.3333333333333333 [-]
	 SCS Opposite-Spin Scale   =       1.2000000000000000 [-]
	 SCS Same-Spin Energy      =      -0.1447823836250886 [Eh]
	 SCS Opposite-Spin Energy  =      -1.5802766518444054 [Eh]
	 SCS Correlation Energy    =      -1.7250590354694939 [Eh]
	 SCS Total Energy          =    -420.1433570242243718 [Eh]
	-----------------------------------------------------------

  Dipole Moment: [D]
     X:    -0.4120      Y:    -0.0022      Z:     0.0374     Total:     0.4137

*** Psi4 exiting successfully. Buy a developer a beer!
