                               Psi4 1.3.2 release

  ==> Input File <==

--------------------------------------------------------------------------
#psi4
#
memory 32 gb

molecule  {
0 1
  O       -1.4891210     1.1679660    -0.0005210
  O       -1.4891280    -1.1679560    -0.0004790
  C       -0.1944510     0.6951560    -0.0000890
  C       -0.1944370    -0.6951450    -0.0000610
  C       -2.3278770    -0.0000160     0.0005000
  C        0.9772920     1.4300230    -0.0000060
  C        0.9772900    -1.4300260     0.0000640
  C        2.1768970     0.6987030     0.0001890
  C        2.1768990    -0.6987090     0.0002190
  H       -2.9446710     0.0000210     0.9046330
  H       -2.9467630    -0.0000130    -0.9021640
  H        0.9615037     2.5156233     0.2499280
  H        0.9615200    -2.5156090     0.0000480
  H        3.1223520     1.2342420     0.0003040
  H        3.1223530    -1.2342490     0.0003630
units angstrom
no_reorient  #important for SAPT in psi4, default
symmetry c1  #important for SAPT in psi4, default
}

set PROPERTIES_ORIGIN ["COM"]
properties('MP2/aug-cc-pvtz', properties = ['dipole'])
--------------------------------------------------------------------------

    Molecular point group: c1
  Charge       = 0
  Multiplicity = 1
  Basis Set: AUG-CC-PVTZ
    Blend: AUG-CC-PVTZ
  Basis Set: (AUG-CC-PVTZ AUX)
    Blend: AUG-CC-PVTZ-JKFIT

    Orbital Energies [Eh]
    ---------------------

    Doubly Occupied:

       1A    -20.602686     2A    -20.602501     3A    -11.358681
       4A    -11.301826     5A    -11.300496     6A    -11.247210
       7A    -11.245597     8A    -11.241014     9A    -11.239779
      10A     -1.472115    11A     -1.372696    12A     -1.155285
      13A     -1.023602    14A     -1.023433    15A     -0.913010
      16A     -0.850740    17A     -0.832935    18A     -0.715090
      19A     -0.710694    20A     -0.704780    21A     -0.675614
      22A     -0.614424    23A     -0.594655    24A     -0.587388
      25A     -0.566548    26A     -0.555825    27A     -0.549632
      28A     -0.529983    29A     -0.505328    30A     -0.458010
      31A     -0.341633    32A     -0.305385

  @DF-RHF Final Energy:  -418.41439490607007

   => Energetics <=

    Nuclear Repulsion Energy =            426.4371777599412212
    One-Electron Energy =               -1415.3059498756279027
    Two-Electron Energy =                 570.4543772096164957
    Total Energy =                       -418.4143949060701289
  Basis Set: (AUG-CC-PVTZ AUX)
    Blend: AUG-CC-PVTZ-RI
    Molecular point group: c1

    Geometry (in Angstrom), charge = 0, multiplicity = 1:

       Center              X                  Y                   Z               Mass
    ------------   -----------------  -----------------  -----------------  -----------------
         O           -1.470738216532     1.167965939618    -0.002560464628    15.994914619570
         O           -1.470745216532    -1.167956060382    -0.002518464628    15.994914619570
         C           -0.176068216532     0.695155939618    -0.002128464628    12.000000000000
         C           -0.176054216532    -0.695145060382    -0.002100464628    12.000000000000
         C           -2.309494216532    -0.000016060382    -0.001539464628    12.000000000000
         C            0.995674783468     1.430022939618    -0.002045464628    12.000000000000
         C            0.995672783468    -1.430026060382    -0.001975464628    12.000000000000
         C            2.195279783468     0.698702939618    -0.001850464628    12.000000000000
         C            2.195281783468    -0.698709060382    -0.001820464628    12.000000000000
         H           -2.926288216532     0.000020939618     0.902593535372     1.007825032230
         H           -2.928380216532    -0.000013060382    -0.904203464628     1.007825032230
         H            0.979886483468     2.515623239618     0.247888535372     1.007825032230
         H            0.979902783468    -2.515609060382    -0.001991464628     1.007825032230
         H            3.140734783468     1.234241939618    -0.001735464628     1.007825032230
         H            3.140735783468    -1.234249060382    -0.001676464628     1.007825032230

  Basis Set: AUG-CC-PVTZ
    Blend: AUG-CC-PVTZ
  Basis Set: (AUG-CC-PVTZ AUX)
    Blend: AUG-CC-PVTZ-JKFIT
	 Reference Energy          =    -418.4143949060700720 [Eh]
	 Singles Energy            =      -0.0000000000000000 [Eh]
	 Same-Spin Energy          =      -0.4345750550472532 [Eh]
	 Opposite-Spin Energy      =      -1.3173975365191191 [Eh]
	 Correlation Energy        =      -1.7519725915663722 [Eh]
	 Total Energy              =    -420.1663674976364291 [Eh]

	 ================> DF-SCS-MP2 Energies <==================
	-----------------------------------------------------------
	 SCS Same-Spin Scale       =       0.3333333333333333 [-]
	 SCS Opposite-Spin Scale   =       1.2000000000000000 [-]
	 SCS Same-Spin Energy      =      -0.1448583516824177 [Eh]
	 SCS Opposite-Spin Energy  =      -1.5808770438229429 [Eh]
	 SCS Correlation Energy    =      -1.7257353955053607 [Eh]
	 SCS Total Energy          =    -420.1401303015754252 [Eh]
	-----------------------------------------------------------

  Dipole Moment: [D]
     X:    -0.4163      Y:    -0.0515      Z:     0.1771     Total:     0.4553

*** Psi4 exiting successfully. Buy a developer a beer!
