                               Psi4 1.3.2 release

  ==> Input File <==

--------------------------------------------------------------------------
#psi4
#
memory 32 gb

molecule  {
0 1
  O       -1.4891210     1.1679660    -0.0005210
  O       -1.4891280    -1.1679560    -0.0004790
  C       -0.1944510     0.6951560    -0.0000890
  C       -0.1944370    -0.6951450    -0.0000610
  C       -2.3278770    -0.0000160     0.0005000
  C        0.9772920     1.4300230    -0.0000060
  C        0.9772900    -1.4300260     0.0000640
  C        2.1768970     0.6987030     0.0001890
  C        2.1768990    -0.6987090     0.0002190
  H       -2.9446710     0.0000210     0.9046330
  H       -2.9467630    -0.0000130    -0.9021640
  H        0.9614978     2.5156265     0.2999280
  H        0.9615200    -2.5156090     0.0000480
  H        3.1223520     1.2342420     0.0003040
  H        3.1223530    -1.2342490     0.0003630
units angstrom
no_reorient  #important for SAPT in psi4, default
symmetry c1  #important for SAPT in psi4, default
}

set PROPERTIES_ORIGIN ["COM"]
properties('MP2/aug-cc-pvtz', properties = ['dipole'])
--------------------------------------------------------------------------

    Molecular point group: c1
  Charge       = 0
  Multiplicity = 1
  Basis Set: AUG-CC-PVTZ
    Blend: AUG-CC-PVTZ
  Basis Set: (AUG-CC-PVTZ AUX)
    Blend: AUG-CC-PVTZ-JKFIT

    Orbital Energies [Eh]
    ---------------------

    Doubly Occupied:

       1A    -20.602827     2A    -20.602567     3A    -11.358750
       4A    -11.302045     5A    -11.300645     6A    -11.248173
       7A    -11.245870     8A    -11.241179     9A    -11.239907
      10A     -1.472214    11A     -1.372789    12A     -1.155376
      13A     -1.023712    14A     -1.023225    15A     -0.913105
      16A     -0.850251    17A     -0.833036    18A     -0.715187
      19A     -0.710255    20A     -0.704479    21A     -0.675584
      22A     -0.612632    23A     -0.594750    24A     -0.587418
      25A     -0.566601    26A     -0.555907    27A     -0.549709
      28A     -0.530080    29A     -0.504555    30A     -0.457807
      31A     -0.341547    32A     -0.305483

  @DF-RHF Final Energy:  -418.41241622965094

   => Energetics <=

    Nuclear Repulsion Energy =            426.3903124926802093
    One-Electron Energy =               -1415.2101264985433318
    Two-Electron Energy =                 570.4073977762121785
    Total Energy =                       -418.4124162296509439
  Basis Set: (AUG-CC-PVTZ AUX)
    Blend: AUG-CC-PVTZ-RI
    Molecular point group: c1

    Geometry (in Angstrom), charge = 0, multiplicity = 1:

       Center              X                  Y                   Z               Mass
    ------------   -----------------  -----------------  -----------------  -----------------
         O           -1.470738167808     1.167965913191    -0.002973383191    15.994914619570
         O           -1.470745167808    -1.167956086809    -0.002931383191    15.994914619570
         C           -0.176068167808     0.695155913191    -0.002541383191    12.000000000000
         C           -0.176054167808    -0.695145086809    -0.002513383191    12.000000000000
         C           -2.309494167808    -0.000016086809    -0.001952383191    12.000000000000
         C            0.995674832192     1.430022913191    -0.002458383191    12.000000000000
         C            0.995672832192    -1.430026086809    -0.002388383191    12.000000000000
         C            2.195279832192     0.698702913191    -0.002263383191    12.000000000000
         C            2.195281832192    -0.698709086809    -0.002233383191    12.000000000000
         H           -2.926288167808     0.000020913191     0.902180616809     1.007825032230
         H           -2.928380167808    -0.000013086809    -0.904616383191     1.007825032230
         H            0.979880632192     2.515626413191     0.297475616809     1.007825032230
         H            0.979902832192    -2.515609086809    -0.002404383191     1.007825032230
         H            3.140734832192     1.234241913191    -0.002148383191     1.007825032230
         H            3.140735832192    -1.234249086809    -0.002089383191     1.007825032230

  Basis Set: AUG-CC-PVTZ
    Blend: AUG-CC-PVTZ
  Basis Set: (AUG-CC-PVTZ AUX)
    Blend: AUG-CC-PVTZ-JKFIT
	 Reference Energy          =    -418.4124162296509439 [Eh]
	 Singles Energy            =      -0.0000000000000000 [Eh]
	 Same-Spin Energy          =      -0.4346759971945040 [Eh]
	 Opposite-Spin Energy      =      -1.3176443158361903 [Eh]
	 Correlation Energy        =      -1.7523203130306944 [Eh]
	 Total Energy              =    -420.1647365426816236 [Eh]

	 ================> DF-SCS-MP2 Energies <==================
	-----------------------------------------------------------
	 SCS Same-Spin Scale       =       0.3333333333333333 [-]
	 SCS Opposite-Spin Scale   =       1.2000000000000000 [-]
	 SCS Same-Spin Energy      =      -0.1448919990648347 [Eh]
	 SCS Opposite-Spin Energy  =      -1.5811731790034285 [Eh]
	 SCS Correlation Energy    =      -1.7260651780682632 [Eh]
	 SCS Total Energy          =    -420.1384814077192118 [Eh]
	-----------------------------------------------------------

  Dipole Moment: [D]
     X:    -0.4181      Y:    -0.0735      Z:     0.2107     Total:     0.4739

*** Psi4 exiting successfully. Buy a developer a beer!
