                               Psi4 1.3.2 release

  ==> Input File <==

--------------------------------------------------------------------------
#psi4
#
memory 32 gb

molecule  {
0 1
  O       -1.4891210     1.1679660    -0.0005210
  O       -1.4891280    -1.1679560    -0.0004790
  C       -0.1944510     0.6951560    -0.0000890
  C       -0.1944370    -0.6951450    -0.0000610
  C       -2.3278770    -0.0000160     0.0005000
  C        0.9772811     1.4300277     0.0499940
  C        0.9772900    -1.4300260     0.0000640
  C        2.1768970     0.6987030     0.0001890
  C        2.1768990    -0.6987090     0.0002190
  H       -2.9446710     0.0000210     0.9046330
  H       -2.9467630    -0.0000130    -0.9021640
  H        0.9615330     2.5156070    -0.0000720
  H        0.9615200    -2.5156090     0.0000480
  H        3.1223520     1.2342420     0.0003040
  H        3.1223530    -1.2342490     0.0003630
units angstrom
no_reorient  #important for SAPT in psi4, default
symmetry c1  #important for SAPT in psi4, default
}

set PROPERTIES_ORIGIN ["COM"]
properties('MP2/aug-cc-pvtz', properties = ['dipole'])
--------------------------------------------------------------------------

    Molecular point group: c1
  Charge       = 0
  Multiplicity = 1
  Basis Set: AUG-CC-PVTZ
    Blend: AUG-CC-PVTZ
  Basis Set: (AUG-CC-PVTZ AUX)
    Blend: AUG-CC-PVTZ-JKFIT

    Orbital Energies [Eh]
    ---------------------

    Doubly Occupied:

       1A    -20.602426     2A    -20.602367     3A    -11.358544
       4A    -11.301494     5A    -11.300214     6A    -11.245162
       7A    -11.245085     8A    -11.240755     9A    -11.239544
      10A     -1.471927    11A     -1.372518    12A     -1.155005
      13A     -1.023900    14A     -1.023300    15A     -0.912808
      16A     -0.851970    17A     -0.832600    18A     -0.714868
      19A     -0.712096    20A     -0.705233    21A     -0.675628
      22A     -0.618296    23A     -0.594395    24A     -0.587259
      25A     -0.566431    26A     -0.555665    27A     -0.549434
      28A     -0.529694    29A     -0.506836    30A     -0.458391
      31A     -0.341866    32A     -0.305132

  @DF-RHF Final Energy:  -418.41771675166331

   => Energetics <=

    Nuclear Repulsion Energy =            426.5191595866620560
    One-Electron Energy =               -1415.4720695781754785
    Two-Electron Energy =                 570.5351932398501731
    Total Energy =                       -418.4177167516633062
  Basis Set: (AUG-CC-PVTZ AUX)
    Blend: AUG-CC-PVTZ-RI
    Molecular point group: c1

    Geometry (in Angstrom), charge = 0, multiplicity = 1:

       Center              X                  Y                   Z               Mass
    ------------   -----------------  -----------------  -----------------  -----------------
         O           -1.470737386694     1.167965612073    -0.005412422403    15.994914619570
         O           -1.470744386694    -1.167956387927    -0.005370422403    15.994914619570
         C           -0.176067386694     0.695155612073    -0.004980422403    12.000000000000
         C           -0.176053386694    -0.695145387927    -0.004952422403    12.000000000000
         C           -2.309493386694    -0.000016387927    -0.004391422403    12.000000000000
         C            0.995664713306     1.430027312073     0.045102577597    12.000000000000
         C            0.995673613306    -1.430026387927    -0.004827422403    12.000000000000
         C            2.195280613306     0.698702612073    -0.004702422403    12.000000000000
         C            2.195282613306    -0.698709387927    -0.004672422403    12.000000000000
         H           -2.926287386694     0.000020612073     0.899741577597     1.007825032230
         H           -2.928379386694    -0.000013387927    -0.907055422403     1.007825032230
         H            0.979916613306     2.515606612073    -0.004963422403     1.007825032230
         H            0.979903613306    -2.515609387927    -0.004843422403     1.007825032230
         H            3.140735613306     1.234241612073    -0.004587422403     1.007825032230
         H            3.140736613306    -1.234249387927    -0.004528422403     1.007825032230

  Basis Set: AUG-CC-PVTZ
    Blend: AUG-CC-PVTZ
  Basis Set: (AUG-CC-PVTZ AUX)
    Blend: AUG-CC-PVTZ-JKFIT
	 Reference Energy          =    -418.4177167516633062 [Eh]
	 Singles Energy            =      -0.0000000000000000 [Eh]
	 Same-Spin Energy          =      -0.4343818442091354 [Eh]
	 Opposite-Spin Energy      =      -1.3169777079465512 [Eh]
	 Correlation Energy        =      -1.7513595521556866 [Eh]
	 Total Energy              =    -420.1690763038189971 [Eh]

	 ================> DF-SCS-MP2 Energies <==================
	-----------------------------------------------------------
	 SCS Same-Spin Scale       =       0.3333333333333333 [-]
	 SCS Opposite-Spin Scale   =       1.2000000000000000 [-]
	 SCS Same-Spin Energy      =      -0.1447939480697118 [Eh]
	 SCS Opposite-Spin Energy  =      -1.5803732495358613 [Eh]
	 SCS Correlation Energy    =      -1.7251671976055731 [Eh]
	 SCS Total Energy          =    -420.1428839492688780 [Eh]
	-----------------------------------------------------------

  Dipole Moment: [D]
     X:    -0.4134      Y:    -0.0062      Z:    -0.0338     Total:     0.4149

*** Psi4 exiting successfully. Buy a developer a beer!
