                               Psi4 1.3.2 release

  ==> Input File <==

--------------------------------------------------------------------------
#psi4
#
memory 32 gb

molecule  {
0 1
  O        2.9378530    -0.0680150     0.1840270
  C       -1.9436970     0.3335570     0.3437070
  C       -2.8302210    -0.7631530    -0.2519080
  C       -0.5859380     0.3423530    -0.2788660
  C        0.5697440     0.1186190     0.3690800
  C        1.8486100     0.1294800    -0.3471130
  H       -1.8508390     0.1975730     1.4263050
  H       -2.4196650     1.3090330     0.1828770
  H       -2.9395310    -0.6342920    -1.3325490
  H       -3.8284810    -0.7404210     0.1934590
  H       -2.3959700    -1.7495570    -0.0705440
  H       -0.5437157     0.5766290    -1.3464253
  H        0.6030990    -0.0751360     1.4392450
  H        1.7772940     0.3293450    -1.4382350
units angstrom
no_reorient  #important for SAPT in psi4, default
symmetry c1  #important for SAPT in psi4, default
}

set PROPERTIES_ORIGIN ["COM"]
properties('MP2/aug-cc-pvtz', properties = ['dipole'])
--------------------------------------------------------------------------

    Molecular point group: c1
  Charge       = 0
  Multiplicity = 1
  Basis Set: AUG-CC-PVTZ
    Blend: AUG-CC-PVTZ
  Basis Set: (AUG-CC-PVTZ AUX)
    Blend: AUG-CC-PVTZ-JKFIT

    Orbital Energies [Eh]
    ---------------------

    Doubly Occupied:

       1A    -20.549037     2A    -11.331628     3A    -11.274504
       4A    -11.250467     5A    -11.245108     6A    -11.235609
       7A     -1.373122     8A     -1.116811     9A     -1.032178
      10A     -0.905967    11A     -0.817384    12A     -0.781557
      13A     -0.679647    14A     -0.649382    15A     -0.616248
      16A     -0.606697    17A     -0.558804    18A     -0.546806
      19A     -0.526690    20A     -0.516837    21A     -0.506459
      22A     -0.424014    23A     -0.380961

  @DF-RHF Final Energy:  -268.93590273752227

   => Energetics <=

    Nuclear Repulsion Energy =            210.0623472141230366
    One-Electron Energy =                -780.1446684290104940
    Two-Electron Energy =                 301.1464184773651596
    Total Energy =                       -268.9359027375222695
  Basis Set: (AUG-CC-PVTZ AUX)
    Blend: AUG-CC-PVTZ-RI
    Molecular point group: c1

    Geometry (in Angstrom), charge = 0, multiplicity = 1:

       Center              X                  Y                   Z               Mass
    ------------   -----------------  -----------------  -----------------  -----------------
         O            2.937803962469    -0.068602632687     0.183919604360    15.994914619570
         C           -1.943746037531     0.332969367313     0.343599604360    12.000000000000
         C           -2.830270037531    -0.763740632687    -0.252015395640    12.000000000000
         C           -0.585987037531     0.341765367313    -0.278973395640    12.000000000000
         C            0.569694962469     0.118031367313     0.368972604360    12.000000000000
         C            1.848560962469     0.128892367313    -0.347220395640    12.000000000000
         H           -1.850888037531     0.196985367313     1.426197604360     1.007825032230
         H           -2.419714037531     1.308445367313     0.182769604360     1.007825032230
         H           -2.939580037531    -0.634879632687    -1.332656395640     1.007825032230
         H           -3.828530037531    -0.741008632687     0.193351604360     1.007825032230
         H           -2.396019037531    -1.750144632687    -0.070651395640     1.007825032230
         H           -0.543764737531     0.576041367313    -1.346532695640     1.007825032230
         H            0.603049962469    -0.075723632687     1.439137604360     1.007825032230
         H            1.777244962469     0.328757367313    -1.438342395640     1.007825032230

  Basis Set: AUG-CC-PVTZ
    Blend: AUG-CC-PVTZ
  Basis Set: (AUG-CC-PVTZ AUX)
    Blend: AUG-CC-PVTZ-JKFIT
	 Reference Energy          =    -268.9359027375222695 [Eh]
	 Singles Energy            =      -0.0000000000000000 [Eh]
	 Same-Spin Energy          =      -0.2694168741957109 [Eh]
	 Opposite-Spin Energy      =      -0.9139160614442141 [Eh]
	 Correlation Energy        =      -1.1833329356399249 [Eh]
	 Total Energy              =    -270.1192356731622226 [Eh]

	 ================> DF-SCS-MP2 Energies <==================
	-----------------------------------------------------------
	 SCS Same-Spin Scale       =       0.3333333333333333 [-]
	 SCS Opposite-Spin Scale   =       1.2000000000000000 [-]
	 SCS Same-Spin Energy      =      -0.0898056247319036 [Eh]
	 SCS Opposite-Spin Energy  =      -1.0966992737330570 [Eh]
	 SCS Correlation Energy    =      -1.1865048984649607 [Eh]
	 SCS Total Energy          =    -270.1224076359872583 [Eh]
	-----------------------------------------------------------

  Dipole Moment: [D]
     X:    -3.9419      Y:     0.4364      Z:    -0.7655     Total:     4.0392

*** Psi4 exiting successfully. Buy a developer a beer!
