                               Psi4 1.3.2 release

  ==> Input File <==

--------------------------------------------------------------------------
#psi4
#
memory 32 gb

molecule  {
0 1
  O        2.9378530    -0.0680150     0.1840270
  C       -1.9436970     0.3335570     0.3437070
  C       -2.8302210    -0.7631530    -0.2519080
  C       -0.5859380     0.3423530    -0.2788660
  C        0.5697440     0.1186190     0.3690800
  C        1.8486100     0.1294800    -0.3471130
  H       -1.8508390     0.1975730     1.4263050
  H       -2.4196650     1.3090330     0.1828770
  H       -2.9395310    -0.6342920    -1.3325490
  H       -3.8284810    -0.7404210     0.1934590
  H       -2.3959700    -1.7495570    -0.0705440
  H       -0.5478170     0.5276110    -1.3553930
  H        0.5804402    -0.3202114     1.3953746
  H        1.7772940     0.3293450    -1.4382350
units angstrom
no_reorient  #important for SAPT in psi4, default
symmetry c1  #important for SAPT in psi4, default
}

set PROPERTIES_ORIGIN ["COM"]
properties('MP2/aug-cc-pvtz', properties = ['dipole'])
--------------------------------------------------------------------------

    Molecular point group: c1
  Charge       = 0
  Multiplicity = 1
  Basis Set: AUG-CC-PVTZ
    Blend: AUG-CC-PVTZ
  Basis Set: (AUG-CC-PVTZ AUX)
    Blend: AUG-CC-PVTZ-JKFIT

    Orbital Energies [Eh]
    ---------------------

    Doubly Occupied:

       1A    -20.549105     2A    -11.331710     3A    -11.275207
       4A    -11.250670     5A    -11.247705     6A    -11.235984
       7A     -1.373105     8A     -1.116921     9A     -1.032030
      10A     -0.906158    11A     -0.817893    12A     -0.777934
      13A     -0.679783    14A     -0.649167    15A     -0.614414
      16A     -0.606740    17A     -0.557355    18A     -0.546930
      19A     -0.525291    20A     -0.516978    21A     -0.506770
      22A     -0.424254    23A     -0.380047

  @DF-RHF Final Energy:  -268.93192502872500

   => Energetics <=

    Nuclear Repulsion Energy =            209.9929752200376925
    One-Electron Energy =                -780.0054979984823831
    Two-Electron Energy =                 301.0805977497196864
    Total Energy =                       -268.9319250287250043
  Basis Set: (AUG-CC-PVTZ AUX)
    Blend: AUG-CC-PVTZ-RI
    Molecular point group: c1

    Geometry (in Angstrom), charge = 0, multiplicity = 1:

       Center              X                  Y                   Z               Mass
    ------------   -----------------  -----------------  -----------------  -----------------
         O            2.938124808246    -0.065076538789     0.184553117734    15.994914619570
         C           -1.943425191754     0.336495461211     0.344233117734    12.000000000000
         C           -2.829949191754    -0.760214538789    -0.251381882266    12.000000000000
         C           -0.585666191754     0.345291461211    -0.278339882266    12.000000000000
         C            0.570015808246     0.121557461211     0.369606117734    12.000000000000
         C            1.848881808246     0.132418461211    -0.346586882266    12.000000000000
         H           -1.850567191754     0.200511461211     1.426831117734     1.007825032230
         H           -2.419393191754     1.311971461211     0.183403117734     1.007825032230
         H           -2.939259191754    -0.631353538789    -1.332022882266     1.007825032230
         H           -3.828209191754    -0.737482538789     0.193985117734     1.007825032230
         H           -2.395698191754    -1.746618538789    -0.070017882266     1.007825032230
         H           -0.547545191754     0.530549461211    -1.354866882266     1.007825032230
         H            0.580712008246    -0.317272938789     1.395900717734     1.007825032230
         H            1.777565808246     0.332283461211    -1.437708882266     1.007825032230

  Basis Set: AUG-CC-PVTZ
    Blend: AUG-CC-PVTZ
  Basis Set: (AUG-CC-PVTZ AUX)
    Blend: AUG-CC-PVTZ-JKFIT
	 Reference Energy          =    -268.9319250287250043 [Eh]
	 Singles Energy            =      -0.0000000000000000 [Eh]
	 Same-Spin Energy          =      -0.2695854929694338 [Eh]
	 Opposite-Spin Energy      =      -0.9143472803364866 [Eh]
	 Correlation Energy        =      -1.1839327733059204 [Eh]
	 Total Energy              =    -270.1158578020309164 [Eh]

	 ================> DF-SCS-MP2 Energies <==================
	-----------------------------------------------------------
	 SCS Same-Spin Scale       =       0.3333333333333333 [-]
	 SCS Opposite-Spin Scale   =       1.2000000000000000 [-]
	 SCS Same-Spin Energy      =      -0.0898618309898113 [Eh]
	 SCS Opposite-Spin Energy  =      -1.0972167364037839 [Eh]
	 SCS Correlation Energy    =      -1.1870785673935953 [Eh]
	 SCS Total Energy          =    -270.1190035961186027 [Eh]
	-----------------------------------------------------------

  Dipole Moment: [D]
     X:    -3.9674      Y:     0.2477      Z:    -0.8275     Total:     4.0603

*** Psi4 exiting successfully. Buy a developer a beer!
