                               Psi4 1.3.2 release

  ==> Input File <==

--------------------------------------------------------------------------
#psi4
#
memory 32 gb

molecule  {
0 1
  O        2.9378530    -0.0680150     0.1840270
  C       -1.9436970     0.3335570     0.3437070
  C       -2.8302210    -0.7631530    -0.2519080
  C       -0.5859380     0.3423530    -0.2788660
  C        0.5697440     0.1186190     0.3690800
  C        1.8486100     0.1294800    -0.3471130
  H       -1.8508390     0.1975730     1.4263050
  H       -2.4196650     1.3090330     0.1828770
  H       -2.9395310    -0.6342920    -1.3325490
  H       -3.8284810    -0.7404210     0.1934590
  H       -2.3959700    -1.7495570    -0.0705440
  H       -0.5478170     0.5276110    -1.3553930
  H        0.5849720    -0.2711964     1.4041487
  H        1.7772940     0.3293450    -1.4382350
units angstrom
no_reorient  #important for SAPT in psi4, default
symmetry c1  #important for SAPT in psi4, default
}

set PROPERTIES_ORIGIN ["COM"]
properties('MP2/aug-cc-pvtz', properties = ['dipole'])
--------------------------------------------------------------------------

    Molecular point group: c1
  Charge       = 0
  Multiplicity = 1
  Basis Set: AUG-CC-PVTZ
    Blend: AUG-CC-PVTZ
  Basis Set: (AUG-CC-PVTZ AUX)
    Blend: AUG-CC-PVTZ-JKFIT

    Orbital Energies [Eh]
    ---------------------

    Doubly Occupied:

       1A    -20.549077     2A    -11.331678     3A    -11.274921
       4A    -11.250608     5A    -11.246771     6A    -11.235895
       7A     -1.373107     8A     -1.116907     9A     -1.032088
      10A     -0.906094    11A     -0.817787    12A     -0.779236
      13A     -0.679720    14A     -0.649293    15A     -0.614898
      16A     -0.606817    17A     -0.557620    18A     -0.547281
      19A     -0.525697    20A     -0.516971    21A     -0.506847
      22A     -0.424175    23A     -0.380355

  @DF-RHF Final Energy:  -268.93348503280833

   => Energetics <=

    Nuclear Repulsion Energy =            210.0266034797744510
    One-Electron Energy =                -780.0724922178249017
    Two-Electron Energy =                 301.1124037052421727
    Total Energy =                       -268.9334850328083348
  Basis Set: (AUG-CC-PVTZ AUX)
    Blend: AUG-CC-PVTZ-RI
    Molecular point group: c1

    Geometry (in Angstrom), charge = 0, multiplicity = 1:

       Center              X                  Y                   Z               Mass
    ------------   -----------------  -----------------  -----------------  -----------------
         O            2.938070473289    -0.065664214311     0.184447918840    15.994914619570
         C           -1.943479526711     0.335907785689     0.344127918840    12.000000000000
         C           -2.830003526711    -0.760802214311    -0.251487081160    12.000000000000
         C           -0.585720526711     0.344703785689    -0.278445081160    12.000000000000
         C            0.569961473289     0.120969785689     0.369500918840    12.000000000000
         C            1.848827473289     0.131830785689    -0.346692081160    12.000000000000
         H           -1.850621526711     0.199923785689     1.426725918840     1.007825032230
         H           -2.419447526711     1.311383785689     0.183297918840     1.007825032230
         H           -2.939313526711    -0.631941214311    -1.332128081160     1.007825032230
         H           -3.828263526711    -0.738070214311     0.193879918840     1.007825032230
         H           -2.395752526711    -1.747206214311    -0.070123081160     1.007825032230
         H           -0.547599526711     0.529961785689    -1.354972081160     1.007825032230
         H            0.585189473289    -0.268845614311     1.404569618840     1.007825032230
         H            1.777511473289     0.331695785689    -1.437814081160     1.007825032230

  Basis Set: AUG-CC-PVTZ
    Blend: AUG-CC-PVTZ
  Basis Set: (AUG-CC-PVTZ AUX)
    Blend: AUG-CC-PVTZ-JKFIT
	 Reference Energy          =    -268.9334850328083348 [Eh]
	 Singles Energy            =      -0.0000000000000000 [Eh]
	 Same-Spin Energy          =      -0.2695242734594220 [Eh]
	 Opposite-Spin Energy      =      -0.9141771472285910 [Eh]
	 Correlation Energy        =      -1.1837014206880130 [Eh]
	 Total Energy              =    -270.1171864534963447 [Eh]

	 ================> DF-SCS-MP2 Energies <==================
	-----------------------------------------------------------
	 SCS Same-Spin Scale       =       0.3333333333333333 [-]
	 SCS Opposite-Spin Scale   =       1.2000000000000000 [-]
	 SCS Same-Spin Energy      =      -0.0898414244864740 [Eh]
	 SCS Opposite-Spin Energy  =      -1.0970125766743091 [Eh]
	 SCS Correlation Energy    =      -1.1868540011607831 [Eh]
	 SCS Total Energy          =    -270.1203390339691168 [Eh]
	-----------------------------------------------------------

  Dipole Moment: [D]
     X:    -3.9628      Y:     0.2779      Z:    -0.8116     Total:     4.0546

*** Psi4 exiting successfully. Buy a developer a beer!
