                               Psi4 1.3.2 release

  ==> Input File <==

--------------------------------------------------------------------------
#psi4
#
memory 32 gb

molecule  {
0 1
  O        2.9378530    -0.0680150     0.1840270
  C       -1.9436970     0.3335570     0.3437070
  C       -2.8302210    -0.7631530    -0.2519080
  C       -0.5859380     0.3423530    -0.2788660
  C        0.5697440     0.1186190     0.3690800
  C        1.8486100     0.1294800    -0.3471130
  H       -1.8508390     0.1975730     1.4263050
  H       -2.4196650     1.3090330     0.1828770
  H       -2.9395310    -0.6342920    -1.3325490
  H       -3.8284810    -0.7404210     0.1934590
  H       -2.3959700    -1.7495570    -0.0705440
  H       -0.5478170     0.5276110    -1.3553930
  H        0.6030990    -0.0751360     1.4392450
  H        1.7636525     0.1822929    -1.4644952
units angstrom
no_reorient  #important for SAPT in psi4, default
symmetry c1  #important for SAPT in psi4, default
}

set PROPERTIES_ORIGIN ["COM"]
properties('MP2/aug-cc-pvtz', properties = ['dipole'])
--------------------------------------------------------------------------

    Molecular point group: c1
  Charge       = 0
  Multiplicity = 1
  Basis Set: AUG-CC-PVTZ
    Blend: AUG-CC-PVTZ
  Basis Set: (AUG-CC-PVTZ AUX)
    Blend: AUG-CC-PVTZ-JKFIT

    Orbital Energies [Eh]
    ---------------------

    Doubly Occupied:

       1A    -20.549520     2A    -11.332728     3A    -11.274394
       4A    -11.250502     5A    -11.245282     6A    -11.235674
       7A     -1.373441     8A     -1.116864     9A     -1.032147
      10A     -0.905730    11A     -0.816895    12A     -0.780552
      13A     -0.678850    14A     -0.649404    15A     -0.616303
      16A     -0.606686    17A     -0.558467    18A     -0.546795
      19A     -0.527032    20A     -0.516604    21A     -0.506904
      22A     -0.423545    23A     -0.380941

  @DF-RHF Final Energy:  -268.93463854530415

   => Energetics <=

    Nuclear Repulsion Energy =            210.0460574693860849
    One-Electron Energy =                -780.1108719573823009
    Two-Electron Energy =                 301.1301759426921194
    Total Energy =                       -268.9346385453041535
  Basis Set: (AUG-CC-PVTZ AUX)
    Blend: AUG-CC-PVTZ-RI
    Molecular point group: c1

    Geometry (in Angstrom), charge = 0, multiplicity = 1:

       Center              X                  Y                   Z               Mass
    ------------   -----------------  -----------------  -----------------  -----------------
         O            2.938016693455    -0.066251809502     0.184341976584    15.994914619570
         C           -1.943533306545     0.335320190498     0.344021976584    12.000000000000
         C           -2.830057306545    -0.761389809502    -0.251593023416    12.000000000000
         C           -0.585774306545     0.344116190498    -0.278551023416    12.000000000000
         C            0.569907693455     0.120382190498     0.369394976584    12.000000000000
         C            1.848773693455     0.131243190498    -0.346798023416    12.000000000000
         H           -1.850675306545     0.199336190498     1.426619976584     1.007825032230
         H           -2.419501306545     1.310796190498     0.183191976584     1.007825032230
         H           -2.939367306545    -0.632528809502    -1.332234023416     1.007825032230
         H           -3.828317306545    -0.738657809502     0.193773976584     1.007825032230
         H           -2.395806306545    -1.747793809502    -0.070229023416     1.007825032230
         H           -0.547653306545     0.529374190498    -1.355078023416     1.007825032230
         H            0.603262693455    -0.073372809502     1.439559976584     1.007825032230
         H            1.763816193455     0.184056090498    -1.464180223416     1.007825032230

  Basis Set: AUG-CC-PVTZ
    Blend: AUG-CC-PVTZ
  Basis Set: (AUG-CC-PVTZ AUX)
    Blend: AUG-CC-PVTZ-JKFIT
	 Reference Energy          =    -268.9346385453041535 [Eh]
	 Singles Energy            =      -0.0000000000000000 [Eh]
	 Same-Spin Energy          =      -0.2695047039370574 [Eh]
	 Opposite-Spin Energy      =      -0.9140813671698825 [Eh]
	 Correlation Energy        =      -1.1835860711069399 [Eh]
	 Total Energy              =    -270.1182246164111120 [Eh]

	 ================> DF-SCS-MP2 Energies <==================
	-----------------------------------------------------------
	 SCS Same-Spin Scale       =       0.3333333333333333 [-]
	 SCS Opposite-Spin Scale   =       1.2000000000000000 [-]
	 SCS Same-Spin Energy      =      -0.0898349013123525 [Eh]
	 SCS Opposite-Spin Energy  =      -1.0968976406038591 [Eh]
	 SCS Correlation Energy    =      -1.1867325419162116 [Eh]
	 SCS Total Energy          =    -270.1213710872203819 [Eh]
	-----------------------------------------------------------

  Dipole Moment: [D]
     X:    -3.9477      Y:     0.3488      Z:    -0.7617     Total:     4.0356

*** Psi4 exiting successfully. Buy a developer a beer!
