                               Psi4 1.3.2 release

  ==> Input File <==

--------------------------------------------------------------------------
#psi4
#
memory 32 gb

molecule  {
0 1
  O        2.9378530    -0.0680150     0.1840270
  C       -1.9436970     0.3335570     0.3437070
  C       -2.8302210    -0.7631530    -0.2519080
  C       -0.5859380     0.3423530    -0.2788660
  C        0.5697440     0.1186190     0.3690800
  C        1.8486100     0.1294800    -0.3471130
  H       -1.8508390     0.1975730     1.4263050
  H       -2.4196650     1.3090330     0.1828770
  H       -2.9395310    -0.6342920    -1.3325490
  H       -3.8284810    -0.7404210     0.1934590
  H       -2.3959700    -1.7495570    -0.0705440
  H       -0.5478170     0.5276110    -1.3553930
  H        0.6030990    -0.0751360     1.4392450
  H        1.7591054     0.1332756    -1.4732486
units angstrom
no_reorient  #important for SAPT in psi4, default
symmetry c1  #important for SAPT in psi4, default
}

set PROPERTIES_ORIGIN ["COM"]
properties('MP2/aug-cc-pvtz', properties = ['dipole'])
--------------------------------------------------------------------------

    Molecular point group: c1
  Charge       = 0
  Multiplicity = 1
  Basis Set: AUG-CC-PVTZ
    Blend: AUG-CC-PVTZ
  Basis Set: (AUG-CC-PVTZ AUX)
    Blend: AUG-CC-PVTZ-JKFIT

    Orbital Energies [Eh]
    ---------------------

    Doubly Occupied:

       1A    -20.549902     2A    -11.333574     3A    -11.274369
       4A    -11.250502     5A    -11.245450     6A    -11.235659
       7A     -1.373697     8A     -1.116858     9A     -1.032110
      10A     -0.905591    11A     -0.816445    12A     -0.779648
      13A     -0.678268    14A     -0.649506    15A     -0.616237
      16A     -0.606659    17A     -0.558605    18A     -0.546603
      19A     -0.527108    20A     -0.516529    21A     -0.506885
      22A     -0.423187    23A     -0.380924

  @DF-RHF Final Energy:  -268.93351948613929

   => Energetics <=

    Nuclear Repulsion Energy =            210.0191786435943868
    One-Electron Energy =                -780.0567640133965597
    Two-Electron Energy =                 301.1040658836628836
    Total Energy =                       -268.9335194861392893
  Basis Set: (AUG-CC-PVTZ AUX)
    Blend: AUG-CC-PVTZ-RI
    Molecular point group: c1

    Geometry (in Angstrom), charge = 0, multiplicity = 1:

       Center              X                  Y                   Z               Mass
    ------------   -----------------  -----------------  -----------------  -----------------
         O            2.938071211855    -0.065664106403     0.184446927291    15.994914619570
         C           -1.943478788145     0.335907893597     0.344126927291    12.000000000000
         C           -2.830002788145    -0.760802106403    -0.251488072709    12.000000000000
         C           -0.585719788145     0.344703893597    -0.278446072709    12.000000000000
         C            0.569962211855     0.120969893597     0.369499927291    12.000000000000
         C            1.848828211855     0.131830893597    -0.346693072709    12.000000000000
         H           -1.850620788145     0.199923893597     1.426724927291     1.007825032230
         H           -2.419446788145     1.311383893597     0.183296927291     1.007825032230
         H           -2.939312788145    -0.631941106403    -1.332129072709     1.007825032230
         H           -3.828262788145    -0.738070106403     0.193878927291     1.007825032230
         H           -2.395751788145    -1.747206106403    -0.070124072709     1.007825032230
         H           -0.547598788145     0.529961893597    -1.354973072709     1.007825032230
         H            0.603317211855    -0.072785106403     1.439664927291     1.007825032230
         H            1.759323611855     0.135626493597    -1.472828672709     1.007825032230

  Basis Set: AUG-CC-PVTZ
    Blend: AUG-CC-PVTZ
  Basis Set: (AUG-CC-PVTZ AUX)
    Blend: AUG-CC-PVTZ-JKFIT
	 Reference Energy          =    -268.9335194861392893 [Eh]
	 Singles Energy            =      -0.0000000000000000 [Eh]
	 Same-Spin Energy          =      -0.2695706665851491 [Eh]
	 Opposite-Spin Energy      =      -0.9142306970894984 [Eh]
	 Correlation Energy        =      -1.1838013636746476 [Eh]
	 Total Energy              =    -270.1173208498139502 [Eh]

	 ================> DF-SCS-MP2 Energies <==================
	-----------------------------------------------------------
	 SCS Same-Spin Scale       =       0.3333333333333333 [-]
	 SCS Opposite-Spin Scale   =       1.2000000000000000 [-]
	 SCS Same-Spin Energy      =      -0.0898568888617163 [Eh]
	 SCS Opposite-Spin Energy  =      -1.0970768365073982 [Eh]
	 SCS Correlation Energy    =      -1.1869337253691146 [Eh]
	 SCS Total Energy          =    -270.1204532115083907 [Eh]
	-----------------------------------------------------------

  Dipole Moment: [D]
     X:    -3.9456      Y:     0.3291      Z:    -0.7510     Total:     4.0299

*** Psi4 exiting successfully. Buy a developer a beer!
