                               Psi4 1.3.2 release

  ==> Input File <==

--------------------------------------------------------------------------
#psi4
#
memory 32 gb

molecule  {
0 1
  O        2.9378530    -0.0680150     0.1840270
  C       -1.9436970     0.3335570     0.3437070
  C       -2.8302210    -0.7631530    -0.2519080
  C       -0.5859380     0.3423530    -0.2788660
  C        0.5697440     0.1186190     0.3690800
  C        1.8486100     0.1294800    -0.3471130
  H       -1.8508390     0.1975730     1.4263050
  H       -2.4196650     1.3090330     0.1828770
  H       -2.9395310    -0.6342920    -1.3325490
  H       -3.8284810    -0.7404210     0.1934590
  H       -2.3959700    -1.7495570    -0.0705440
  H       -0.5314119     0.7236828    -1.3195222
  H        0.6030990    -0.0751360     1.4392450
  H        1.7772940     0.3293450    -1.4382350
units angstrom
no_reorient  #important for SAPT in psi4, default
symmetry c1  #important for SAPT in psi4, default
}

set PROPERTIES_ORIGIN ["COM"]
properties('MP2/aug-cc-pvtz', properties = ['dipole'])
--------------------------------------------------------------------------

    Molecular point group: c1
  Charge       = 0
  Multiplicity = 1
  Basis Set: AUG-CC-PVTZ
    Blend: AUG-CC-PVTZ
  Basis Set: (AUG-CC-PVTZ AUX)
    Blend: AUG-CC-PVTZ-JKFIT

    Orbital Energies [Eh]
    ---------------------

    Doubly Occupied:

       1A    -20.549288     2A    -11.331758     3A    -11.276033
       4A    -11.250384     5A    -11.245723     6A    -11.235245
       7A     -1.373338     8A     -1.116396     9A     -1.032154
      10A     -0.905961    11A     -0.816682    12A     -0.779469
      13A     -0.678958    14A     -0.649683    15A     -0.615532
      16A     -0.607199    17A     -0.559759    18A     -0.545029
      19A     -0.526835    20A     -0.516826    21A     -0.504289
      22A     -0.424241    23A     -0.380661

  @DF-RHF Final Energy:  -268.93346067642017

   => Energetics <=

    Nuclear Repulsion Energy =            209.9666318525213171
    One-Electron Energy =                -779.9572979471092822
    Two-Electron Energy =                 301.0572054181677686
    Total Energy =                       -268.9334606764201681
  Basis Set: (AUG-CC-PVTZ AUX)
    Blend: AUG-CC-PVTZ-RI
    Molecular point group: c1

    Geometry (in Angstrom), charge = 0, multiplicity = 1:

       Center              X                  Y                   Z               Mass
    ------------   -----------------  -----------------  -----------------  -----------------
         O            2.937656443504    -0.070365764763     0.183597044055    15.994914619570
         C           -1.943893556496     0.331206235237     0.343277044055    12.000000000000
         C           -2.830417556496    -0.765503764763    -0.252337955945    12.000000000000
         C           -0.586134556496     0.340002235237    -0.279295955945    12.000000000000
         C            0.569547443504     0.116268235237     0.368650044055    12.000000000000
         C            1.848413443504     0.127129235237    -0.347542955945    12.000000000000
         H           -1.851035556496     0.195222235237     1.425875044055     1.007825032230
         H           -2.419861556496     1.306682235237     0.182447044055     1.007825032230
         H           -2.939727556496    -0.636642764763    -1.332978955945     1.007825032230
         H           -3.828677556496    -0.742771764763     0.193029044055     1.007825032230
         H           -2.396166556496    -1.751907764763    -0.070973955945     1.007825032230
         H           -0.531608456496     0.721332035237    -1.319952155945     1.007825032230
         H            0.602902443504    -0.077486764763     1.438815044055     1.007825032230
         H            1.777097443504     0.326994235237    -1.438664955945     1.007825032230

  Basis Set: AUG-CC-PVTZ
    Blend: AUG-CC-PVTZ
  Basis Set: (AUG-CC-PVTZ AUX)
    Blend: AUG-CC-PVTZ-JKFIT
	 Reference Energy          =    -268.9334606764201681 [Eh]
	 Singles Energy            =      -0.0000000000000000 [Eh]
	 Same-Spin Energy          =      -0.2695182534785597 [Eh]
	 Opposite-Spin Energy      =      -0.9142597144177762 [Eh]
	 Correlation Energy        =      -1.1837779678963358 [Eh]
	 Total Energy              =    -270.1172386443165010 [Eh]

	 ================> DF-SCS-MP2 Energies <==================
	-----------------------------------------------------------
	 SCS Same-Spin Scale       =       0.3333333333333333 [-]
	 SCS Opposite-Spin Scale   =       1.2000000000000000 [-]
	 SCS Same-Spin Energy      =      -0.0898394178261866 [Eh]
	 SCS Opposite-Spin Energy  =      -1.0971116573013313 [Eh]
	 SCS Correlation Energy    =      -1.1869510751275179 [Eh]
	 SCS Total Energy          =    -270.1204117515476923 [Eh]
	-----------------------------------------------------------

  Dipole Moment: [D]
     X:    -3.9153      Y:     0.5214      Z:    -0.7356     Total:     4.0178

*** Psi4 exiting successfully. Buy a developer a beer!
