                               Psi4 1.3.2 release

  ==> Input File <==

--------------------------------------------------------------------------
#psi4
#
memory 32 gb

molecule  {
0 1
  O        2.9378530    -0.0680150     0.1840270
  C       -1.9436970     0.3335570     0.3437070
  C       -2.8302210    -0.7631530    -0.2519080
  C       -0.5859380     0.3423530    -0.2788660
  C        0.5697440     0.1186190     0.3690800
  C        1.8486100     0.1294800    -0.3471130
  H       -1.8508390     0.1975730     1.4263050
  H       -2.4196650     1.3090330     0.1828770
  H       -2.9395310    -0.6342920    -1.3325490
  H       -3.8284810    -0.7404210     0.1934590
  H       -2.3959700    -1.7495570    -0.0705440
  H       -0.5273107     0.7727008    -1.3105545
  H        0.6030990    -0.0751360     1.4392450
  H        1.7772940     0.3293450    -1.4382350
units angstrom
no_reorient  #important for SAPT in psi4, default
symmetry c1  #important for SAPT in psi4, default
}

set PROPERTIES_ORIGIN ["COM"]
properties('MP2/aug-cc-pvtz', properties = ['dipole'])
--------------------------------------------------------------------------

    Molecular point group: c1
  Charge       = 0
  Multiplicity = 1
  Basis Set: AUG-CC-PVTZ
    Blend: AUG-CC-PVTZ
  Basis Set: (AUG-CC-PVTZ AUX)
    Blend: AUG-CC-PVTZ-JKFIT

    Orbital Energies [Eh]
    ---------------------

    Doubly Occupied:

       1A    -20.549433     2A    -11.331830     3A    -11.276961
       4A    -11.250364     5A    -11.246080     6A    -11.235108
       7A     -1.373462     8A     -1.116192     9A     -1.032161
      10A     -0.905906    11A     -0.816438    12A     -0.778298
      13A     -0.678439    14A     -0.649795    15A     -0.615337
      16A     -0.607338    17A     -0.559950    18A     -0.544280
      19A     -0.526914    20A     -0.516768    21A     -0.503299
      22A     -0.424376    23A     -0.380469

  @DF-RHF Final Energy:  -268.93188455581299

   => Energetics <=

    Nuclear Repulsion Energy =            209.9187022941560770
    One-Electron Energy =                -779.8627770553136997
    Two-Electron Energy =                 301.0121902053446092
    Total Energy =                       -268.9318845558129851
  Basis Set: (AUG-CC-PVTZ AUX)
    Blend: AUG-CC-PVTZ-RI
    Molecular point group: c1

    Geometry (in Angstrom), charge = 0, multiplicity = 1:

       Center              X                  Y                   Z               Mass
    ------------   -----------------  -----------------  -----------------  -----------------
         O            2.937607271315    -0.070953476255     0.183489523954    15.994914619570
         C           -1.943942728685     0.330618523745     0.343169523954    12.000000000000
         C           -2.830466728685    -0.766091476255    -0.252445476046    12.000000000000
         C           -0.586183728685     0.339414523745    -0.279403476046    12.000000000000
         C            0.569498271315     0.115680523745     0.368542523954    12.000000000000
         C            1.848364271315     0.126541523745    -0.347650476046    12.000000000000
         H           -1.851084728685     0.194634523745     1.425767523954     1.007825032230
         H           -2.419910728685     1.306094523745     0.182339523954     1.007825032230
         H           -2.939776728685    -0.637230476255    -1.333086476046     1.007825032230
         H           -3.828726728685    -0.743359476255     0.192921523954     1.007825032230
         H           -2.396215728685    -1.752495476255    -0.071081476046     1.007825032230
         H           -0.527556428685     0.769762323745    -1.311091976046     1.007825032230
         H            0.602853271315    -0.078074476255     1.438707523954     1.007825032230
         H            1.777048271315     0.326406523745    -1.438772476046     1.007825032230

  Basis Set: AUG-CC-PVTZ
    Blend: AUG-CC-PVTZ
  Basis Set: (AUG-CC-PVTZ AUX)
    Blend: AUG-CC-PVTZ-JKFIT
	 Reference Energy          =    -268.9318845558129851 [Eh]
	 Singles Energy            =      -0.0000000000000000 [Eh]
	 Same-Spin Energy          =      -0.2695854583459483 [Eh]
	 Opposite-Spin Energy      =      -0.9144673510817314 [Eh]
	 Correlation Energy        =      -1.1840528094276797 [Eh]
	 Total Energy              =    -270.1159373652406543 [Eh]

	 ================> DF-SCS-MP2 Energies <==================
	-----------------------------------------------------------
	 SCS Same-Spin Scale       =       0.3333333333333333 [-]
	 SCS Opposite-Spin Scale   =       1.2000000000000000 [-]
	 SCS Same-Spin Energy      =      -0.0898618194486494 [Eh]
	 SCS Opposite-Spin Energy  =      -1.0973608212980777 [Eh]
	 SCS Correlation Energy    =      -1.1872226407467270 [Eh]
	 SCS Total Energy          =    -270.1191071965596961 [Eh]
	-----------------------------------------------------------

  Dipole Moment: [D]
     X:    -3.9038      Y:     0.5478      Z:    -0.7205     Total:     4.0073

*** Psi4 exiting successfully. Buy a developer a beer!
