                               Psi4 1.3.2 release

  ==> Input File <==

--------------------------------------------------------------------------
#psi4
#
memory 32 gb

molecule  {
0 1
  O        2.9378530    -0.0680150     0.1840270
  C       -1.9436970     0.3335570     0.3437070
  C       -2.8302210    -0.7631530    -0.2519080
  C       -0.5859380     0.3423530    -0.2788660
  C        0.5697440     0.1186190     0.3690800
  C        1.8486100     0.1294800    -0.3471130
  H       -1.8508390     0.1975730     1.4263050
  H       -2.4196650     1.3090330     0.1828770
  H       -2.9395310    -0.6342920    -1.3325490
  H       -3.8284810    -0.7404210     0.1934590
  H       -2.3959700    -1.7495570    -0.0705440
  H       -0.5232094     0.8217187    -1.3015869
  H        0.6030990    -0.0751360     1.4392450
  H        1.7772940     0.3293450    -1.4382350
units angstrom
no_reorient  #important for SAPT in psi4, default
symmetry c1  #important for SAPT in psi4, default
}

set PROPERTIES_ORIGIN ["COM"]
properties('MP2/aug-cc-pvtz', properties = ['dipole'])
--------------------------------------------------------------------------

    Molecular point group: c1
  Charge       = 0
  Multiplicity = 1
  Basis Set: AUG-CC-PVTZ
    Blend: AUG-CC-PVTZ
  Basis Set: (AUG-CC-PVTZ AUX)
    Blend: AUG-CC-PVTZ-JKFIT

    Orbital Energies [Eh]
    ---------------------

    Doubly Occupied:

       1A    -20.549607     2A    -11.331917     3A    -11.278083
       4A    -11.250351     5A    -11.246509     6A    -11.234964
       7A     -1.373611     8A     -1.115965     9A     -1.032178
      10A     -0.905830    11A     -0.816213    12A     -0.776932
      13A     -0.677781    14A     -0.649913    15A     -0.615175
      16A     -0.607455    17A     -0.560069    18A     -0.543478
      19A     -0.527005    20A     -0.516691    21A     -0.502154
      22A     -0.424537    23A     -0.380237

  @DF-RHF Final Energy:  -268.92986471182815

   => Energetics <=

    Nuclear Repulsion Energy =            209.8634846826606122
    One-Electron Energy =                -779.7533879341016245
    Two-Electron Energy =                 300.9600385396128104
    Total Energy =                       -268.9298647118281451
  Basis Set: (AUG-CC-PVTZ AUX)
    Blend: AUG-CC-PVTZ-RI
    Molecular point group: c1

    Geometry (in Angstrom), charge = 0, multiplicity = 1:

       Center              X                  Y                   Z               Mass
    ------------   -----------------  -----------------  -----------------  -----------------
         O            2.937558097926    -0.071541186547     0.183382005051    15.994914619570
         C           -1.943991902074     0.330030813453     0.343062005051    12.000000000000
         C           -2.830515902074    -0.766679186547    -0.252552994949    12.000000000000
         C           -0.586232902074     0.338826813453    -0.279510994949    12.000000000000
         C            0.569449097926     0.115092813453     0.368435005051    12.000000000000
         C            1.848315097926     0.125953813453    -0.347757994949    12.000000000000
         H           -1.851133902074     0.194046813453     1.425660005051     1.007825032230
         H           -2.419959902074     1.305506813453     0.182232005051     1.007825032230
         H           -2.939825902074    -0.637818186547    -1.333193994949     1.007825032230
         H           -3.828775902074    -0.743947186547     0.192814005051     1.007825032230
         H           -2.396264902074    -1.753083186547    -0.071188994949     1.007825032230
         H           -0.523504302074     0.818192513453    -1.302231894949     1.007825032230
         H            0.602804097926    -0.078662186547     1.438600005051     1.007825032230
         H            1.776999097926     0.325818813453    -1.438879994949     1.007825032230

  Basis Set: AUG-CC-PVTZ
    Blend: AUG-CC-PVTZ
  Basis Set: (AUG-CC-PVTZ AUX)
    Blend: AUG-CC-PVTZ-JKFIT
	 Reference Energy          =    -268.9298647118281451 [Eh]
	 Singles Energy            =      -0.0000000000000000 [Eh]
	 Same-Spin Energy          =      -0.2696681307802669 [Eh]
	 Opposite-Spin Energy      =      -0.9147216197769118 [Eh]
	 Correlation Energy        =      -1.1843897505571788 [Eh]
	 Total Energy              =    -270.1142544623853041 [Eh]

	 ================> DF-SCS-MP2 Energies <==================
	-----------------------------------------------------------
	 SCS Same-Spin Scale       =       0.3333333333333333 [-]
	 SCS Opposite-Spin Scale   =       1.2000000000000000 [-]
	 SCS Same-Spin Energy      =      -0.0898893769267556 [Eh]
	 SCS Opposite-Spin Energy  =      -1.0976659437322942 [Eh]
	 SCS Correlation Energy    =      -1.1875553206590499 [Eh]
	 SCS Total Energy          =    -270.1174200324871890 [Eh]
	-----------------------------------------------------------

  Dipole Moment: [D]
     X:    -3.8911      Y:     0.5732      Z:    -0.7029     Total:     3.9954

*** Psi4 exiting successfully. Buy a developer a beer!
