                               Psi4 1.3.2 release

  ==> Input File <==

--------------------------------------------------------------------------
#psi4
#
memory 32 gb

molecule  {
0 1
  O        2.9378530    -0.0680150     0.1840270
  C       -1.9436970     0.3335570     0.3437070
  C       -2.8302210    -0.7631530    -0.2519080
  C       -0.5859380     0.3423530    -0.2788660
  C        0.5697440     0.1186190     0.3690800
  C        1.8486100     0.1294800    -0.3471130
  H       -1.8508390     0.1975730     1.4263050
  H       -2.4196650     1.3090330     0.1828770
  H       -2.9395310    -0.6342920    -1.3325490
  H       -3.8284810    -0.7404210     0.1934590
  H       -2.3959700    -1.7495570    -0.0705440
  H       -0.5478170     0.5276110    -1.3553930
  H        0.5940355    -0.1731662     1.4216969
  H        1.7772940     0.3293450    -1.4382350
units angstrom
no_reorient  #important for SAPT in psi4, default
symmetry c1  #important for SAPT in psi4, default
}

set PROPERTIES_ORIGIN ["COM"]
properties('MP2/aug-cc-pvtz', properties = ['dipole'])
--------------------------------------------------------------------------

    Molecular point group: c1
  Charge       = 0
  Multiplicity = 1
  Basis Set: AUG-CC-PVTZ
    Blend: AUG-CC-PVTZ
  Basis Set: (AUG-CC-PVTZ AUX)
    Blend: AUG-CC-PVTZ-JKFIT

    Orbital Energies [Eh]
    ---------------------

    Doubly Occupied:

       1A    -20.549036     2A    -11.331635     3A    -11.274542
       4A    -11.250524     5A    -11.245498     6A    -11.235767
       7A     -1.373108     8A     -1.116888     9A     -1.032173
      10A     -0.905990    11A     -0.817635    12A     -0.781079
      13A     -0.679631    14A     -0.649404    15A     -0.615812
      16A     -0.606765    17A     -0.558065    18A     -0.547537
      19A     -0.526314    20A     -0.516892    21A     -0.506927
      22A     -0.424057    23A     -0.380791

  @DF-RHF Final Energy:  -268.93543588773622

   => Energetics <=

    Nuclear Repulsion Energy =            210.0693412641033433
    One-Electron Energy =                -780.1574119763184854
    Two-Electron Energy =                 301.1526348244788664
    Total Energy =                       -268.9354358877362188
  Basis Set: (AUG-CC-PVTZ AUX)
    Blend: AUG-CC-PVTZ-RI
    Molecular point group: c1

    Geometry (in Angstrom), charge = 0, multiplicity = 1:

       Center              X                  Y                   Z               Mass
    ------------   -----------------  -----------------  -----------------  -----------------
         O            2.937961804573    -0.066839567753     0.184237521051    15.994914619570
         C           -1.943588195427     0.334732432247     0.343917521051    12.000000000000
         C           -2.830112195427    -0.761977567753    -0.251697478949    12.000000000000
         C           -0.585829195427     0.343528432247    -0.278655478949    12.000000000000
         C            0.569852804573     0.119794432247     0.369290521051    12.000000000000
         C            1.848718804573     0.130655432247    -0.346902478949    12.000000000000
         H           -1.850730195427     0.198748432247     1.426515521051     1.007825032230
         H           -2.419556195427     1.310208432247     0.183087521051     1.007825032230
         H           -2.939422195427    -0.633116567753    -1.332338478949     1.007825032230
         H           -3.828372195427    -0.739245567753     0.193669521051     1.007825032230
         H           -2.395861195427    -1.748381567753    -0.070333478949     1.007825032230
         H           -0.547708195427     0.528786432247    -1.355182478949     1.007825032230
         H            0.594144304573    -0.171990767753     1.421907421051     1.007825032230
         H            1.777402804573     0.330520432247    -1.438024478949     1.007825032230

  Basis Set: AUG-CC-PVTZ
    Blend: AUG-CC-PVTZ
  Basis Set: (AUG-CC-PVTZ AUX)
    Blend: AUG-CC-PVTZ-JKFIT
	 Reference Energy          =    -268.9354358877362188 [Eh]
	 Singles Energy            =      -0.0000000000000000 [Eh]
	 Same-Spin Energy          =      -0.2694429573680169 [Eh]
	 Opposite-Spin Energy      =      -0.9139579988763527 [Eh]
	 Correlation Energy        =      -1.1834009562443697 [Eh]
	 Total Energy              =    -270.1188368439806027 [Eh]

	 ================> DF-SCS-MP2 Energies <==================
	-----------------------------------------------------------
	 SCS Same-Spin Scale       =       0.3333333333333333 [-]
	 SCS Opposite-Spin Scale   =       1.2000000000000000 [-]
	 SCS Same-Spin Energy      =      -0.0898143191226723 [Eh]
	 SCS Opposite-Spin Energy  =      -1.0967495986516231 [Eh]
	 SCS Correlation Energy    =      -1.1865639177742955 [Eh]
	 SCS Total Energy          =    -270.1219998055105407 [Eh]
	-----------------------------------------------------------

  Dipole Moment: [D]
     X:    -3.9546      Y:     0.3410      Z:    -0.7864     Total:     4.0464

*** Psi4 exiting successfully. Buy a developer a beer!
