                               Psi4 1.3.2 release

  ==> Input File <==

--------------------------------------------------------------------------
#psi4
#
memory 32 gb

molecule  {
0 1
  O        2.9378530    -0.0680150     0.1840270
  C       -1.9436970     0.3335570     0.3437070
  C       -2.8302210    -0.7631530    -0.2519080
  C       -0.5859380     0.3423530    -0.2788660
  C        0.5697440     0.1186190     0.3690800
  C        1.8486100     0.1294800    -0.3471130
  H       -1.8508390     0.1975730     1.4263050
  H       -2.4196650     1.3090330     0.1828770
  H       -2.9395310    -0.6342920    -1.3325490
  H       -3.8284810    -0.7404210     0.1934590
  H       -2.3959700    -1.7495570    -0.0705440
  H       -0.5355132     0.6746649    -1.3284899
  H        0.6030990    -0.0751360     1.4392450
  H        1.7772940     0.3293450    -1.4382350
units angstrom
no_reorient  #important for SAPT in psi4, default
symmetry c1  #important for SAPT in psi4, default
}

set PROPERTIES_ORIGIN ["COM"]
properties('MP2/aug-cc-pvtz', properties = ['dipole'])
--------------------------------------------------------------------------

    Molecular point group: c1
  Charge       = 0
  Multiplicity = 1
  Basis Set: AUG-CC-PVTZ
    Blend: AUG-CC-PVTZ
  Basis Set: (AUG-CC-PVTZ AUX)
    Blend: AUG-CC-PVTZ-JKFIT

    Orbital Energies [Eh]
    ---------------------

    Doubly Occupied:

       1A    -20.549173     2A    -11.331699     3A    -11.275309
       4A    -11.250409     5A    -11.245440     6A    -11.235376
       7A     -1.373239     8A     -1.116570     9A     -1.032155
      10A     -0.905990    11A     -0.816931    12A     -0.780416
      13A     -0.679332    14A     -0.649577    15A     -0.615754
      16A     -0.607044    17A     -0.559500    18A     -0.545709
      19A     -0.526771    20A     -0.516861    21A     -0.505138
      22A     -0.424136    23A     -0.380808

  @DF-RHF Final Energy:  -268.93463295923874

   => Energetics <=

    Nuclear Repulsion Energy =            210.0067953445178830
    One-Electron Energy =                -780.0361797538810151
    Two-Electron Energy =                 301.0947514501244200
    Total Energy =                       -268.9346329592387406
  Basis Set: (AUG-CC-PVTZ AUX)
    Blend: AUG-CC-PVTZ-RI
    Molecular point group: c1

    Geometry (in Angstrom), charge = 0, multiplicity = 1:

       Center              X                  Y                   Z               Mass
    ------------   -----------------  -----------------  -----------------  -----------------
         O            2.937705616892    -0.069778054471     0.183704564157    15.994914619570
         C           -1.943844383108     0.331793945529     0.343384564157    12.000000000000
         C           -2.830368383108    -0.764916054471    -0.252230435843    12.000000000000
         C           -0.586085383108     0.340589945529    -0.279188435843    12.000000000000
         C            0.569596616892     0.116855945529     0.368757564157    12.000000000000
         C            1.848462616892     0.127716945529    -0.347435435843    12.000000000000
         H           -1.850986383108     0.195809945529     1.425982564157     1.007825032230
         H           -2.419812383108     1.307269945529     0.182554564157     1.007825032230
         H           -2.939678383108    -0.636055054471    -1.332871435843     1.007825032230
         H           -3.828628383108    -0.742184054471     0.193136564157     1.007825032230
         H           -2.396117383108    -1.751320054471    -0.070866435843     1.007825032230
         H           -0.535660583108     0.672901845529    -1.328812335843     1.007825032230
         H            0.602951616892    -0.076899054471     1.438922564157     1.007825032230
         H            1.777146616892     0.327581945529    -1.438557435843     1.007825032230

  Basis Set: AUG-CC-PVTZ
    Blend: AUG-CC-PVTZ
  Basis Set: (AUG-CC-PVTZ AUX)
    Blend: AUG-CC-PVTZ-JKFIT
	 Reference Energy          =    -268.9346329592387406 [Eh]
	 Singles Energy            =      -0.0000000000000000 [Eh]
	 Same-Spin Energy          =      -0.2694673279254995 [Eh]
	 Opposite-Spin Energy      =      -0.9140986854623198 [Eh]
	 Correlation Energy        =      -1.1835660133878192 [Eh]
	 Total Energy              =    -270.1181989726265442 [Eh]

	 ================> DF-SCS-MP2 Energies <==================
	-----------------------------------------------------------
	 SCS Same-Spin Scale       =       0.3333333333333333 [-]
	 SCS Opposite-Spin Scale   =       1.2000000000000000 [-]
	 SCS Same-Spin Energy      =      -0.0898224426418332 [Eh]
	 SCS Opposite-Spin Energy  =      -1.0969184225547837 [Eh]
	 SCS Correlation Energy    =      -1.1867408651966169 [Eh]
	 SCS Total Energy          =    -270.1213738244353522 [Eh]
	-----------------------------------------------------------

  Dipole Moment: [D]
     X:    -3.9256      Y:     0.4939      Z:    -0.7482     Total:     4.0267

*** Psi4 exiting successfully. Buy a developer a beer!
