                               Psi4 1.3.2 release

  ==> Input File <==

--------------------------------------------------------------------------
#psi4
#
memory 32 gb

molecule  {
0 1
  O        2.9378530    -0.0680150     0.1840270
  C       -1.9436970     0.3335570     0.3437070
  C       -2.8302210    -0.7631530    -0.2519080
  C       -0.5859380     0.3423530    -0.2788660
  C        0.5697440     0.1186190     0.3690800
  C        1.8486100     0.1294800    -0.3471130
  H       -1.8508390     0.1975730     1.4263050
  H       -2.4196650     1.3090330     0.1828770
  H       -2.9395310    -0.6342920    -1.3325490
  H       -3.8284810    -0.7404210     0.1934590
  H       -2.3959700    -1.7495570    -0.0705440
  H       -0.5396145     0.6256469    -1.3374576
  H        0.6030990    -0.0751360     1.4392450
  H        1.7772940     0.3293450    -1.4382350
units angstrom
no_reorient  #important for SAPT in psi4, default
symmetry c1  #important for SAPT in psi4, default
}

set PROPERTIES_ORIGIN ["COM"]
properties('MP2/aug-cc-pvtz', properties = ['dipole'])
--------------------------------------------------------------------------

    Molecular point group: c1
  Charge       = 0
  Multiplicity = 1
  Basis Set: AUG-CC-PVTZ
    Blend: AUG-CC-PVTZ
  Basis Set: (AUG-CC-PVTZ AUX)
    Blend: AUG-CC-PVTZ-JKFIT

    Orbital Energies [Eh]
    ---------------------

    Doubly Occupied:

       1A    -20.549090     2A    -11.331656     3A    -11.274798
       4A    -11.250437     5A    -11.245235     6A    -11.235498
       7A     -1.373167     8A     -1.116710     9A     -1.032163
      10A     -0.905992    11A     -0.817170    12A     -0.781116
      13A     -0.679562    14A     -0.649476    15A     -0.615995
      16A     -0.606875    17A     -0.559179    18A     -0.546307
      19A     -0.526722    20A     -0.516866    21A     -0.505858
      22A     -0.424060    23A     -0.380909

  @DF-RHF Final Energy:  -268.93543752831380

   => Energetics <=

    Nuclear Repulsion Energy =            210.0387986432029663
    One-Electron Energy =                -780.0987928031731826
    Two-Electron Energy =                 301.1245566316563895
    Total Energy =                       -268.9354375283137983
  Basis Set: (AUG-CC-PVTZ AUX)
    Blend: AUG-CC-PVTZ-RI
    Molecular point group: c1

    Geometry (in Angstrom), charge = 0, multiplicity = 1:

       Center              X                  Y                   Z               Mass
    ------------   -----------------  -----------------  -----------------  -----------------
         O            2.937754790280    -0.069190342980     0.183812084259    15.994914619570
         C           -1.943795209720     0.332381657020     0.343492084259    12.000000000000
         C           -2.830319209720    -0.764328342980    -0.252122915741    12.000000000000
         C           -0.586036209720     0.341177657020    -0.279080915741    12.000000000000
         C            0.569645790280     0.117443657020     0.368865084259    12.000000000000
         C            1.848511790280     0.128304657020    -0.347327915741    12.000000000000
         H           -1.850937209720     0.196397657020     1.426090084259     1.007825032230
         H           -2.419763209720     1.307857657020     0.182662084259     1.007825032230
         H           -2.939629209720    -0.635467342980    -1.332763915741     1.007825032230
         H           -3.828579209720    -0.741596342980     0.193244084259     1.007825032230
         H           -2.396068209720    -1.750732342980    -0.070758915741     1.007825032230
         H           -0.539712709720     0.624471557020    -1.337672515741     1.007825032230
         H            0.603000790280    -0.076311342980     1.439030084259     1.007825032230
         H            1.777195790280     0.328169657020    -1.438449915741     1.007825032230

  Basis Set: AUG-CC-PVTZ
    Blend: AUG-CC-PVTZ
  Basis Set: (AUG-CC-PVTZ AUX)
    Blend: AUG-CC-PVTZ-JKFIT
	 Reference Energy          =    -268.9354375283137983 [Eh]
	 Singles Energy            =      -0.0000000000000000 [Eh]
	 Same-Spin Energy          =      -0.2694333569765672 [Eh]
	 Opposite-Spin Energy      =      -0.9139841210584744 [Eh]
	 Correlation Energy        =      -1.1834174780350417 [Eh]
	 Total Energy              =    -270.1188550063488378 [Eh]

	 ================> DF-SCS-MP2 Energies <==================
	-----------------------------------------------------------
	 SCS Same-Spin Scale       =       0.3333333333333333 [-]
	 SCS Opposite-Spin Scale   =       1.2000000000000000 [-]
	 SCS Same-Spin Energy      =      -0.0898111189921891 [Eh]
	 SCS Opposite-Spin Energy  =      -1.0967809452701691 [Eh]
	 SCS Correlation Energy    =      -1.1865920642623582 [Eh]
	 SCS Total Energy          =    -270.1220295925761548 [Eh]
	-----------------------------------------------------------

  Dipole Moment: [D]
     X:    -3.9345      Y:     0.4655      Z:    -0.7582     Total:     4.0339

*** Psi4 exiting successfully. Buy a developer a beer!
