                               Psi4 1.3.2 release

  ==> Input File <==

--------------------------------------------------------------------------
#psi4
#
memory 32 gb

molecule  {
0 1
  O        2.9378530    -0.0680150     0.1840270
  C       -1.9436970     0.3335570     0.3437070
  C       -2.8302210    -0.7631530    -0.2519080
  C       -0.5859380     0.3423530    -0.2788660
  C        0.5697440     0.1186190     0.3690800
  C        1.8486100     0.1294800    -0.3471130
  H       -1.8508390     0.1975730     1.4263050
  H       -2.4196650     1.3090330     0.1828770
  H       -2.9395310    -0.6342920    -1.3325490
  H       -3.8284810    -0.7404210     0.1934590
  H       -2.3959700    -1.7495570    -0.0705440
  H       -0.5478170     0.5276110    -1.3553930
  H        0.6030990    -0.0751360     1.4392450
  H        1.7545582     0.0842582    -1.4820020
units angstrom
no_reorient  #important for SAPT in psi4, default
symmetry c1  #important for SAPT in psi4, default
}

set PROPERTIES_ORIGIN ["COM"]
properties('MP2/aug-cc-pvtz', properties = ['dipole'])
--------------------------------------------------------------------------

    Molecular point group: c1
  Charge       = 0
  Multiplicity = 1
  Basis Set: AUG-CC-PVTZ
    Blend: AUG-CC-PVTZ
  Basis Set: (AUG-CC-PVTZ AUX)
    Blend: AUG-CC-PVTZ-JKFIT

    Orbital Energies [Eh]
    ---------------------

    Doubly Occupied:

       1A    -20.550391     2A    -11.334648     3A    -11.274341
       4A    -11.250503     5A    -11.245665     6A    -11.235643
       7A     -1.374025     8A     -1.116853     9A     -1.032069
      10A     -0.905425    11A     -0.815928    12A     -0.778504
      13A     -0.677526    14A     -0.649640    15A     -0.616177
      16A     -0.606580    17A     -0.558793    18A     -0.546388
      19A     -0.527171    20A     -0.516444    21A     -0.506864
      22A     -0.422723    23A     -0.380900

  @DF-RHF Final Energy:  -268.93202769623014

   => Energetics <=

    Nuclear Repulsion Energy =            209.9846036531085645
    One-Electron Energy =                -779.9868598301961811
    Two-Electron Energy =                 301.0702284808574518
    Total Energy =                       -268.9320276962301364
  Basis Set: (AUG-CC-PVTZ AUX)
    Blend: AUG-CC-PVTZ-RI
    Molecular point group: c1

    Geometry (in Angstrom), charge = 0, multiplicity = 1:

       Center              X                  Y                   Z               Mass
    ------------   -----------------  -----------------  -----------------  -----------------
         O            2.938125731453    -0.065076402106     0.184551877998    15.994914619570
         C           -1.943424268547     0.336495597894     0.344231877998    12.000000000000
         C           -2.829948268547    -0.760214402106    -0.251383122002    12.000000000000
         C           -0.585665268547     0.345291597894    -0.278341122002    12.000000000000
         C            0.570016731453     0.121557597894     0.369604877998    12.000000000000
         C            1.848882731453     0.132418597894    -0.346588122002    12.000000000000
         H           -1.850566268547     0.200511597894     1.426829877998     1.007825032230
         H           -2.419392268547     1.311971597894     0.183401877998     1.007825032230
         H           -2.939258268547    -0.631353402106    -1.332024122002     1.007825032230
         H           -3.828208268547    -0.737482402106     0.193983877998     1.007825032230
         H           -2.395697268547    -1.746618402106    -0.070019122002     1.007825032230
         H           -0.547544268547     0.530549597894    -1.354868122002     1.007825032230
         H            0.603371731453    -0.072197402106     1.439769877998     1.007825032230
         H            1.754830931453     0.087196797894    -1.481477122002     1.007825032230

  Basis Set: AUG-CC-PVTZ
    Blend: AUG-CC-PVTZ
  Basis Set: (AUG-CC-PVTZ AUX)
    Blend: AUG-CC-PVTZ-JKFIT
	 Reference Energy          =    -268.9320276962301364 [Eh]
	 Singles Energy            =      -0.0000000000000000 [Eh]
	 Same-Spin Energy          =      -0.2696551227980895 [Eh]
	 Opposite-Spin Energy      =      -0.9144287688240160 [Eh]
	 Correlation Energy        =      -1.1840838916221055 [Eh]
	 Total Energy              =    -270.1161115878522310 [Eh]

	 ================> DF-SCS-MP2 Energies <==================
	-----------------------------------------------------------
	 SCS Same-Spin Scale       =       0.3333333333333333 [-]
	 SCS Opposite-Spin Scale   =       1.2000000000000000 [-]
	 SCS Same-Spin Energy      =      -0.0898850409326965 [Eh]
	 SCS Opposite-Spin Energy  =      -1.0973145225888192 [Eh]
	 SCS Correlation Energy    =      -1.1871995635215158 [Eh]
	 SCS Total Energy          =    -270.1192272597516535 [Eh]
	-----------------------------------------------------------

  Dipole Moment: [D]
     X:    -3.9424      Y:     0.3096      Z:    -0.7361     Total:     4.0225

*** Psi4 exiting successfully. Buy a developer a beer!
