                               Psi4 1.3.2 release

  ==> Input File <==

--------------------------------------------------------------------------
#psi4
#
memory 32 gb

molecule  {
0 1
  O        2.9378530    -0.0680150     0.1840270
  C       -1.9436970     0.3335570     0.3437070
  C       -2.8302210    -0.7631530    -0.2519080
  C       -0.5859380     0.3423530    -0.2788660
  C        0.5697440     0.1186190     0.3690800
  C        1.8486100     0.1294800    -0.3471130
  H       -1.8508390     0.1975730     1.4263050
  H       -2.4196650     1.3090330     0.1828770
  H       -2.9395310    -0.6342920    -1.3325490
  H       -3.8284810    -0.7404210     0.1934590
  H       -2.3959700    -1.7495570    -0.0705440
  H       -0.5478170     0.5276110    -1.3553930
  H        0.5759084    -0.3692265     1.3866006
  H        1.7772940     0.3293450    -1.4382350
units angstrom
no_reorient  #important for SAPT in psi4, default
symmetry c1  #important for SAPT in psi4, default
}

set PROPERTIES_ORIGIN ["COM"]
properties('MP2/aug-cc-pvtz', properties = ['dipole'])
--------------------------------------------------------------------------

    Molecular point group: c1
  Charge       = 0
  Multiplicity = 1
  Basis Set: AUG-CC-PVTZ
    Blend: AUG-CC-PVTZ
  Basis Set: (AUG-CC-PVTZ AUX)
    Blend: AUG-CC-PVTZ-JKFIT

    Orbital Energies [Eh]
    ---------------------

    Doubly Occupied:

       1A    -20.549140     2A    -11.331753     3A    -11.275556
       4A    -11.250745     5A    -11.248825     6A    -11.236089
       7A     -1.373103     8A     -1.116940     9A     -1.031964
      10A     -0.906231    11A     -0.818017    12A     -0.776430
      13A     -0.679859    14A     -0.649005    15A     -0.613950
      16A     -0.606576    17A     -0.557061    18A     -0.546439
      19A     -0.524824    20A     -0.516945    21A     -0.506653
      22A     -0.424346    23A     -0.379687

  @DF-RHF Final Energy:  -268.92991986364837

   => Energetics <=

    Nuclear Repulsion Energy =            209.9517870011798379
    One-Electron Energy =                -779.9231381857885026
    Two-Electron Energy =                 301.0414313209603279
    Total Energy =                       -268.9299198636483652
  Basis Set: (AUG-CC-PVTZ AUX)
    Blend: AUG-CC-PVTZ-RI
    Molecular point group: c1

    Geometry (in Angstrom), charge = 0, multiplicity = 1:

       Center              X                  Y                   Z               Mass
    ------------   -----------------  -----------------  -----------------  -----------------
         O            2.938179143203    -0.064488862067     0.184658315429    15.994914619570
         C           -1.943370856797     0.337083137933     0.344338315429    12.000000000000
         C           -2.829894856797    -0.759626862067    -0.251276684571    12.000000000000
         C           -0.585611856797     0.345879137933    -0.278234684571    12.000000000000
         C            0.570070143203     0.122145137933     0.369711315429    12.000000000000
         C            1.848936143203     0.133006137933    -0.346481684571    12.000000000000
         H           -1.850512856797     0.201099137933     1.426936315429     1.007825032230
         H           -2.419338856797     1.312559137933     0.183508315429     1.007825032230
         H           -2.939204856797    -0.630765862067    -1.331917684571     1.007825032230
         H           -3.828154856797    -0.736894862067     0.194090315429     1.007825032230
         H           -2.395643856797    -1.746030862067    -0.069912684571     1.007825032230
         H           -0.547490856797     0.531137137933    -1.354761684571     1.007825032230
         H            0.576234543203    -0.365700362067     1.387231915429     1.007825032230
         H            1.777620143203     0.332871137933    -1.437603684571     1.007825032230

  Basis Set: AUG-CC-PVTZ
    Blend: AUG-CC-PVTZ
  Basis Set: (AUG-CC-PVTZ AUX)
    Blend: AUG-CC-PVTZ-JKFIT
	 Reference Energy          =    -268.9299198636483652 [Eh]
	 Singles Energy            =      -0.0000000000000000 [Eh]
	 Same-Spin Energy          =      -0.2696597768698780 [Eh]
	 Opposite-Spin Energy      =      -0.9145580637178947 [Eh]
	 Correlation Energy        =      -1.1842178405877728 [Eh]
	 Total Energy              =    -270.1141377042361569 [Eh]

	 ================> DF-SCS-MP2 Energies <==================
	-----------------------------------------------------------
	 SCS Same-Spin Scale       =       0.3333333333333333 [-]
	 SCS Opposite-Spin Scale   =       1.2000000000000000 [-]
	 SCS Same-Spin Energy      =      -0.0898865922899593 [Eh]
	 SCS Opposite-Spin Energy  =      -1.0974696764614735 [Eh]
	 SCS Correlation Energy    =      -1.1873562687514330 [Eh]
	 SCS Total Energy          =    -270.1172761323998088 [Eh]
	-----------------------------------------------------------

  Dipole Moment: [D]
     X:    -3.9721      Y:     0.2184      Z:    -0.8454     Total:     4.0669

*** Psi4 exiting successfully. Buy a developer a beer!
