                               Psi4 1.3.2 release

  ==> Input File <==

--------------------------------------------------------------------------
#psi4
#
memory 32 gb

molecule  {
0 1
  O        2.9378530    -0.0680150     0.1840270
  C       -1.9436970     0.3335570     0.3437070
  C       -2.8302210    -0.7631530    -0.2519080
  C       -0.5859380     0.3423530    -0.2788660
  C        0.5697440     0.1186190     0.3690800
  C        1.8486100     0.1294800    -0.3471130
  H       -1.8508390     0.1975730     1.4263050
  H       -2.4196650     1.3090330     0.1828770
  H       -2.9395310    -0.6342920    -1.3325490
  H       -3.8284810    -0.7404210     0.1934590
  H       -2.3959700    -1.7495570    -0.0705440
  H       -0.5478170     0.5276110    -1.3553930
  H        0.5985672    -0.1241511     1.4304709
  H        1.7772940     0.3293450    -1.4382350
units angstrom
no_reorient  #important for SAPT in psi4, default
symmetry c1  #important for SAPT in psi4, default
}

set PROPERTIES_ORIGIN ["COM"]
properties('MP2/aug-cc-pvtz', properties = ['dipole'])
--------------------------------------------------------------------------

    Molecular point group: c1
  Charge       = 0
  Multiplicity = 1
  Basis Set: AUG-CC-PVTZ
    Blend: AUG-CC-PVTZ
  Basis Set: (AUG-CC-PVTZ AUX)
    Blend: AUG-CC-PVTZ-JKFIT

    Orbital Energies [Eh]
    ---------------------

    Doubly Occupied:

       1A    -20.549024     2A    -11.331623     3A    -11.274453
       4A    -11.250504     5A    -11.245173     6A    -11.235730
       7A     -1.373107     8A     -1.116880     9A     -1.032194
      10A     -0.905948    11A     -0.817589    12A     -0.781563
      13A     -0.679605    14A     -0.649378    15A     -0.616195
      16A     -0.606660    17A     -0.558242    18A     -0.547438
      19A     -0.526526    20A     -0.516835    21A     -0.506943
      22A     -0.424020    23A     -0.380911

  @DF-RHF Final Energy:  -268.93589704750377

   => Energetics <=

    Nuclear Repulsion Energy =            210.0777579801982142
    One-Electron Energy =                -780.1742322196917030
    Two-Electron Energy =                 301.1605771919897734
    Total Energy =                       -268.9358970475037722
  Basis Set: (AUG-CC-PVTZ AUX)
    Blend: AUG-CC-PVTZ-RI
    Molecular point group: c1

    Geometry (in Angstrom), charge = 0, multiplicity = 1:

       Center              X                  Y                   Z               Mass
    ------------   -----------------  -----------------  -----------------  -----------------
         O            2.937907470815    -0.067427244475     0.184132323356    15.994914619570
         C           -1.943642529185     0.334144755525     0.343812323356    12.000000000000
         C           -2.830166529185    -0.762565244475    -0.251802676644    12.000000000000
         C           -0.585883529185     0.342940755525    -0.278760676644    12.000000000000
         C            0.569798470815     0.119206755525     0.369185323356    12.000000000000
         C            1.848664470815     0.130067755525    -0.347007676644    12.000000000000
         H           -1.850784529185     0.198160755525     1.426410323356     1.007825032230
         H           -2.419610529185     1.309620755525     0.182982323356     1.007825032230
         H           -2.939476529185    -0.633704244475    -1.332443676644     1.007825032230
         H           -3.828426529185    -0.739833244475     0.193564323356     1.007825032230
         H           -2.395915529185    -1.748969244475    -0.070438676644     1.007825032230
         H           -0.547762529185     0.528198755525    -1.355287676644     1.007825032230
         H            0.598621670815    -0.123563344475     1.430576223356     1.007825032230
         H            1.777348470815     0.329932755525    -1.438129676644     1.007825032230

  Basis Set: AUG-CC-PVTZ
    Blend: AUG-CC-PVTZ
  Basis Set: (AUG-CC-PVTZ AUX)
    Blend: AUG-CC-PVTZ-JKFIT
	 Reference Energy          =    -268.9358970475037722 [Eh]
	 Singles Energy            =      -0.0000000000000000 [Eh]
	 Same-Spin Energy          =      -0.2694234741953514 [Eh]
	 Opposite-Spin Energy      =      -0.9139075545043522 [Eh]
	 Correlation Energy        =      -1.1833310286997036 [Eh]
	 Total Energy              =    -270.1192280762034557 [Eh]

	 ================> DF-SCS-MP2 Energies <==================
	-----------------------------------------------------------
	 SCS Same-Spin Scale       =       0.3333333333333333 [-]
	 SCS Opposite-Spin Scale   =       1.2000000000000000 [-]
	 SCS Same-Spin Energy      =      -0.0898078247317838 [Eh]
	 SCS Opposite-Spin Energy  =      -1.0966890654052226 [Eh]
	 SCS Correlation Energy    =      -1.1864968901370063 [Eh]
	 SCS Total Energy          =    -270.1223939376407657 [Eh]
	-----------------------------------------------------------

  Dipole Moment: [D]
     X:    -3.9510      Y:     0.3735      Z:    -0.7771     Total:     4.0440

*** Psi4 exiting successfully. Buy a developer a beer!
