                               Psi4 1.3.2 release

  ==> Input File <==

--------------------------------------------------------------------------
#psi4
#
memory 32 gb

molecule  {
0 1
  O        2.9378530    -0.0680150     0.1840270
  C       -1.9436970     0.3335570     0.3437070
  C       -2.8302210    -0.7631530    -0.2519080
  C       -0.5859380     0.3423530    -0.2788660
  C        0.5697440     0.1186190     0.3690800
  C        1.8486100     0.1294800    -0.3471130
  H       -1.8508390     0.1975730     1.4263050
  H       -2.4196650     1.3090330     0.1828770
  H       -2.9395310    -0.6342920    -1.3325490
  H       -3.8284810    -0.7404210     0.1934590
  H       -2.3959700    -1.7495570    -0.0705440
  H       -0.5478170     0.5276110    -1.3553930
  H        0.5895037    -0.2221813     1.4129228
  H        1.7772940     0.3293450    -1.4382350
units angstrom
no_reorient  #important for SAPT in psi4, default
symmetry c1  #important for SAPT in psi4, default
}

set PROPERTIES_ORIGIN ["COM"]
properties('MP2/aug-cc-pvtz', properties = ['dipole'])
--------------------------------------------------------------------------

    Molecular point group: c1
  Charge       = 0
  Multiplicity = 1
  Basis Set: AUG-CC-PVTZ
    Blend: AUG-CC-PVTZ
  Basis Set: (AUG-CC-PVTZ AUX)
    Blend: AUG-CC-PVTZ-JKFIT

    Orbital Energies [Eh]
    ---------------------

    Doubly Occupied:

       1A    -20.549054     2A    -11.331653     3A    -11.274699
       4A    -11.250559     5A    -11.246033     6A    -11.235822
       7A     -1.373108     8A     -1.116897     9A     -1.032137
      10A     -0.906038    11A     -0.817702    12A     -0.780295
      13A     -0.679670    14A     -0.649374    15A     -0.615373
      16A     -0.606821    17A     -0.557857    18A     -0.547484
      19A     -0.526038    20A     -0.516939    21A     -0.506897
      22A     -0.424109    23A     -0.380604

  @DF-RHF Final Energy:  -268.93464232308878

   => Energetics <=

    Nuclear Repulsion Energy =            210.0521913218364318
    One-Electron Energy =                -780.1233424834069865
    Two-Electron Energy =                 301.1365088384818023
    Total Energy =                       -268.9346423230887808
  Basis Set: (AUG-CC-PVTZ AUX)
    Blend: AUG-CC-PVTZ-RI
    Molecular point group: c1

    Geometry (in Angstrom), charge = 0, multiplicity = 1:

       Center              X                  Y                   Z               Mass
    ------------   -----------------  -----------------  -----------------  -----------------
         O            2.938016139530    -0.066251891032     0.184342719946    15.994914619570
         C           -1.943533860470     0.335320108968     0.344022719946    12.000000000000
         C           -2.830057860470    -0.761389891032    -0.251592280054    12.000000000000
         C           -0.585774860470     0.344116108968    -0.278550280054    12.000000000000
         C            0.569907139530     0.120382108968     0.369395719946    12.000000000000
         C            1.848773139530     0.131243108968    -0.346797280054    12.000000000000
         H           -1.850675860470     0.199336108968     1.426620719946     1.007825032230
         H           -2.419501860470     1.310796108968     0.183192719946     1.007825032230
         H           -2.939367860470    -0.632528891032    -1.332233280054     1.007825032230
         H           -3.828317860470    -0.738657891032     0.193774719946     1.007825032230
         H           -2.395806860470    -1.747793891032    -0.070228280054     1.007825032230
         H           -0.547653860470     0.529374108968    -1.355077280054     1.007825032230
         H            0.589666839530    -0.220418191032     1.413238519946     1.007825032230
         H            1.777457139530     0.331108108968    -1.437919280054     1.007825032230

  Basis Set: AUG-CC-PVTZ
    Blend: AUG-CC-PVTZ
  Basis Set: (AUG-CC-PVTZ AUX)
    Blend: AUG-CC-PVTZ-JKFIT
	 Reference Energy          =    -268.9346423230887808 [Eh]
	 Singles Energy            =      -0.0000000000000000 [Eh]
	 Same-Spin Energy          =      -0.2694766343893932 [Eh]
	 Opposite-Spin Energy      =      -0.9140475541682753 [Eh]
	 Correlation Energy        =      -1.1835241885576684 [Eh]
	 Total Energy              =    -270.1181665116464501 [Eh]

	 ================> DF-SCS-MP2 Energies <==================
	-----------------------------------------------------------
	 SCS Same-Spin Scale       =       0.3333333333333333 [-]
	 SCS Opposite-Spin Scale   =       1.2000000000000000 [-]
	 SCS Same-Spin Energy      =      -0.0898255447964644 [Eh]
	 SCS Opposite-Spin Energy  =      -1.0968570650019303 [Eh]
	 SCS Correlation Energy    =      -1.1866826097983947 [Eh]
	 SCS Total Energy          =    -270.1213249328871484 [Eh]
	-----------------------------------------------------------

  Dipole Moment: [D]
     X:    -3.9586      Y:     0.3091      Z:    -0.7979     Total:     4.0500

*** Psi4 exiting successfully. Buy a developer a beer!
