                               Psi4 1.3.2 release

  ==> Input File <==

--------------------------------------------------------------------------
#psi4
#
memory 32 gb

molecule  {
0 1
  O        2.9378530    -0.0680150     0.1840270
  C       -1.9436970     0.3335570     0.3437070
  C       -2.8302210    -0.7631530    -0.2519080
  C       -0.5859380     0.3423530    -0.2788660
  C        0.5697440     0.1186190     0.3690800
  C        1.8486100     0.1294800    -0.3471130
  H       -1.8508390     0.1975730     1.4263050
  H       -2.4196650     1.3090330     0.1828770
  H       -2.9395310    -0.6342920    -1.3325490
  H       -3.8284810    -0.7404210     0.1934590
  H       -2.3959700    -1.7495570    -0.0705440
  H       -0.5478170     0.5276110    -1.3553930
  H        0.6030990    -0.0751360     1.4392450
  H        1.7727468     0.2803276    -1.4469884
units angstrom
no_reorient  #important for SAPT in psi4, default
symmetry c1  #important for SAPT in psi4, default
}

set PROPERTIES_ORIGIN ["COM"]
properties('MP2/aug-cc-pvtz', properties = ['dipole'])
--------------------------------------------------------------------------

    Molecular point group: c1
  Charge       = 0
  Multiplicity = 1
  Basis Set: AUG-CC-PVTZ
    Blend: AUG-CC-PVTZ
  Basis Set: (AUG-CC-PVTZ AUX)
    Blend: AUG-CC-PVTZ-JKFIT

    Orbital Energies [Eh]
    ---------------------

    Doubly Occupied:

       1A    -20.549077     2A    -11.331745     3A    -11.274426
       4A    -11.250500     5A    -11.245087     6A    -11.235700
       7A     -1.373145     8A     -1.116872     9A     -1.032194
      10A     -0.905896    11A     -0.817474    12A     -0.781598
      13A     -0.679514    14A     -0.649298    15A     -0.616440
      16A     -0.606609    17A     -0.558354    18A     -0.547092
      19A     -0.526820    20A     -0.516725    21A     -0.506936
      22A     -0.423949    23A     -0.380959

  @DF-RHF Final Energy:  -268.93588032293201

   => Energetics <=

    Nuclear Repulsion Energy =            210.0753250563317067
    One-Electron Energy =                -780.1695876168512314
    Two-Electron Energy =                 301.1583822375874888
    Total Energy =                       -268.9358803229320074
  Basis Set: (AUG-CC-PVTZ AUX)
    Blend: AUG-CC-PVTZ-RI
    Molecular point group: c1

    Geometry (in Angstrom), charge = 0, multiplicity = 1:

       Center              X                  Y                   Z               Mass
    ------------   -----------------  -----------------  -----------------  -----------------
         O            2.937907655456    -0.067427216898     0.184132075169    15.994914619570
         C           -1.943642344544     0.334144783102     0.343812075169    12.000000000000
         C           -2.830166344544    -0.762565216898    -0.251802924831    12.000000000000
         C           -0.585883344544     0.342940783102    -0.278760924831    12.000000000000
         C            0.569798655456     0.119206783102     0.369185075169    12.000000000000
         C            1.848664655456     0.130067783102    -0.347007924831    12.000000000000
         H           -1.850784344544     0.198160783102     1.426410075169     1.007825032230
         H           -2.419610344544     1.309620783102     0.182982075169     1.007825032230
         H           -2.939476344544    -0.633704216898    -1.332443924831     1.007825032230
         H           -3.828426344544    -0.739833216898     0.193564075169     1.007825032230
         H           -2.395915344544    -1.748969216898    -0.070438924831     1.007825032230
         H           -0.547762344544     0.528198783102    -1.355287924831     1.007825032230
         H            0.603153655456    -0.074548216898     1.439350075169     1.007825032230
         H            1.772801455456     0.280915383102    -1.446883324831     1.007825032230

  Basis Set: AUG-CC-PVTZ
    Blend: AUG-CC-PVTZ
  Basis Set: (AUG-CC-PVTZ AUX)
    Blend: AUG-CC-PVTZ-JKFIT
	 Reference Energy          =    -268.9358803229320074 [Eh]
	 Singles Energy            =      -0.0000000000000000 [Eh]
	 Same-Spin Energy          =      -0.2694285112904527 [Eh]
	 Opposite-Spin Energy      =      -0.9139164508508542 [Eh]
	 Correlation Energy        =      -1.1833449621413068 [Eh]
	 Total Energy              =    -270.1192252850732984 [Eh]

	 ================> DF-SCS-MP2 Energies <==================
	-----------------------------------------------------------
	 SCS Same-Spin Scale       =       0.3333333333333333 [-]
	 SCS Opposite-Spin Scale   =       1.2000000000000000 [-]
	 SCS Same-Spin Energy      =      -0.0898095037634842 [Eh]
	 SCS Opposite-Spin Energy  =      -1.0966997410210249 [Eh]
	 SCS Correlation Energy    =      -1.1865092447845091 [Eh]
	 SCS Total Energy          =    -270.1223895677165387 [Eh]
	-----------------------------------------------------------

  Dipole Moment: [D]
     X:    -3.9488      Y:     0.3878      Z:    -0.7713     Total:     4.0421

*** Psi4 exiting successfully. Buy a developer a beer!
