                               Psi4 1.3.2 release

  ==> Input File <==

--------------------------------------------------------------------------
#psi4
#
memory 32 gb

molecule  {
0 1
  O        2.9378530    -0.0680150     0.1840270
  C       -1.9436970     0.3335570     0.3437070
  C       -2.8302210    -0.7631530    -0.2519080
  C       -0.5859380     0.3423530    -0.2788660
  C        0.5697440     0.1186190     0.3690800
  C        1.8486100     0.1294800    -0.3471130
  H       -1.8508390     0.1975730     1.4263050
  H       -2.4196650     1.3090330     0.1828770
  H       -2.9395310    -0.6342920    -1.3325490
  H       -3.8284810    -0.7404210     0.1934590
  H       -2.3959700    -1.7495570    -0.0705440
  H       -0.5478170     0.5276110    -1.3553930
  H        0.6030990    -0.0751360     1.4392450
  H        1.7681997     0.2313103    -1.4557418
units angstrom
no_reorient  #important for SAPT in psi4, default
symmetry c1  #important for SAPT in psi4, default
}

set PROPERTIES_ORIGIN ["COM"]
properties('MP2/aug-cc-pvtz', properties = ['dipole'])
--------------------------------------------------------------------------

    Molecular point group: c1
  Charge       = 0
  Multiplicity = 1
  Basis Set: AUG-CC-PVTZ
    Blend: AUG-CC-PVTZ
  Basis Set: (AUG-CC-PVTZ AUX)
    Blend: AUG-CC-PVTZ-JKFIT

    Orbital Energies [Eh]
    ---------------------

    Doubly Occupied:

       1A    -20.549245     2A    -11.332117     3A    -11.274414
       4A    -11.250502     5A    -11.245161     6A    -11.235688
       7A     -1.373257     8A     -1.116869     9A     -1.032175
      10A     -0.905834    11A     -0.817247    12A     -0.781204
      13A     -0.679266    14A     -0.649335    15A     -0.616371
      16A     -0.606668    17A     -0.558382    18A     -0.546959
      19A     -0.526938    20A     -0.516670    21A     -0.506922
      22A     -0.423798    23A     -0.380952

  @DF-RHF Final Energy:  -268.93541684070863

   => Energetics <=

    Nuclear Repulsion Energy =            210.0648662024018165
    One-Electron Energy =                -780.1486194218264245
    Two-Electron Energy =                 301.1483363787159533
    Total Energy =                       -268.9354168407086263
  Basis Set: (AUG-CC-PVTZ AUX)
    Blend: AUG-CC-PVTZ-RI
    Molecular point group: c1

    Geometry (in Angstrom), charge = 0, multiplicity = 1:

       Center              X                  Y                   Z               Mass
    ------------   -----------------  -----------------  -----------------  -----------------
         O            2.937962173856    -0.066839513800     0.184237025876    15.994914619570
         C           -1.943587826144     0.334732486200     0.343917025876    12.000000000000
         C           -2.830111826144    -0.761977513800    -0.251697974124    12.000000000000
         C           -0.585828826144     0.343528486200    -0.278655974124    12.000000000000
         C            0.569853173856     0.119794486200     0.369290025876    12.000000000000
         C            1.848719173856     0.130655486200    -0.346902974124    12.000000000000
         H           -1.850729826144     0.198748486200     1.426515025876     1.007825032230
         H           -2.419555826144     1.310208486200     0.183087025876     1.007825032230
         H           -2.939421826144    -0.633116513800    -1.332338974124     1.007825032230
         H           -3.828371826144    -0.739245513800     0.193669025876     1.007825032230
         H           -2.395860826144    -1.748381513800    -0.070333974124     1.007825032230
         H           -0.547707826144     0.528786486200    -1.355182974124     1.007825032230
         H            0.603208173856    -0.073960513800     1.439455025876     1.007825032230
         H            1.768308873856     0.232485786200    -1.455531774124     1.007825032230

  Basis Set: AUG-CC-PVTZ
    Blend: AUG-CC-PVTZ
  Basis Set: (AUG-CC-PVTZ AUX)
    Blend: AUG-CC-PVTZ-JKFIT
	 Reference Energy          =    -268.9354168407086263 [Eh]
	 Singles Energy            =      -0.0000000000000000 [Eh]
	 Same-Spin Energy          =      -0.2694573149890799 [Eh]
	 Opposite-Spin Energy      =      -0.9139776986298087 [Eh]
	 Correlation Energy        =      -1.1834350136188885 [Eh]
	 Total Energy              =    -270.1188518543274881 [Eh]

	 ================> DF-SCS-MP2 Energies <==================
	-----------------------------------------------------------
	 SCS Same-Spin Scale       =       0.3333333333333333 [-]
	 SCS Opposite-Spin Scale   =       1.2000000000000000 [-]
	 SCS Same-Spin Energy      =      -0.0898191049963599 [Eh]
	 SCS Opposite-Spin Energy  =      -1.0967732383557705 [Eh]
	 SCS Correlation Energy    =      -1.1865923433521304 [Eh]
	 SCS Total Energy          =    -270.1220091840607438 [Eh]
	-----------------------------------------------------------

  Dipole Moment: [D]
     X:    -3.9488      Y:     0.3685      Z:    -0.7685     Total:     4.0397

*** Psi4 exiting successfully. Buy a developer a beer!
