                               Psi4 1.3.2 release

  ==> Input File <==

--------------------------------------------------------------------------
#psi4
#
memory 32 gb

molecule  {
0 1
  O        2.9378530    -0.0680150     0.1840270
  C       -1.9436970     0.3335570     0.3437070
  C       -2.8302210    -0.7631530    -0.2519080
  C       -0.5859380     0.3423530    -0.2788660
  C        0.5697440     0.1186190     0.3690800
  C        1.8486100     0.1294800    -0.3471130
  H       -1.8508390     0.1975730     1.4263050
  H       -2.4196650     1.3090330     0.1828770
  H       -2.9395310    -0.6342920    -1.3325490
  H       -3.8284810    -0.7404210     0.1934590
  H       -2.3959700    -1.7495570    -0.0705440
  H       -0.5478170     0.5276110    -1.3553930
  H        0.6030990    -0.0751360     1.4392450
  H        1.7500111     0.0352408    -1.4907554
units angstrom
no_reorient  #important for SAPT in psi4, default
symmetry c1  #important for SAPT in psi4, default
}

set PROPERTIES_ORIGIN ["COM"]
properties('MP2/aug-cc-pvtz', properties = ['dipole'])
--------------------------------------------------------------------------

    Molecular point group: c1
  Charge       = 0
  Multiplicity = 1
  Basis Set: AUG-CC-PVTZ
    Blend: AUG-CC-PVTZ
  Basis Set: (AUG-CC-PVTZ AUX)
    Blend: AUG-CC-PVTZ-JKFIT

    Orbital Energies [Eh]
    ---------------------

    Doubly Occupied:

       1A    -20.550987     2A    -11.335940     3A    -11.274313
       4A    -11.250506     5A    -11.245929     6A    -11.235629
       7A     -1.374425     8A     -1.116851     9A     -1.032026
      10A     -0.905242    11A     -0.815376    12A     -0.777139
      13A     -0.676631    14A     -0.649807    15A     -0.616127
      16A     -0.606441    17A     -0.559024    18A     -0.546157
      19A     -0.527227    20A     -0.516351    21A     -0.506844
      22A     -0.422150    23A     -0.380866

  @DF-RHF Final Energy:  -268.93012872596182

   => Energetics <=

    Nuclear Repulsion Energy =            209.9427844312456841
    One-Electron Energy =                -779.9018481368556195
    Two-Electron Energy =                 301.0289349796480565
    Total Energy =                       -268.9301287259618221
  Basis Set: (AUG-CC-PVTZ AUX)
    Blend: AUG-CC-PVTZ-RI
    Molecular point group: c1

    Geometry (in Angstrom), charge = 0, multiplicity = 1:

       Center              X                  Y                   Z               Mass
    ------------   -----------------  -----------------  -----------------  -----------------
         O            2.938180249853    -0.064488697808     0.184656828705    15.994914619570
         C           -1.943369750147     0.337083302192     0.344336828705    12.000000000000
         C           -2.829893750147    -0.759626697808    -0.251278171295    12.000000000000
         C           -0.585610750147     0.345879302192    -0.278236171295    12.000000000000
         C            0.570071249853     0.122145302192     0.369709828705    12.000000000000
         C            1.848937249853     0.133006302192    -0.346483171295    12.000000000000
         H           -1.850511750147     0.201099302192     1.426934828705     1.007825032230
         H           -2.419337750147     1.312559302192     0.183506828705     1.007825032230
         H           -2.939203750147    -0.630765697808    -1.331919171295     1.007825032230
         H           -3.828153750147    -0.736894697808     0.194088828705     1.007825032230
         H           -2.395642750147    -1.746030697808    -0.069914171295     1.007825032230
         H           -0.547489750147     0.531137302192    -1.354763171295     1.007825032230
         H            0.603426249853    -0.071609697808     1.439874828705     1.007825032230
         H            1.750338349853     0.038767102192    -1.490125571295     1.007825032230

  Basis Set: AUG-CC-PVTZ
    Blend: AUG-CC-PVTZ
  Basis Set: (AUG-CC-PVTZ AUX)
    Blend: AUG-CC-PVTZ-JKFIT
	 Reference Energy          =    -268.9301287259618221 [Eh]
	 Singles Energy            =      -0.0000000000000000 [Eh]
	 Same-Spin Energy          =      -0.2697579049075258 [Eh]
	 Opposite-Spin Energy      =      -0.9146780418991440 [Eh]
	 Correlation Energy        =      -1.1844359468066699 [Eh]
	 Total Energy              =    -270.1145646727684948 [Eh]

	 ================> DF-SCS-MP2 Energies <==================
	-----------------------------------------------------------
	 SCS Same-Spin Scale       =       0.3333333333333333 [-]
	 SCS Opposite-Spin Scale   =       1.2000000000000000 [-]
	 SCS Same-Spin Energy      =      -0.0899193016358419 [Eh]
	 SCS Opposite-Spin Energy  =      -1.0976136502789728 [Eh]
	 SCS Correlation Energy    =      -1.1875329519148148 [Eh]
	 SCS Total Energy          =    -270.1176616778766402 [Eh]
	-----------------------------------------------------------

  Dipole Moment: [D]
     X:    -3.9384      Y:     0.2906      Z:    -0.7171     Total:     4.0137

*** Psi4 exiting successfully. Buy a developer a beer!
