                               Psi4 1.3.2 release

  ==> Input File <==

--------------------------------------------------------------------------
#psi4
#
memory 32 gb

molecule  {
0 1
  N       -0.1927630    -0.9977240    -0.0000150
  C        1.5548850     0.6585710    -0.0000200
  C        2.5204250    -0.2331670     0.7472870
  C        2.5204490    -0.2332040    -0.7472480
  C        0.1136930     0.3165400    -0.0000200
  C       -0.8720476     1.3127960     0.1499860
  C       -2.2145020     0.9424750     0.0000090
  C       -1.4919940    -1.3393890    -0.0000040
  C       -2.5359710    -0.4146030     0.0000120
  H        1.7762130     1.7233350    -0.0000520
  H        2.0808840    -1.0925120     1.2420040
  H        3.3438860     0.2425840     1.2704470
  H        3.3439250     0.2425520    -1.2703830
  H        2.0809520    -1.0925710    -1.2419630
  H       -0.5837830     2.3612850    -0.0000220
  H       -2.9953690     1.6993840     0.0000210
  H       -1.6982570    -2.4088260    -0.0000060
  H       -3.5687280    -0.7512850     0.0000410
units angstrom
no_reorient  #important for SAPT in psi4, default
symmetry c1  #important for SAPT in psi4, default
}

set PROPERTIES_ORIGIN ["COM"]
properties('MP2/aug-cc-pvtz', properties = ['dipole'])
--------------------------------------------------------------------------

    Molecular point group: c1
  Charge       = 0
  Multiplicity = 1
  Basis Set: AUG-CC-PVTZ
    Blend: AUG-CC-PVTZ
  Basis Set: (AUG-CC-PVTZ AUX)
    Blend: AUG-CC-PVTZ-JKFIT

    Orbital Energies [Eh]
    ---------------------

    Doubly Occupied:

       1A    -15.558229     2A    -11.283930     3A    -11.276036
       4A    -11.260008     5A    -11.237232     6A    -11.234642
       7A    -11.234122     8A    -11.224440     9A    -11.223534
      10A     -1.254386    11A     -1.142917    12A     -1.080909
      13A     -1.028489    14A     -0.883211    15A     -0.853672
      16A     -0.817446    17A     -0.786338    18A     -0.707540
      19A     -0.670739    20A     -0.648310    21A     -0.631045
      22A     -0.607299    23A     -0.572917    24A     -0.548657
      25A     -0.540718    26A     -0.508311    27A     -0.504108
      28A     -0.436354    29A     -0.430571    30A     -0.409736
      31A     -0.377140    32A     -0.323083

  @DF-RHF Final Energy:  -362.71779880695988

   => Energetics <=

    Nuclear Repulsion Energy =            408.9754612477818227
    One-Electron Energy =               -1300.7943841482185690
    Two-Electron Energy =                 529.1011240934768693
    Total Energy =                       -362.7177988069598769
  Basis Set: (AUG-CC-PVTZ AUX)
    Blend: AUG-CC-PVTZ-RI
    Molecular point group: c1

    Geometry (in Angstrom), charge = 0, multiplicity = 1:

       Center              X                  Y                   Z               Mass
    ------------   -----------------  -----------------  -----------------  -----------------
         N           -0.161263746831    -0.989999366843    -0.015130887627    14.003074004430
         C            1.586384253169     0.666295633157    -0.015135887627    12.000000000000
         C            2.551924253169    -0.225442366843     0.732171112373    12.000000000000
         C            2.551948253169    -0.225479366843    -0.762363887627    12.000000000000
         C            0.145192253169     0.324264633157    -0.015135887627    12.000000000000
         C           -0.840548346831     1.320520633157     0.134870112373    12.000000000000
         C           -2.183002746831     0.950199633157    -0.015106887627    12.000000000000
         C           -1.460494746831    -1.331664366843    -0.015119887627    12.000000000000
         C           -2.504471746831    -0.406878366843    -0.015103887627    12.000000000000
         H            1.807712253169     1.731059633157    -0.015167887627     1.007825032230
         H            2.112383253169    -1.084787366843     1.226888112373     1.007825032230
         H            3.375385253169     0.250308633157     1.255331112373     1.007825032230
         H            3.375424253169     0.250276633157    -1.285498887627     1.007825032230
         H            2.112451253169    -1.084846366843    -1.257078887627     1.007825032230
         H           -0.552283746831     2.369009633157    -0.015137887627     1.007825032230
         H           -2.963869746831     1.707108633157    -0.015094887627     1.007825032230
         H           -1.666757746831    -2.401101366843    -0.015121887627     1.007825032230
         H           -3.537228746831    -0.743560366843    -0.015074887627     1.007825032230

  Basis Set: AUG-CC-PVTZ
    Blend: AUG-CC-PVTZ
  Basis Set: (AUG-CC-PVTZ AUX)
    Blend: AUG-CC-PVTZ-JKFIT
	 Reference Energy          =    -362.7177988069598769 [Eh]
	 Singles Energy            =      -0.0000000000000000 [Eh]
	 Same-Spin Energy          =      -0.4018147013712212 [Eh]
	 Opposite-Spin Energy      =      -1.2754523233968080 [Eh]
	 Correlation Energy        =      -1.6772670247680292 [Eh]
	 Total Energy              =    -364.3950658317278908 [Eh]

	 ================> DF-SCS-MP2 Energies <==================
	-----------------------------------------------------------
	 SCS Same-Spin Scale       =       0.3333333333333333 [-]
	 SCS Opposite-Spin Scale   =       1.2000000000000000 [-]
	 SCS Same-Spin Energy      =      -0.1339382337904071 [Eh]
	 SCS Opposite-Spin Energy  =      -1.5305427880761695 [Eh]
	 SCS Correlation Energy    =      -1.6644810218665766 [Eh]
	 SCS Total Energy          =    -364.3822798288264266 [Eh]
	-----------------------------------------------------------

  Dipole Moment: [D]
     X:    -0.9667      Y:     1.3806      Z:    -0.0541     Total:     1.6863

*** Psi4 exiting successfully. Buy a developer a beer!
