                               Psi4 1.3.2 release

  ==> Input File <==

--------------------------------------------------------------------------
#psi4
#
memory 32 gb

molecule  {
0 1
  N       -0.1927630    -0.9977240    -0.0000150
  C        1.5548850     0.6585710    -0.0000200
  C        2.5204250    -0.2331670     0.7472870
  C        2.5204490    -0.2332040    -0.7472480
  C        0.1136930     0.3165400    -0.0000200
  C       -0.8720472     1.3127961     0.2999860
  C       -2.2145020     0.9424750     0.0000090
  C       -1.4919940    -1.3393890    -0.0000040
  C       -2.5359710    -0.4146030     0.0000120
  H        1.7762130     1.7233350    -0.0000520
  H        2.0808840    -1.0925120     1.2420040
  H        3.3438860     0.2425840     1.2704470
  H        3.3439250     0.2425520    -1.2703830
  H        2.0809520    -1.0925710    -1.2419630
  H       -0.5837830     2.3612850    -0.0000220
  H       -2.9953690     1.6993840     0.0000210
  H       -1.6982570    -2.4088260    -0.0000060
  H       -3.5687280    -0.7512850     0.0000410
units angstrom
no_reorient  #important for SAPT in psi4, default
symmetry c1  #important for SAPT in psi4, default
}

set PROPERTIES_ORIGIN ["COM"]
properties('MP2/aug-cc-pvtz', properties = ['dipole'])
--------------------------------------------------------------------------

    Molecular point group: c1
  Charge       = 0
  Multiplicity = 1
  Basis Set: AUG-CC-PVTZ
    Blend: AUG-CC-PVTZ
  Basis Set: (AUG-CC-PVTZ AUX)
    Blend: AUG-CC-PVTZ-JKFIT

    Orbital Energies [Eh]
    ---------------------

    Doubly Occupied:

       1A    -15.557890     2A    -11.289566     3A    -11.279632
       4A    -11.265047     5A    -11.242050     6A    -11.234761
       7A    -11.234176     8A    -11.225611     9A    -11.224260
      10A     -1.254562    11A     -1.143774    12A     -1.078035
      13A     -1.026260    14A     -0.881604    15A     -0.852466
      16A     -0.818205    17A     -0.785267    18A     -0.706534
      19A     -0.667279    20A     -0.645386    21A     -0.629621
      22A     -0.603337    23A     -0.571232    24A     -0.549450
      25A     -0.534204    26A     -0.509020    27A     -0.502327
      28A     -0.436952    29A     -0.430689    30A     -0.408117
      31A     -0.375987    32A     -0.323212

  @DF-RHF Final Energy:  -362.69770158482390

   => Energetics <=

    Nuclear Repulsion Energy =            408.2300859637846315
    One-Electron Energy =               -1299.2825479425380308
    Two-Electron Energy =                 528.3547603939294959
    Total Energy =                       -362.6977015848239034
  Basis Set: (AUG-CC-PVTZ AUX)
    Blend: AUG-CC-PVTZ-RI
    Molecular point group: c1

    Geometry (in Angstrom), charge = 0, multiplicity = 1:

       Center              X                  Y                   Z               Mass
    ------------   -----------------  -----------------  -----------------  -----------------
         N           -0.161263787142    -0.989999376921    -0.030247601343    14.003074004430
         C            1.586384212858     0.666295623079    -0.030252601343    12.000000000000
         C            2.551924212858    -0.225442376921     0.717054398657    12.000000000000
         C            2.551948212858    -0.225479376921    -0.777480601343    12.000000000000
         C            0.145192212858     0.324264623079    -0.030252601343    12.000000000000
         C           -0.840547987142     1.320520723079     0.269753398657    12.000000000000
         C           -2.183002787142     0.950199623079    -0.030223601343    12.000000000000
         C           -1.460494787142    -1.331664376921    -0.030236601343    12.000000000000
         C           -2.504471787142    -0.406878376921    -0.030220601343    12.000000000000
         H            1.807712212858     1.731059623079    -0.030284601343     1.007825032230
         H            2.112383212858    -1.084787376921     1.211771398657     1.007825032230
         H            3.375385212858     0.250308623079     1.240214398657     1.007825032230
         H            3.375424212858     0.250276623079    -1.300615601343     1.007825032230
         H            2.112451212858    -1.084846376921    -1.272195601343     1.007825032230
         H           -0.552283787142     2.369009623079    -0.030254601343     1.007825032230
         H           -2.963869787142     1.707108623079    -0.030211601343     1.007825032230
         H           -1.666757787142    -2.401101376921    -0.030238601343     1.007825032230
         H           -3.537228787142    -0.743560376921    -0.030191601343     1.007825032230

  Basis Set: AUG-CC-PVTZ
    Blend: AUG-CC-PVTZ
  Basis Set: (AUG-CC-PVTZ AUX)
    Blend: AUG-CC-PVTZ-JKFIT
	 Reference Energy          =    -362.6977015848239034 [Eh]
	 Singles Energy            =      -0.0000000000000000 [Eh]
	 Same-Spin Energy          =      -0.4023752075891797 [Eh]
	 Opposite-Spin Energy      =      -1.2777147228357850 [Eh]
	 Correlation Energy        =      -1.6800899304249648 [Eh]
	 Total Energy              =    -364.3777915152488731 [Eh]

	 ================> DF-SCS-MP2 Energies <==================
	-----------------------------------------------------------
	 SCS Same-Spin Scale       =       0.3333333333333333 [-]
	 SCS Opposite-Spin Scale   =       1.2000000000000000 [-]
	 SCS Same-Spin Energy      =      -0.1341250691963932 [Eh]
	 SCS Opposite-Spin Energy  =      -1.5332576674029419 [Eh]
	 SCS Correlation Energy    =      -1.6673827365993352 [Eh]
	 SCS Total Energy          =    -364.3650843214232395 [Eh]
	-----------------------------------------------------------

  Dipole Moment: [D]
     X:    -0.9477      Y:     1.2466      Z:    -0.1170     Total:     1.5703

*** Psi4 exiting successfully. Buy a developer a beer!
