                               Psi4 1.3.2 release

  ==> Input File <==

--------------------------------------------------------------------------
#psi4
#
memory 32 gb

molecule  {
0 1
  N       -0.1927630    -0.9977240    -0.0000150
  C        1.5548850     0.6585710    -0.0000200
  C        2.5204250    -0.2331670     0.7472870
  C        2.5204490    -0.2332040    -0.7472480
  C        0.1136930     0.3165400    -0.0000200
  C       -0.8720479     1.3127960     0.0499860
  C       -2.2145020     0.9424750     0.0000090
  C       -1.4919940    -1.3393890    -0.0000040
  C       -2.5359710    -0.4146030     0.0000120
  H        1.7762130     1.7233350    -0.0000520
  H        2.0808840    -1.0925120     1.2420040
  H        3.3438860     0.2425840     1.2704470
  H        3.3439250     0.2425520    -1.2703830
  H        2.0809520    -1.0925710    -1.2419630
  H       -0.5837830     2.3612850    -0.0000220
  H       -2.9953690     1.6993840     0.0000210
  H       -1.6982570    -2.4088260    -0.0000060
  H       -3.5687280    -0.7512850     0.0000410
units angstrom
no_reorient  #important for SAPT in psi4, default
symmetry c1  #important for SAPT in psi4, default
}

set PROPERTIES_ORIGIN ["COM"]
properties('MP2/aug-cc-pvtz', properties = ['dipole'])
--------------------------------------------------------------------------

    Molecular point group: c1
  Charge       = 0
  Multiplicity = 1
  Basis Set: AUG-CC-PVTZ
    Blend: AUG-CC-PVTZ
  Basis Set: (AUG-CC-PVTZ AUX)
    Blend: AUG-CC-PVTZ-JKFIT

    Orbital Energies [Eh]
    ---------------------

    Doubly Occupied:

       1A    -15.558380     2A    -11.282182     3A    -11.274994
       4A    -11.258440     5A    -11.235717     6A    -11.234828
       7A    -11.233936     8A    -11.224069     9A    -11.223348
      10A     -1.254369    11A     -1.142669    12A     -1.081835
      13A     -1.029116    14A     -0.883767    15A     -0.854035
      16A     -0.817221    17A     -0.786728    18A     -0.708048
      19A     -0.671946    20A     -0.649460    21A     -0.631499
      22A     -0.608311    23A     -0.573418    24A     -0.547783
      25A     -0.543332    26A     -0.508073    27A     -0.504514
      28A     -0.436143    29A     -0.430548    30A     -0.410226
      31A     -0.377539    32A     -0.323094

  @DF-RHF Final Energy:  -362.72363109098114

   => Energetics <=

    Nuclear Repulsion Energy =            409.2026700348624786
    One-Electron Energy =               -1301.2534637269120594
    Two-Electron Energy =                 529.3271626010684940
    Total Energy =                       -362.7236310909811436
  Basis Set: (AUG-CC-PVTZ AUX)
    Blend: AUG-CC-PVTZ-RI
    Molecular point group: c1

    Geometry (in Angstrom), charge = 0, multiplicity = 1:

       Center              X                  Y                   Z               Mass
    ------------   -----------------  -----------------  -----------------  -----------------
         N           -0.161263716597    -0.989999366843    -0.005053078483    14.003074004430
         C            1.586384283403     0.666295633157    -0.005058078483    12.000000000000
         C            2.551924283403    -0.225442366843     0.742248921517    12.000000000000
         C            2.551948283403    -0.225479366843    -0.752286078483    12.000000000000
         C            0.145192283403     0.324264633157    -0.005058078483    12.000000000000
         C           -0.840548616597     1.320520633157     0.044947921517    12.000000000000
         C           -2.183002716597     0.950199633157    -0.005029078483    12.000000000000
         C           -1.460494716597    -1.331664366843    -0.005042078483    12.000000000000
         C           -2.504471716597    -0.406878366843    -0.005026078483    12.000000000000
         H            1.807712283403     1.731059633157    -0.005090078483     1.007825032230
         H            2.112383283403    -1.084787366843     1.236965921517     1.007825032230
         H            3.375385283403     0.250308633157     1.265408921517     1.007825032230
         H            3.375424283403     0.250276633157    -1.275421078483     1.007825032230
         H            2.112451283403    -1.084846366843    -1.247001078483     1.007825032230
         H           -0.552283716597     2.369009633157    -0.005060078483     1.007825032230
         H           -2.963869716597     1.707108633157    -0.005017078483     1.007825032230
         H           -1.666757716597    -2.401101366843    -0.005044078483     1.007825032230
         H           -3.537228716597    -0.743560366843    -0.004997078483     1.007825032230

  Basis Set: AUG-CC-PVTZ
    Blend: AUG-CC-PVTZ
  Basis Set: (AUG-CC-PVTZ AUX)
    Blend: AUG-CC-PVTZ-JKFIT
	 Reference Energy          =    -362.7236310909811436 [Eh]
	 Singles Energy            =      -0.0000000000000000 [Eh]
	 Same-Spin Energy          =      -0.4016462323932330 [Eh]
	 Opposite-Spin Energy      =      -1.2749468437276730 [Eh]
	 Correlation Energy        =      -1.6765930761209060 [Eh]
	 Total Energy              =    -364.4002241671020670 [Eh]

	 ================> DF-SCS-MP2 Energies <==================
	-----------------------------------------------------------
	 SCS Same-Spin Scale       =       0.3333333333333333 [-]
	 SCS Opposite-Spin Scale   =       1.2000000000000000 [-]
	 SCS Same-Spin Energy      =      -0.1338820774644110 [Eh]
	 SCS Opposite-Spin Energy  =      -1.5299362124732074 [Eh]
	 SCS Correlation Energy    =      -1.6638182899376184 [Eh]
	 SCS Total Energy          =    -364.3874493809187811 [Eh]
	-----------------------------------------------------------

  Dipole Moment: [D]
     X:    -0.9723      Y:     1.4210      Z:    -0.0175     Total:     1.7219

*** Psi4 exiting successfully. Buy a developer a beer!
