                               Psi4 1.3.2 release

  ==> Input File <==

--------------------------------------------------------------------------
#psi4
#
memory 32 gb

molecule  {
0 1
  N       -0.1927630    -0.9977240    -0.0000150
  C        1.5548850     0.6585710    -0.0000200
  C        2.5204250    -0.2331670     0.7472870
  C        2.5204490    -0.2332040    -0.7472480
  C        0.1136930     0.3165400    -0.0000200
  C       -0.8720475     1.3127961     0.1999860
  C       -2.2145020     0.9424750     0.0000090
  C       -1.4919940    -1.3393890    -0.0000040
  C       -2.5359710    -0.4146030     0.0000120
  H        1.7762130     1.7233350    -0.0000520
  H        2.0808840    -1.0925120     1.2420040
  H        3.3438860     0.2425840     1.2704470
  H        3.3439250     0.2425520    -1.2703830
  H        2.0809520    -1.0925710    -1.2419630
  H       -0.5837830     2.3612850    -0.0000220
  H       -2.9953690     1.6993840     0.0000210
  H       -1.6982570    -2.4088260    -0.0000060
  H       -3.5687280    -0.7512850     0.0000410
units angstrom
no_reorient  #important for SAPT in psi4, default
symmetry c1  #important for SAPT in psi4, default
}

set PROPERTIES_ORIGIN ["COM"]
properties('MP2/aug-cc-pvtz', properties = ['dipole'])
--------------------------------------------------------------------------

    Molecular point group: c1
  Charge       = 0
  Multiplicity = 1
  Basis Set: AUG-CC-PVTZ
    Blend: AUG-CC-PVTZ
  Basis Set: (AUG-CC-PVTZ AUX)
    Blend: AUG-CC-PVTZ-JKFIT

    Orbital Energies [Eh]
    ---------------------

    Doubly Occupied:

       1A    -15.558118     2A    -11.285431     3A    -11.276960
       4A    -11.261355     5A    -11.238525     6A    -11.234500
       7A    -11.234287     8A    -11.224752     9A    -11.223712
      10A     -1.254415    11A     -1.143137    12A     -1.080127
      13A     -1.027929    14A     -0.882758    15A     -0.853359
      16A     -0.817643    17A     -0.786027    18A     -0.707185
      19A     -0.669754    20A     -0.647415    21A     -0.630655
      22A     -0.606347    23A     -0.572480    24A     -0.549029
      25A     -0.538837    26A     -0.508506    27A     -0.503716
      28A     -0.436525    29A     -0.430598    30A     -0.409313
      31A     -0.376814    32A     -0.323093

  @DF-RHF Final Energy:  -362.71264377010260

   => Energetics <=

    Nuclear Repulsion Energy =            408.7790854310981103
    One-Electron Energy =               -1300.3968562265558830
    Two-Electron Energy =                 528.9051270253552275
    Total Energy =                       -362.7126437701025452
  Basis Set: (AUG-CC-PVTZ AUX)
    Blend: AUG-CC-PVTZ-RI
    Molecular point group: c1

    Geometry (in Angstrom), charge = 0, multiplicity = 1:

       Center              X                  Y                   Z               Mass
    ------------   -----------------  -----------------  -----------------  -----------------
         N           -0.161263756909    -0.989999376921    -0.020169792199    14.003074004430
         C            1.586384243091     0.666295623079    -0.020174792199    12.000000000000
         C            2.551924243091    -0.225442376921     0.727132207801    12.000000000000
         C            2.551948243091    -0.225479376921    -0.767402792199    12.000000000000
         C            0.145192243091     0.324264623079    -0.020174792199    12.000000000000
         C           -0.840548256909     1.320520723079     0.179831207801    12.000000000000
         C           -2.183002756909     0.950199623079    -0.020145792199    12.000000000000
         C           -1.460494756909    -1.331664376921    -0.020158792199    12.000000000000
         C           -2.504471756909    -0.406878376921    -0.020142792199    12.000000000000
         H            1.807712243091     1.731059623079    -0.020206792199     1.007825032230
         H            2.112383243091    -1.084787376921     1.221849207801     1.007825032230
         H            3.375385243091     0.250308623079     1.250292207801     1.007825032230
         H            3.375424243091     0.250276623079    -1.290537792199     1.007825032230
         H            2.112451243091    -1.084846376921    -1.262117792199     1.007825032230
         H           -0.552283756909     2.369009623079    -0.020176792199     1.007825032230
         H           -2.963869756909     1.707108623079    -0.020133792199     1.007825032230
         H           -1.666757756909    -2.401101376921    -0.020160792199     1.007825032230
         H           -3.537228756909    -0.743560376921    -0.020113792199     1.007825032230

  Basis Set: AUG-CC-PVTZ
    Blend: AUG-CC-PVTZ
  Basis Set: (AUG-CC-PVTZ AUX)
    Blend: AUG-CC-PVTZ-JKFIT
	 Reference Energy          =    -362.7126437701026020 [Eh]
	 Singles Energy            =      -0.0000000000000000 [Eh]
	 Same-Spin Energy          =      -0.4019646225411058 [Eh]
	 Opposite-Spin Energy      =      -1.2760165215622883 [Eh]
	 Correlation Energy        =      -1.6779811441033941 [Eh]
	 Total Energy              =    -364.3906249142060005 [Eh]

	 ================> DF-SCS-MP2 Energies <==================
	-----------------------------------------------------------
	 SCS Same-Spin Scale       =       0.3333333333333333 [-]
	 SCS Opposite-Spin Scale   =       1.2000000000000000 [-]
	 SCS Same-Spin Energy      =      -0.1339882075137019 [Eh]
	 SCS Opposite-Spin Energy  =      -1.5312198258747458 [Eh]
	 SCS Correlation Energy    =      -1.6652080333884478 [Eh]
	 SCS Total Energy          =    -364.3778518034910689 [Eh]
	-----------------------------------------------------------

  Dipole Moment: [D]
     X:    -0.9619      Y:     1.3455      Z:    -0.0739     Total:     1.6556

*** Psi4 exiting successfully. Buy a developer a beer!
