                               Psi4 1.3.2 release

  ==> Input File <==

--------------------------------------------------------------------------
#psi4
#
memory 32 gb

molecule  {
0 1
  N       -0.1927630    -0.9977240    -0.0000150
  C        1.5548850     0.6585710    -0.0000200
  C        2.5204250    -0.2331670     0.7472870
  C        2.5204490    -0.2332040    -0.7472480
  C        0.1136930     0.3165400    -0.0000200
  C       -0.8720474     1.3127961     0.2499860
  C       -2.2145020     0.9424750     0.0000090
  C       -1.4919940    -1.3393890    -0.0000040
  C       -2.5359710    -0.4146030     0.0000120
  H        1.7762130     1.7233350    -0.0000520
  H        2.0808840    -1.0925120     1.2420040
  H        3.3438860     0.2425840     1.2704470
  H        3.3439250     0.2425520    -1.2703830
  H        2.0809520    -1.0925710    -1.2419630
  H       -0.5837830     2.3612850    -0.0000220
  H       -2.9953690     1.6993840     0.0000210
  H       -1.6982570    -2.4088260    -0.0000060
  H       -3.5687280    -0.7512850     0.0000410
units angstrom
no_reorient  #important for SAPT in psi4, default
symmetry c1  #important for SAPT in psi4, default
}

set PROPERTIES_ORIGIN ["COM"]
properties('MP2/aug-cc-pvtz', properties = ['dipole'])
--------------------------------------------------------------------------

    Molecular point group: c1
  Charge       = 0
  Multiplicity = 1
  Basis Set: AUG-CC-PVTZ
    Blend: AUG-CC-PVTZ
  Basis Set: (AUG-CC-PVTZ AUX)
    Blend: AUG-CC-PVTZ-JKFIT

    Orbital Energies [Eh]
    ---------------------

    Doubly Occupied:

       1A    -15.558000     2A    -11.287320     3A    -11.278157
       4A    -11.263045     5A    -11.240142     6A    -11.234500
       7A    -11.234340     8A    -11.225143     9A    -11.223953
      10A     -1.254470    11A     -1.143423    12A     -1.079159
      13A     -1.027192    14A     -0.882214    15A     -0.852958
      16A     -0.817897    17A     -0.785662    18A     -0.706832
      19A     -0.668579    20A     -0.646411    21A     -0.630171
      22A     -0.605039    23A     -0.571917    24A     -0.549296
      25A     -0.536651    26A     -0.508745    27A     -0.503147
      28A     -0.436728    29A     -0.430638    30A     -0.408774
      31A     -0.376423    32A     -0.323131

  @DF-RHF Final Energy:  -362.70595453996685

   => Energetics <=

    Nuclear Repulsion Energy =            408.5298610585969641
    One-Electron Energy =               -1299.8915216467728442
    Two-Electron Energy =                 528.6557060482091401
    Total Energy =                       -362.7059545399667968
  Basis Set: (AUG-CC-PVTZ AUX)
    Blend: AUG-CC-PVTZ-RI
    Molecular point group: c1

    Geometry (in Angstrom), charge = 0, multiplicity = 1:

       Center              X                  Y                   Z               Mass
    ------------   -----------------  -----------------  -----------------  -----------------
         N           -0.161263766986    -0.989999376921    -0.025208696771    14.003074004430
         C            1.586384233014     0.666295623079    -0.025213696771    12.000000000000
         C            2.551924233014    -0.225442376921     0.722093303229    12.000000000000
         C            2.551948233014    -0.225479376921    -0.772441696771    12.000000000000
         C            0.145192233014     0.324264623079    -0.025213696771    12.000000000000
         C           -0.840548166986     1.320520723079     0.224792303229    12.000000000000
         C           -2.183002766986     0.950199623079    -0.025184696771    12.000000000000
         C           -1.460494766986    -1.331664376921    -0.025197696771    12.000000000000
         C           -2.504471766986    -0.406878376921    -0.025181696771    12.000000000000
         H            1.807712233014     1.731059623079    -0.025245696771     1.007825032230
         H            2.112383233014    -1.084787376921     1.216810303229     1.007825032230
         H            3.375385233014     0.250308623079     1.245253303229     1.007825032230
         H            3.375424233014     0.250276623079    -1.295576696771     1.007825032230
         H            2.112451233014    -1.084846376921    -1.267156696771     1.007825032230
         H           -0.552283766986     2.369009623079    -0.025215696771     1.007825032230
         H           -2.963869766986     1.707108623079    -0.025172696771     1.007825032230
         H           -1.666757766986    -2.401101376921    -0.025199696771     1.007825032230
         H           -3.537228766986    -0.743560376921    -0.025152696771     1.007825032230

  Basis Set: AUG-CC-PVTZ
    Blend: AUG-CC-PVTZ
  Basis Set: (AUG-CC-PVTZ AUX)
    Blend: AUG-CC-PVTZ-JKFIT
	 Reference Energy          =    -362.7059545399668536 [Eh]
	 Singles Energy            =      -0.0000000000000000 [Eh]
	 Same-Spin Energy          =      -0.4021532406611619 [Eh]
	 Opposite-Spin Energy      =      -1.2767769626170336 [Eh]
	 Correlation Energy        =      -1.6789302032781954 [Eh]
	 Total Energy              =    -364.3848847432450384 [Eh]

	 ================> DF-SCS-MP2 Energies <==================
	-----------------------------------------------------------
	 SCS Same-Spin Scale       =       0.3333333333333333 [-]
	 SCS Opposite-Spin Scale   =       1.2000000000000000 [-]
	 SCS Same-Spin Energy      =      -0.1340510802203873 [Eh]
	 SCS Opposite-Spin Energy  =      -1.5321323551404402 [Eh]
	 SCS Correlation Energy    =      -1.6661834353608276 [Eh]
	 SCS Total Energy          =    -364.3721379753276892 [Eh]
	-----------------------------------------------------------

  Dipole Moment: [D]
     X:    -0.9555      Y:     1.3007      Z:    -0.0948     Total:     1.6167

*** Psi4 exiting successfully. Buy a developer a beer!
