                               Psi4 1.3.2 release

  ==> Input File <==

--------------------------------------------------------------------------
#psi4
#
memory 32 gb

molecule  {
0 1
  N       -0.1927630    -0.9977240    -0.0000150
  C        1.5548850     0.6585710    -0.0000200
  C        2.5204250    -0.2331670     0.7472870
  C        2.5204490    -0.2332040    -0.7472480
  C        0.1136930     0.3165400    -0.0000200
  C       -0.8720480     1.3127960    -0.0000140
  C       -2.2145020     0.9424750     0.0000090
  C       -1.4919940    -1.3393890    -0.0000040
  C       -2.5359710    -0.4146030     0.0000120
  H        1.7762130     1.7233350    -0.0000520
  H        2.0808840    -1.0925120     1.2420040
  H        3.3438860     0.2425840     1.2704470
  H        3.3439250     0.2425520    -1.2703830
  H        2.0809520    -1.0925710    -1.2419630
  H       -0.5837830     2.3612850    -0.0000220
  H       -2.9953690     1.6993840     0.0000210
  H       -1.6982570    -2.4088260    -0.0000060
  H       -3.5687280    -0.7512850     0.0000410
units angstrom
no_reorient  #important for SAPT in psi4, default
symmetry c1  #important for SAPT in psi4, default
}

set PROPERTIES_ORIGIN ["COM"]
properties('MP2/aug-cc-pvtz', properties = ['dipole'])
--------------------------------------------------------------------------

    Molecular point group: c1
  Charge       = 0
  Multiplicity = 1
  Basis Set: AUG-CC-PVTZ
    Blend: AUG-CC-PVTZ
  Basis Set: (AUG-CC-PVTZ AUX)
    Blend: AUG-CC-PVTZ-JKFIT

    Orbital Energies [Eh]
    ---------------------

    Doubly Occupied:

       1A    -15.558402     2A    -11.281962     3A    -11.274865
       4A    -11.258243     5A    -11.235526     6A    -11.234853
       7A    -11.233913     8A    -11.224021     9A    -11.223326
      10A     -1.254369    11A     -1.142639    12A     -1.081954
      13A     -1.029194    14A     -0.883840    15A     -0.854082
      16A     -0.817193    17A     -0.786781    18A     -0.708121
      19A     -0.672104    20A     -0.649615    21A     -0.631556
      22A     -0.608432    23A     -0.573482    24A     -0.547584
      25A     -0.543752    26A     -0.508042    27A     -0.504562
      28A     -0.436115    29A     -0.430546    30A     -0.410288
      31A     -0.377592    32A     -0.323098

  @DF-RHF Final Energy:  -362.72435527373096

   => Energetics <=

    Nuclear Repulsion Energy =            409.2312770911289590
    One-Electron Energy =               -1301.3111594295501163
    Two-Electron Energy =                 529.3555270646901363
    Total Energy =                       -362.7243552737310210
  Basis Set: (AUG-CC-PVTZ AUX)
    Blend: AUG-CC-PVTZ-RI
    Molecular point group: c1

    Geometry (in Angstrom), charge = 0, multiplicity = 1:

       Center              X                  Y                   Z               Mass
    ------------   -----------------  -----------------  -----------------  -----------------
         N           -0.161263706520    -0.989999366843    -0.000014173911    14.003074004430
         C            1.586384293480     0.666295633157    -0.000019173911    12.000000000000
         C            2.551924293480    -0.225442366843     0.747287826089    12.000000000000
         C            2.551948293480    -0.225479366843    -0.747247173911    12.000000000000
         C            0.145192293480     0.324264633157    -0.000019173911    12.000000000000
         C           -0.840548706520     1.320520633157    -0.000013173911    12.000000000000
         C           -2.183002706520     0.950199633157     0.000009826089    12.000000000000
         C           -1.460494706520    -1.331664366843    -0.000003173911    12.000000000000
         C           -2.504471706520    -0.406878366843     0.000012826089    12.000000000000
         H            1.807712293480     1.731059633157    -0.000051173911     1.007825032230
         H            2.112383293480    -1.084787366843     1.242004826089     1.007825032230
         H            3.375385293480     0.250308633157     1.270447826089     1.007825032230
         H            3.375424293480     0.250276633157    -1.270382173911     1.007825032230
         H            2.112451293480    -1.084846366843    -1.241962173911     1.007825032230
         H           -0.552283706520     2.369009633157    -0.000021173911     1.007825032230
         H           -2.963869706520     1.707108633157     0.000021826089     1.007825032230
         H           -1.666757706520    -2.401101366843    -0.000005173911     1.007825032230
         H           -3.537228706520    -0.743560366843     0.000041826089     1.007825032230

  Basis Set: AUG-CC-PVTZ
    Blend: AUG-CC-PVTZ
  Basis Set: (AUG-CC-PVTZ AUX)
    Blend: AUG-CC-PVTZ-JKFIT
	 Reference Energy          =    -362.7243552737309642 [Eh]
	 Singles Energy            =      -0.0000000000000000 [Eh]
	 Same-Spin Energy          =      -0.4016271935712743 [Eh]
	 Opposite-Spin Energy      =      -1.2749214414535173 [Eh]
	 Correlation Energy        =      -1.6765486350247916 [Eh]
	 Total Energy              =    -364.4009039087557653 [Eh]

	 ================> DF-SCS-MP2 Energies <==================
	-----------------------------------------------------------
	 SCS Same-Spin Scale       =       0.3333333333333333 [-]
	 SCS Opposite-Spin Scale   =       1.2000000000000000 [-]
	 SCS Same-Spin Energy      =      -0.1338757311904248 [Eh]
	 SCS Opposite-Spin Energy  =      -1.5299057297442207 [Eh]
	 SCS Correlation Energy    =      -1.6637814609346455 [Eh]
	 SCS Total Energy          =    -364.3881367346656361 [Eh]
	-----------------------------------------------------------

  Dipole Moment: [D]
     X:    -0.9729      Y:     1.4261      Z:     0.0000     Total:     1.7264

*** Psi4 exiting successfully. Buy a developer a beer!
