                               Psi4 1.3.2 release

  ==> Input File <==

--------------------------------------------------------------------------
#psi4
#
memory 32 gb

molecule  {
0 1
  N       -0.1927630    -0.9977240    -0.0000150
  C        1.5548850     0.6585710    -0.0000200
  C        2.5204250    -0.2331670     0.7472870
  C        2.5204490    -0.2332040    -0.7472480
  C        0.1136930     0.3165400    -0.0000200
  C       -0.8720477     1.3127960     0.0999860
  C       -2.2145020     0.9424750     0.0000090
  C       -1.4919940    -1.3393890    -0.0000040
  C       -2.5359710    -0.4146030     0.0000120
  H        1.7762130     1.7233350    -0.0000520
  H        2.0808840    -1.0925120     1.2420040
  H        3.3438860     0.2425840     1.2704470
  H        3.3439250     0.2425520    -1.2703830
  H        2.0809520    -1.0925710    -1.2419630
  H       -0.5837830     2.3612850    -0.0000220
  H       -2.9953690     1.6993840     0.0000210
  H       -1.6982570    -2.4088260    -0.0000060
  H       -3.5687280    -0.7512850     0.0000410
units angstrom
no_reorient  #important for SAPT in psi4, default
symmetry c1  #important for SAPT in psi4, default
}

set PROPERTIES_ORIGIN ["COM"]
properties('MP2/aug-cc-pvtz', properties = ['dipole'])
--------------------------------------------------------------------------

    Molecular point group: c1
  Charge       = 0
  Multiplicity = 1
  Basis Set: AUG-CC-PVTZ
    Blend: AUG-CC-PVTZ
  Basis Set: (AUG-CC-PVTZ AUX)
    Blend: AUG-CC-PVTZ-JKFIT

    Orbital Energies [Eh]
    ---------------------

    Doubly Occupied:

       1A    -15.558320     2A    -11.282841     3A    -11.275382
       4A    -11.259031     5A    -11.236289     6A    -11.234754
       7A    -11.234006     8A    -11.224210     9A    -11.223415
      10A     -1.254373    11A     -1.142761    12A     -1.081483
      13A     -1.028882    14A     -0.883553    15A     -0.853898
      16A     -0.817305    17A     -0.786577    18A     -0.707843
      19A     -0.671483    20A     -0.649012    21A     -0.631328
      22A     -0.607941    23A     -0.573230    24A     -0.548212
      25A     -0.542249    26A     -0.508164    27A     -0.504365
      28A     -0.436224    29A     -0.430555    30A     -0.410041
      31A     -0.377386    32A     -0.323086

  @DF-RHF Final Energy:  -362.72145186869636

   => Energetics <=

    Nuclear Repulsion Energy =            409.1171157881707359
    One-Electron Energy =               -1301.0807359020691365
    Two-Electron Energy =                 529.2421682452020377
    Total Energy =                       -362.7214518686963629
  Basis Set: (AUG-CC-PVTZ AUX)
    Blend: AUG-CC-PVTZ-RI
    Molecular point group: c1

    Geometry (in Angstrom), charge = 0, multiplicity = 1:

       Center              X                  Y                   Z               Mass
    ------------   -----------------  -----------------  -----------------  -----------------
         N           -0.161263736753    -0.989999366843    -0.010091983055    14.003074004430
         C            1.586384263247     0.666295633157    -0.010096983055    12.000000000000
         C            2.551924263247    -0.225442366843     0.737210016945    12.000000000000
         C            2.551948263247    -0.225479366843    -0.757324983055    12.000000000000
         C            0.145192263247     0.324264633157    -0.010096983055    12.000000000000
         C           -0.840548436753     1.320520633157     0.089909016945    12.000000000000
         C           -2.183002736753     0.950199633157    -0.010067983055    12.000000000000
         C           -1.460494736753    -1.331664366843    -0.010080983055    12.000000000000
         C           -2.504471736753    -0.406878366843    -0.010064983055    12.000000000000
         H            1.807712263247     1.731059633157    -0.010128983055     1.007825032230
         H            2.112383263247    -1.084787366843     1.231927016945     1.007825032230
         H            3.375385263247     0.250308633157     1.260370016945     1.007825032230
         H            3.375424263247     0.250276633157    -1.280459983055     1.007825032230
         H            2.112451263247    -1.084846366843    -1.252039983055     1.007825032230
         H           -0.552283736753     2.369009633157    -0.010098983055     1.007825032230
         H           -2.963869736753     1.707108633157    -0.010055983055     1.007825032230
         H           -1.666757736753    -2.401101366843    -0.010082983055     1.007825032230
         H           -3.537228736753    -0.743560366843    -0.010035983055     1.007825032230

  Basis Set: AUG-CC-PVTZ
    Blend: AUG-CC-PVTZ
  Basis Set: (AUG-CC-PVTZ AUX)
    Blend: AUG-CC-PVTZ-JKFIT
	 Reference Energy          =    -362.7214518686963629 [Eh]
	 Singles Energy            =      -0.0000000000000000 [Eh]
	 Same-Spin Energy          =      -0.4017078041050364 [Eh]
	 Opposite-Spin Energy      =      -1.2750988806834020 [Eh]
	 Correlation Energy        =      -1.6768066847884384 [Eh]
	 Total Energy              =    -364.3982585534848226 [Eh]

	 ================> DF-SCS-MP2 Energies <==================
	-----------------------------------------------------------
	 SCS Same-Spin Scale       =       0.3333333333333333 [-]
	 SCS Opposite-Spin Scale   =       1.2000000000000000 [-]
	 SCS Same-Spin Energy      =      -0.1339026013683455 [Eh]
	 SCS Opposite-Spin Energy  =      -1.5301186568200824 [Eh]
	 SCS Correlation Energy    =      -1.6640212581884279 [Eh]
	 SCS Total Energy          =    -364.3854731268847900 [Eh]
	-----------------------------------------------------------

  Dipole Moment: [D]
     X:    -0.9702      Y:     1.4058      Z:    -0.0354     Total:     1.7085

*** Psi4 exiting successfully. Buy a developer a beer!
