                               Psi4 1.3.2 release

  ==> Input File <==

--------------------------------------------------------------------------
#psi4
#
memory 32 gb

molecule  {
0 1
  N        0.1871790    -0.9111820    -0.0000020
  C        2.0846610     0.5733200    -0.0000030
  C        2.9631220    -0.4040200    -0.7474220
  C        2.9631210    -0.4040120     0.7474270
  C        0.6178930     0.3663440    -0.0000030
  C       -0.2752489     1.4465330     0.1499980
  C       -1.6439530     1.1986260     0.0000010
  C       -2.1086100    -0.1215530     0.0000030
  C       -1.1379910    -1.1285870     0.0000010
  C       -3.5774520    -0.4452540     0.0000000
  H        2.4036780     1.6130560    -0.0000090
  H        3.8277670    -0.0076600    -1.2704010
  H        2.4452750    -1.2187140    -1.2419740
  H        2.4452760    -1.2187020     1.2419880
  H        3.8277650    -0.0076460     1.2704030
  H        0.1039660     2.4659580    -0.0000030
  H       -2.3510000     2.0273860     0.0000010
  H       -1.4419230    -2.1762520     0.0000020
  H       -4.0731050    -0.0303320     0.8832920
  H       -3.7381210    -1.5268000     0.0000420
  H       -4.0730850    -0.0304030    -0.8833370
units angstrom
no_reorient  #important for SAPT in psi4, default
symmetry c1  #important for SAPT in psi4, default
}

set PROPERTIES_ORIGIN ["COM"]
properties('MP2/aug-cc-pvtz', properties = ['dipole'])
--------------------------------------------------------------------------

    Molecular point group: c1
  Charge       = 0
  Multiplicity = 1
  Basis Set: AUG-CC-PVTZ
    Blend: AUG-CC-PVTZ
  Basis Set: (AUG-CC-PVTZ AUX)
    Blend: AUG-CC-PVTZ-JKFIT

    Orbital Energies [Eh]
    ---------------------

    Doubly Occupied:

       1A    -15.555505     2A    -11.278127     3A    -11.268919
       4A    -11.253472     5A    -11.239165     6A    -11.235517
       7A    -11.231584     8A    -11.229304     9A    -11.221958
      10A    -11.221093    11A     -1.251193    12A     -1.141120
      13A     -1.091204    14A     -1.041096    15A     -0.950771
      16A     -0.867055    17A     -0.839607    18A     -0.815170
      19A     -0.780820    20A     -0.700767    21A     -0.665325
      22A     -0.638921    23A     -0.623006    24A     -0.600469
      25A     -0.583773    26A     -0.564349    27A     -0.549399
      28A     -0.535353    29A     -0.527004    30A     -0.504285
      31A     -0.498297    32A     -0.429678    33A     -0.427305
      34A     -0.405831    35A     -0.371961    36A     -0.312665

  @DF-RHF Final Energy:  -401.76709909325911

   => Energetics <=

    Nuclear Repulsion Energy =            488.7576988803152176
    One-Electron Energy =               -1512.1474573713392147
    Two-Electron Energy =                 621.6226593977648918
    Total Energy =                       -401.7670990932590485
  Basis Set: (AUG-CC-PVTZ AUX)
    Blend: AUG-CC-PVTZ-RI
    Molecular point group: c1

    Geometry (in Angstrom), charge = 0, multiplicity = 1:

       Center              X                  Y                   Z               Mass
    ------------   -----------------  -----------------  -----------------  -----------------
         N            0.182526474759    -0.911981797854    -0.013526769178    14.003074004430
         C            2.080008474759     0.572520202146    -0.013527769178    12.000000000000
         C            2.958469474759    -0.404819797854    -0.760946769178    12.000000000000
         C            2.958468474759    -0.404811797854     0.733902230822    12.000000000000
         C            0.613240474759     0.365544202146    -0.013527769178    12.000000000000
         C           -0.279901425241     1.445733202146     0.136473230822    12.000000000000
         C           -1.648605525241     1.197826202146    -0.013523769178    12.000000000000
         C           -2.113262525241    -0.122352797854    -0.013521769178    12.000000000000
         C           -1.142643525241    -1.129386797854    -0.013523769178    12.000000000000
         C           -3.582104525241    -0.446053797854    -0.013524769178    12.000000000000
         H            2.399025474759     1.612256202146    -0.013533769178     1.007825032230
         H            3.823114474759    -0.008459797854    -1.283925769178     1.007825032230
         H            2.440622474759    -1.219513797854    -1.255498769178     1.007825032230
         H            2.440623474759    -1.219501797854     1.228463230822     1.007825032230
         H            3.823112474759    -0.008445797854     1.256878230822     1.007825032230
         H            0.099313474759     2.465158202146    -0.013527769178     1.007825032230
         H           -2.355652525241     2.026586202146    -0.013523769178     1.007825032230
         H           -1.446575525241    -2.177051797854    -0.013522769178     1.007825032230
         H           -4.077757525241    -0.031131797854     0.869767230822     1.007825032230
         H           -3.742773525241    -1.527599797854    -0.013482769178     1.007825032230
         H           -4.077737525241    -0.031202797854    -0.896861769178     1.007825032230

  Basis Set: AUG-CC-PVTZ
    Blend: AUG-CC-PVTZ
  Basis Set: (AUG-CC-PVTZ AUX)
    Blend: AUG-CC-PVTZ-JKFIT
	 Reference Energy          =    -401.7670990932591053 [Eh]
	 Singles Energy            =      -0.0000000000000000 [Eh]
	 Same-Spin Energy          =      -0.4461601110308593 [Eh]
	 Opposite-Spin Energy      =      -1.4321714864995969 [Eh]
	 Correlation Energy        =      -1.8783315975304562 [Eh]
	 Total Energy              =    -403.6454306907895671 [Eh]

	 ================> DF-SCS-MP2 Energies <==================
	-----------------------------------------------------------
	 SCS Same-Spin Scale       =       0.3333333333333333 [-]
	 SCS Opposite-Spin Scale   =       1.2000000000000000 [-]
	 SCS Same-Spin Energy      =      -0.1487200370102864 [Eh]
	 SCS Opposite-Spin Energy  =      -1.7186057837995163 [Eh]
	 SCS Correlation Energy    =      -1.8673258208098027 [Eh]
	 SCS Total Energy          =    -403.6344249140689158 [Eh]
	-----------------------------------------------------------

  Dipole Moment: [D]
     X:    -1.3146      Y:     1.4088      Z:    -0.0579     Total:     1.9277

*** Psi4 exiting successfully. Buy a developer a beer!
