                               Psi4 1.3.2 release

  ==> Input File <==

--------------------------------------------------------------------------
#psi4
#
memory 32 gb

molecule  {
0 1
  N        0.1871790    -0.9111820    -0.0000020
  C        2.0846610     0.5733200    -0.0000030
  C        2.9631220    -0.4040200    -0.7474220
  C        2.9631210    -0.4040120     0.7474270
  C        0.6178930     0.3663440    -0.0000030
  C       -0.2752490     1.4465330     0.0999980
  C       -1.6439530     1.1986260     0.0000010
  C       -2.1086100    -0.1215530     0.0000030
  C       -1.1379910    -1.1285870     0.0000010
  C       -3.5774520    -0.4452540     0.0000000
  H        2.4036780     1.6130560    -0.0000090
  H        3.8277670    -0.0076600    -1.2704010
  H        2.4452750    -1.2187140    -1.2419740
  H        2.4452760    -1.2187020     1.2419880
  H        3.8277650    -0.0076460     1.2704030
  H        0.1039660     2.4659580    -0.0000030
  H       -2.3510000     2.0273860     0.0000010
  H       -1.4419230    -2.1762520     0.0000020
  H       -4.0731050    -0.0303320     0.8832920
  H       -3.7381210    -1.5268000     0.0000420
  H       -4.0730850    -0.0304030    -0.8833370
units angstrom
no_reorient  #important for SAPT in psi4, default
symmetry c1  #important for SAPT in psi4, default
}

set PROPERTIES_ORIGIN ["COM"]
properties('MP2/aug-cc-pvtz', properties = ['dipole'])
--------------------------------------------------------------------------

    Molecular point group: c1
  Charge       = 0
  Multiplicity = 1
  Basis Set: AUG-CC-PVTZ
    Blend: AUG-CC-PVTZ
  Basis Set: (AUG-CC-PVTZ AUX)
    Blend: AUG-CC-PVTZ-JKFIT

    Orbital Energies [Eh]
    ---------------------

    Doubly Occupied:

       1A    -15.555611     2A    -11.277026     3A    -11.268264
       4A    -11.252480     5A    -11.239291     6A    -11.234567
       7A    -11.231471     8A    -11.229277     9A    -11.221738
      10A    -11.220964    11A     -1.251186    12A     -1.140969
      13A     -1.091412    14A     -1.041847    15A     -0.950907
      16A     -0.867214    17A     -0.839860    18A     -0.815031
      19A     -0.781079    20A     -0.700921    21A     -0.666131
      22A     -0.639013    23A     -0.624764    24A     -0.600720
      25A     -0.583740    26A     -0.564523    27A     -0.549415
      28A     -0.535383    29A     -0.527604    30A     -0.504201
      31A     -0.498628    32A     -0.429558    33A     -0.427274
      34A     -0.406126    35A     -0.372226    36A     -0.312682

  @DF-RHF Final Energy:  -401.77078284790070

   => Energetics <=

    Nuclear Repulsion Energy =            488.9017715354478923
    One-Electron Energy =               -1512.4389063980925130
    Two-Electron Energy =                 621.7663520147439158
    Total Energy =                       -401.7707828479007048
  Basis Set: (AUG-CC-PVTZ AUX)
    Blend: AUG-CC-PVTZ-RI
    Molecular point group: c1

    Geometry (in Angstrom), charge = 0, multiplicity = 1:

       Center              X                  Y                   Z               Mass
    ------------   -----------------  -----------------  -----------------  -----------------
         N            0.182526483775    -0.911981797854    -0.009018512848    14.003074004430
         C            2.080008483775     0.572520202146    -0.009019512848    12.000000000000
         C            2.958469483775    -0.404819797854    -0.756438512848    12.000000000000
         C            2.958468483775    -0.404811797854     0.738410487152    12.000000000000
         C            0.613240483775     0.365544202146    -0.009019512848    12.000000000000
         C           -0.279901516225     1.445733202146     0.090981487152    12.000000000000
         C           -1.648605516225     1.197826202146    -0.009015512848    12.000000000000
         C           -2.113262516225    -0.122352797854    -0.009013512848    12.000000000000
         C           -1.142643516225    -1.129386797854    -0.009015512848    12.000000000000
         C           -3.582104516225    -0.446053797854    -0.009016512848    12.000000000000
         H            2.399025483775     1.612256202146    -0.009025512848     1.007825032230
         H            3.823114483775    -0.008459797854    -1.279417512848     1.007825032230
         H            2.440622483775    -1.219513797854    -1.250990512848     1.007825032230
         H            2.440623483775    -1.219501797854     1.232971487152     1.007825032230
         H            3.823112483775    -0.008445797854     1.261386487152     1.007825032230
         H            0.099313483775     2.465158202146    -0.009019512848     1.007825032230
         H           -2.355652516225     2.026586202146    -0.009015512848     1.007825032230
         H           -1.446575516225    -2.177051797854    -0.009014512848     1.007825032230
         H           -4.077757516225    -0.031131797854     0.874275487152     1.007825032230
         H           -3.742773516225    -1.527599797854    -0.008974512848     1.007825032230
         H           -4.077737516225    -0.031202797854    -0.892353512848     1.007825032230

  Basis Set: AUG-CC-PVTZ
    Blend: AUG-CC-PVTZ
  Basis Set: (AUG-CC-PVTZ AUX)
    Blend: AUG-CC-PVTZ-JKFIT
	 Reference Energy          =    -401.7707828479007048 [Eh]
	 Singles Energy            =      -0.0000000000000000 [Eh]
	 Same-Spin Energy          =      -0.4460409368775049 [Eh]
	 Opposite-Spin Energy      =      -1.4318177552094919 [Eh]
	 Correlation Energy        =      -1.8778586920869969 [Eh]
	 Total Energy              =    -403.6486415399876932 [Eh]

	 ================> DF-SCS-MP2 Energies <==================
	-----------------------------------------------------------
	 SCS Same-Spin Scale       =       0.3333333333333333 [-]
	 SCS Opposite-Spin Scale   =       1.2000000000000000 [-]
	 SCS Same-Spin Energy      =      -0.1486803122925016 [Eh]
	 SCS Opposite-Spin Energy  =      -1.7181813062513902 [Eh]
	 SCS Correlation Energy    =      -1.8668616185438918 [Eh]
	 SCS Total Energy          =    -403.6376444664446126 [Eh]
	-----------------------------------------------------------

  Dipole Moment: [D]
     X:    -1.3138      Y:     1.4346      Z:    -0.0380     Total:     1.9456

*** Psi4 exiting successfully. Buy a developer a beer!
