                               Psi4 1.3.2 release

  ==> Input File <==

--------------------------------------------------------------------------
#psi4
#
memory 32 gb

molecule  {
0 1
  N        2.6708236    -0.1732827    -0.0054480
  C       -0.8748290    -0.5238240     0.0003100
  C        0.1478200     0.6200950     0.0003100
  C       -2.3044840     0.0081730    -0.0002990
  C        1.5293590     0.1288950    -0.0005060
  H       -0.7052620    -1.1537770     0.8794380
  H       -0.7047750    -1.1544660    -0.8781930
  H        0.0039960     1.2557980     0.8812230
  H        0.0030960     1.2567630    -0.8797780
  H       -2.4949090     0.6237750     0.8839850
  H       -2.4950800     0.6211070    -0.8863780
  H       -3.0255150    -0.8133870     0.0010390
units angstrom
no_reorient  #important for SAPT in psi4, default
symmetry c1  #important for SAPT in psi4, default
}

set PROPERTIES_ORIGIN ["COM"]
properties('MP2/aug-cc-pvtz', properties = ['dipole'])
--------------------------------------------------------------------------

    Molecular point group: c1
  Charge       = 0
  Multiplicity = 1
  Basis Set: AUG-CC-PVTZ
    Blend: AUG-CC-PVTZ
  Basis Set: (AUG-CC-PVTZ AUX)
    Blend: AUG-CC-PVTZ-JKFIT

    Orbital Energies [Eh]
    ---------------------

    Doubly Occupied:

       1A    -15.575374     2A    -11.284822     3A    -11.281071
       4A    -11.253828     5A    -11.236743     6A     -1.205833
       7A     -1.102187     8A     -0.987282     9A     -0.846661
      10A     -0.706707    11A     -0.672524    12A     -0.604848
      13A     -0.584288    14A     -0.564233    15A     -0.529644
      16A     -0.519193    17A     -0.506911    18A     -0.449350
      19A     -0.446675

  @DF-RHF Final Energy:  -210.06576706426534

   => Energetics <=

    Nuclear Repulsion Energy =            153.4554437790657744
    One-Electron Energy =                -586.3260745638427807
    Two-Electron Energy =                 222.8048637205116620
    Total Energy =                       -210.0657670642653443
  Basis Set: (AUG-CC-PVTZ AUX)
    Blend: AUG-CC-PVTZ-RI
    Molecular point group: c1

    Geometry (in Angstrom), charge = 0, multiplicity = 1:

       Center              X                  Y                   Z               Mass
    ------------   -----------------  -----------------  -----------------  -----------------
         N            2.527726414571    -0.187971338536    -0.004330642686    14.003074004430
         C           -1.017926185429    -0.538512638536     0.001427357314    12.000000000000
         C            0.004722814571     0.605406361464     0.001427357314    12.000000000000
         C           -2.447581185429    -0.006515638536     0.000818357314    12.000000000000
         C            1.386261814571     0.114206361464     0.000611357314    12.000000000000
         H           -0.848359185429    -1.168465638536     0.880555357314     1.007825032230
         H           -0.847872185429    -1.169154638536    -0.877075642686     1.007825032230
         H           -0.139101185429     1.241109361464     0.882340357314     1.007825032230
         H           -0.140001185429     1.242074361464    -0.878660642686     1.007825032230
         H           -2.638006185429     0.609086361464     0.885102357314     1.007825032230
         H           -2.638177185429     0.606418361464    -0.885260642686     1.007825032230
         H           -3.168612185429    -0.828075638536     0.002156357314     1.007825032230

  Basis Set: AUG-CC-PVTZ
    Blend: AUG-CC-PVTZ
  Basis Set: (AUG-CC-PVTZ AUX)
    Blend: AUG-CC-PVTZ-JKFIT
	 Reference Energy          =    -210.0657670642653443 [Eh]
	 Singles Energy            =      -0.0000000000000000 [Eh]
	 Same-Spin Energy          =      -0.2182503378191425 [Eh]
	 Opposite-Spin Energy      =      -0.7533094275314096 [Eh]
	 Correlation Energy        =      -0.9715597653505521 [Eh]
	 Total Energy              =    -211.0373268296158926 [Eh]

	 ================> DF-SCS-MP2 Energies <==================
	-----------------------------------------------------------
	 SCS Same-Spin Scale       =       0.3333333333333333 [-]
	 SCS Opposite-Spin Scale   =       1.2000000000000000 [-]
	 SCS Same-Spin Energy      =      -0.0727501126063808 [Eh]
	 SCS Opposite-Spin Energy  =      -0.9039713130376915 [Eh]
	 SCS Correlation Energy    =      -0.9767214256440724 [Eh]
	 SCS Total Energy          =    -211.0424884899094309 [Eh]
	-----------------------------------------------------------

  Dipole Moment: [D]
     X:    -4.0698      Y:     0.9186      Z:     0.0086     Total:     4.1722

*** Psi4 exiting successfully. Buy a developer a beer!
