                               Psi4 1.3.2 release

  ==> Input File <==

--------------------------------------------------------------------------
#psi4
#
memory 32 gb

molecule  {
0 1
  N        2.6330360    -0.2908360    -0.0000330
  C       -0.7496547    -0.6244534     0.0002136
  C        0.1478200     0.6200950     0.0003100
  C       -2.3044840     0.0081730    -0.0002990
  C        1.5293590     0.1288950    -0.0005060
  H       -0.7052620    -1.1537770     0.8794380
  H       -0.7047750    -1.1544660    -0.8781930
  H        0.0039960     1.2557980     0.8812230
  H        0.0030960     1.2567630    -0.8797780
  H       -2.4949090     0.6237750     0.8839850
  H       -2.4950800     0.6211070    -0.8863780
  H       -3.0255150    -0.8133870     0.0010390
units angstrom
no_reorient  #important for SAPT in psi4, default
symmetry c1  #important for SAPT in psi4, default
}

set PROPERTIES_ORIGIN ["COM"]
properties('MP2/aug-cc-pvtz', properties = ['dipole'])
--------------------------------------------------------------------------

    Molecular point group: c1
  Charge       = 0
  Multiplicity = 1
  Basis Set: AUG-CC-PVTZ
    Blend: AUG-CC-PVTZ
  Basis Set: (AUG-CC-PVTZ AUX)
    Blend: AUG-CC-PVTZ-JKFIT

    Orbital Energies [Eh]
    ---------------------

    Doubly Occupied:

       1A    -15.571862     2A    -11.286762     3A    -11.277951
       4A    -11.251600     5A    -11.240589     6A     -1.204011
       7A     -1.095822     8A     -0.970807     9A     -0.862972
      10A     -0.700839    11A     -0.684251    12A     -0.604599
      13A     -0.584338    14A     -0.556997    15A     -0.536689
      16A     -0.533092    17A     -0.484542    18A     -0.448029
      19A     -0.438150

  @DF-RHF Final Energy:  -210.04491205618851

   => Energetics <=

    Nuclear Repulsion Energy =            153.0331508988166433
    One-Electron Energy =                -585.4883220111430546
    Two-Electron Energy =                 222.4102590561379031
    Total Energy =                       -210.0449120561885081
  Basis Set: (AUG-CC-PVTZ AUX)
    Blend: AUG-CC-PVTZ-RI
    Molecular point group: c1

    Geometry (in Angstrom), charge = 0, multiplicity = 1:

       Center              X                  Y                   Z               Mass
    ------------   -----------------  -----------------  -----------------  -----------------
         N            2.475849915893    -0.264201886797     0.000003092164    14.003074004430
         C           -0.906840784107    -0.597819286797     0.000249692164    12.000000000000
         C           -0.009366084107     0.646729113203     0.000346092164    12.000000000000
         C           -2.461670084107     0.034807113203    -0.000262907836    12.000000000000
         C            1.372172915893     0.155529113203    -0.000469907836    12.000000000000
         H           -0.862448084107    -1.127142886797     0.879474092164     1.007825032230
         H           -0.861961084107    -1.127831886797    -0.878156907836     1.007825032230
         H           -0.153190084107     1.282432113203     0.881259092164     1.007825032230
         H           -0.154090084107     1.283397113203    -0.879741907836     1.007825032230
         H           -2.652095084107     0.650409113203     0.884021092164     1.007825032230
         H           -2.652266084107     0.647741113203    -0.886341907836     1.007825032230
         H           -3.182701084107    -0.786752886797     0.001075092164     1.007825032230

  Basis Set: AUG-CC-PVTZ
    Blend: AUG-CC-PVTZ
  Basis Set: (AUG-CC-PVTZ AUX)
    Blend: AUG-CC-PVTZ-JKFIT
	 Reference Energy          =    -210.0449120561885081 [Eh]
	 Singles Energy            =      -0.0000000000000000 [Eh]
	 Same-Spin Energy          =      -0.2182468709604273 [Eh]
	 Opposite-Spin Energy      =      -0.7540013946737520 [Eh]
	 Correlation Energy        =      -0.9722482656341793 [Eh]
	 Total Energy              =    -211.0171603218227006 [Eh]

	 ================> DF-SCS-MP2 Energies <==================
	-----------------------------------------------------------
	 SCS Same-Spin Scale       =       0.3333333333333333 [-]
	 SCS Opposite-Spin Scale   =       1.2000000000000000 [-]
	 SCS Same-Spin Energy      =      -0.0727489569868091 [Eh]
	 SCS Opposite-Spin Energy  =      -0.9048016736085024 [Eh]
	 SCS Correlation Energy    =      -0.9775506305953114 [Eh]
	 SCS Total Energy          =    -211.0224626867838253 [Eh]
	-----------------------------------------------------------

  Dipole Moment: [D]
     X:    -4.0124      Y:     1.1002      Z:     0.0006     Total:     4.1605

*** Psi4 exiting successfully. Buy a developer a beer!
