                               Psi4 1.3.2 release

  ==> Input File <==

--------------------------------------------------------------------------
#psi4
#
memory 32 gb

molecule  {
0 1
  N        2.6330360    -0.2908360    -0.0000330
  C       -0.9521336    -0.4497011     0.0003743
  C        0.1478200     0.6200950     0.0003100
  C       -2.3044840     0.0081730    -0.0002990
  C        1.5293590     0.1288950    -0.0005060
  H       -0.7052620    -1.1537770     0.8794380
  H       -0.7047750    -1.1544660    -0.8781930
  H        0.0039960     1.2557980     0.8812230
  H        0.0030960     1.2567630    -0.8797780
  H       -2.4949090     0.6237750     0.8839850
  H       -2.4950800     0.6211070    -0.8863780
  H       -3.0255150    -0.8133870     0.0010390
units angstrom
no_reorient  #important for SAPT in psi4, default
symmetry c1  #important for SAPT in psi4, default
}

set PROPERTIES_ORIGIN ["COM"]
properties('MP2/aug-cc-pvtz', properties = ['dipole'])
--------------------------------------------------------------------------

    Molecular point group: c1
  Charge       = 0
  Multiplicity = 1
  Basis Set: AUG-CC-PVTZ
    Blend: AUG-CC-PVTZ
  Basis Set: (AUG-CC-PVTZ AUX)
    Blend: AUG-CC-PVTZ-JKFIT

    Orbital Energies [Eh]
    ---------------------

    Doubly Occupied:

       1A    -15.577656     2A    -11.285548     3A    -11.283818
       4A    -11.259471     5A    -11.233585     6A     -1.207364
       7A     -1.111518     8A     -1.001181     9A     -0.834495
      10A     -0.710612    11A     -0.669349    12A     -0.607927
      13A     -0.587916    14A     -0.581407    15A     -0.546538
      16A     -0.509838    17A     -0.479517    18A     -0.449529
      19A     -0.447650

  @DF-RHF Final Energy:  -210.05232110927267

   => Energetics <=

    Nuclear Repulsion Energy =            154.0710743837623795
    One-Electron Energy =                -587.4769537546034144
    Two-Electron Energy =                 223.3535582615683666
    Total Energy =                       -210.0523211092726683
  Basis Set: (AUG-CC-PVTZ AUX)
    Blend: AUG-CC-PVTZ-RI
    Molecular point group: c1

    Geometry (in Angstrom), charge = 0, multiplicity = 1:

       Center              X                  Y                   Z               Mass
    ------------   -----------------  -----------------  -----------------  -----------------
         N            2.511034139367    -0.294568132248    -0.000024832251    14.003074004430
         C           -1.074135460633    -0.453433232248     0.000382467749    12.000000000000
         C            0.025818139367     0.616362867752     0.000318167749    12.000000000000
         C           -2.426485860633     0.004440867752    -0.000290832251    12.000000000000
         C            1.407357139367     0.125162867752    -0.000497832251    12.000000000000
         H           -0.827263860633    -1.157509132248     0.879446167749     1.007825032230
         H           -0.826776860633    -1.158198132248    -0.878184832251     1.007825032230
         H           -0.118005860633     1.252065867752     0.881231167749     1.007825032230
         H           -0.118905860633     1.253030867752    -0.879769832251     1.007825032230
         H           -2.616910860633     0.620042867752     0.883993167749     1.007825032230
         H           -2.617081860633     0.617374867752    -0.886369832251     1.007825032230
         H           -3.147516860633    -0.817119132248     0.001047167749     1.007825032230

  Basis Set: AUG-CC-PVTZ
    Blend: AUG-CC-PVTZ
  Basis Set: (AUG-CC-PVTZ AUX)
    Blend: AUG-CC-PVTZ-JKFIT
	 Reference Energy          =    -210.0523211092726683 [Eh]
	 Singles Energy            =      -0.0000000000000000 [Eh]
	 Same-Spin Energy          =      -0.2192430680669987 [Eh]
	 Opposite-Spin Energy      =      -0.7547076270778077 [Eh]
	 Correlation Energy        =      -0.9739506951448064 [Eh]
	 Total Energy              =    -211.0262718044174619 [Eh]

	 ================> DF-SCS-MP2 Energies <==================
	-----------------------------------------------------------
	 SCS Same-Spin Scale       =       0.3333333333333333 [-]
	 SCS Opposite-Spin Scale   =       1.2000000000000000 [-]
	 SCS Same-Spin Energy      =      -0.0730810226889995 [Eh]
	 SCS Opposite-Spin Energy  =      -0.9056491524933692 [Eh]
	 SCS Correlation Energy    =      -0.9787301751823687 [Eh]
	 SCS Total Energy          =    -211.0310512844550317 [Eh]
	-----------------------------------------------------------

  Dipole Moment: [D]
     X:    -4.0457      Y:     1.1090      Z:     0.0006     Total:     4.1949

*** Psi4 exiting successfully. Buy a developer a beer!
