                               Psi4 1.3.2 release

  ==> Input File <==

--------------------------------------------------------------------------
#psi4
#
memory 32 gb

molecule  {
0 1
  N        2.6330360    -0.2908360    -0.0000330
  C       -0.8748290    -0.5238240     0.0003100
  C        0.1478200     0.6200950     0.0003100
  C       -2.3044840     0.0081730    -0.0002990
  C        1.3424211     0.1999879    -0.0005861
  H       -0.7052620    -1.1537770     0.8794380
  H       -0.7047750    -1.1544660    -0.8781930
  H        0.0039960     1.2557980     0.8812230
  H        0.0030960     1.2567630    -0.8797780
  H       -2.4949090     0.6237750     0.8839850
  H       -2.4950800     0.6211070    -0.8863780
  H       -3.0255150    -0.8133870     0.0010390
units angstrom
no_reorient  #important for SAPT in psi4, default
symmetry c1  #important for SAPT in psi4, default
}

set PROPERTIES_ORIGIN ["COM"]
properties('MP2/aug-cc-pvtz', properties = ['dipole'])
--------------------------------------------------------------------------

    Molecular point group: c1
  Charge       = 0
  Multiplicity = 1
  Basis Set: AUG-CC-PVTZ
    Blend: AUG-CC-PVTZ
  Basis Set: (AUG-CC-PVTZ AUX)
    Blend: AUG-CC-PVTZ-JKFIT

    Orbital Energies [Eh]
    ---------------------

    Doubly Occupied:

       1A    -15.615330     2A    -11.326054     3A    -11.270730
       4A    -11.263801     5A    -11.241638     6A     -1.182174
       7A     -1.082093     8A     -1.017527     9A     -0.864008
      10A     -0.742828    11A     -0.691562    12A     -0.620581
      13A     -0.598842    14A     -0.562911    15A     -0.533797
      16A     -0.527714    17A     -0.514074    18A     -0.388428
      19A     -0.386189

  @DF-RHF Final Energy:  -209.93274706397290

   => Energetics <=

    Nuclear Repulsion Energy =            154.1619074362688195
    One-Electron Energy =                -587.3287495714689612
    Two-Electron Energy =                 223.2340950712272161
    Total Energy =                       -209.9327470639728972
  Basis Set: (AUG-CC-PVTZ AUX)
    Blend: AUG-CC-PVTZ-RI
    Molecular point group: c1

    Geometry (in Angstrom), charge = 0, multiplicity = 1:

       Center              X                  Y                   Z               Mass
    ------------   -----------------  -----------------  -----------------  -----------------
         N            2.530084828242    -0.294041617153     0.000000259756    14.003074004430
         C           -0.977780171758    -0.527029617153     0.000343259756    12.000000000000
         C            0.044868828242     0.616889382847     0.000343259756    12.000000000000
         C           -2.407435171758     0.004967382847    -0.000265740244    12.000000000000
         C            1.239469928242     0.196782282847    -0.000552840244    12.000000000000
         H           -0.808213171758    -1.156982617153     0.879471259756     1.007825032230
         H           -0.807726171758    -1.157671617153    -0.878159740244     1.007825032230
         H           -0.098955171758     1.252592382847     0.881256259756     1.007825032230
         H           -0.099855171758     1.253557382847    -0.879744740244     1.007825032230
         H           -2.597860171758     0.620569382847     0.884018259756     1.007825032230
         H           -2.598031171758     0.617901382847    -0.886344740244     1.007825032230
         H           -3.128466171758    -0.816592617153     0.001072259756     1.007825032230

  Basis Set: AUG-CC-PVTZ
    Blend: AUG-CC-PVTZ
  Basis Set: (AUG-CC-PVTZ AUX)
    Blend: AUG-CC-PVTZ-JKFIT
	 Reference Energy          =    -209.9327470639728972 [Eh]
	 Singles Energy            =      -0.0000000000000000 [Eh]
	 Same-Spin Energy          =      -0.2361636919239691 [Eh]
	 Opposite-Spin Energy      =      -0.7856572675424001 [Eh]
	 Correlation Energy        =      -1.0218209594663692 [Eh]
	 Total Energy              =    -210.9545680234392648 [Eh]

	 ================> DF-SCS-MP2 Energies <==================
	-----------------------------------------------------------
	 SCS Same-Spin Scale       =       0.3333333333333333 [-]
	 SCS Opposite-Spin Scale   =       1.2000000000000000 [-]
	 SCS Same-Spin Energy      =      -0.0787212306413230 [Eh]
	 SCS Opposite-Spin Energy  =      -0.9427887210508801 [Eh]
	 SCS Correlation Energy    =      -1.0215099516922030 [Eh]
	 SCS Total Energy          =    -210.9542570156650925 [Eh]
	-----------------------------------------------------------

  Dipole Moment: [D]
     X:    -4.0880      Y:     1.0936      Z:     0.0010     Total:     4.2317

*** Psi4 exiting successfully. Buy a developer a beer!
