                               Psi4 1.3.2 release

  ==> Input File <==

--------------------------------------------------------------------------
#psi4
#
memory 32 gb

molecule  {
0 1
  N        2.6330360    -0.2908360    -0.0000330
  C       -0.8748290    -0.5238240     0.0003100
  C        0.1478200     0.6200950     0.0003100
  C       -2.3044840     0.0081730    -0.0002990
  C        1.5489785     0.2082693    -0.1303900
  H       -0.7052620    -1.1537770     0.8794380
  H       -0.7047750    -1.1544660    -0.8781930
  H        0.0039960     1.2557980     0.8812230
  H        0.0030960     1.2567630    -0.8797780
  H       -2.4949090     0.6237750     0.8839850
  H       -2.4950800     0.6211070    -0.8863780
  H       -3.0255150    -0.8133870     0.0010390
units angstrom
no_reorient  #important for SAPT in psi4, default
symmetry c1  #important for SAPT in psi4, default
}

set PROPERTIES_ORIGIN ["COM"]
properties('MP2/aug-cc-pvtz', properties = ['dipole'])
--------------------------------------------------------------------------

    Molecular point group: c1
  Charge       = 0
  Multiplicity = 1
  Basis Set: AUG-CC-PVTZ
    Blend: AUG-CC-PVTZ
  Basis Set: (AUG-CC-PVTZ AUX)
    Blend: AUG-CC-PVTZ-JKFIT

    Orbital Energies [Eh]
    ---------------------

    Doubly Occupied:

       1A    -15.582522     2A    -11.287513     3A    -11.284648
       4A    -11.254670     5A    -11.237274     6A     -1.198335
       7A     -1.100275     8A     -0.988171     9A     -0.848605
      10A     -0.705466    11A     -0.670525    12A     -0.603438
      13A     -0.584515    14A     -0.565130    15A     -0.530724
      16A     -0.518251    17A     -0.506656    18A     -0.443935
      19A     -0.441686

  @DF-RHF Final Energy:  -210.05581739035961

   => Energetics <=

    Nuclear Repulsion Energy =            153.0970411984268651
    One-Electron Energy =                -585.6010414057574280
    Two-Electron Energy =                 222.4481828169709843
    Total Energy =                       -210.0558173903596071
  Basis Set: (AUG-CC-PVTZ AUX)
    Blend: AUG-CC-PVTZ-RI
    Molecular point group: c1

    Geometry (in Angstrom), charge = 0, multiplicity = 1:

       Center              X                  Y                   Z               Mass
    ------------   -----------------  -----------------  -----------------  -----------------
         N            2.494191894598    -0.295480654151     0.022555940498    14.003074004430
         C           -1.013673105402    -0.528468654151     0.022898940498    12.000000000000
         C            0.008975894598     0.615450345849     0.022898940498    12.000000000000
         C           -2.443328105402     0.003528345849     0.022289940498    12.000000000000
         C            1.410134394598     0.203624645849    -0.107801059502    12.000000000000
         H           -0.844106105402    -1.158421654151     0.902026940498     1.007825032230
         H           -0.843619105402    -1.159110654151    -0.855604059502     1.007825032230
         H           -0.134848105402     1.251153345849     0.903811940498     1.007825032230
         H           -0.135748105402     1.252118345849    -0.857189059502     1.007825032230
         H           -2.633753105402     0.619130345849     0.906573940498     1.007825032230
         H           -2.633924105402     0.616462345849    -0.863789059502     1.007825032230
         H           -3.164359105402    -0.818031654151     0.023627940498     1.007825032230

  Basis Set: AUG-CC-PVTZ
    Blend: AUG-CC-PVTZ
  Basis Set: (AUG-CC-PVTZ AUX)
    Blend: AUG-CC-PVTZ-JKFIT
	 Reference Energy          =    -210.0558173903596071 [Eh]
	 Singles Energy            =      -0.0000000000000000 [Eh]
	 Same-Spin Energy          =      -0.2197252103832217 [Eh]
	 Opposite-Spin Energy      =      -0.7565946873541958 [Eh]
	 Correlation Energy        =      -0.9763198977374175 [Eh]
	 Total Energy              =    -211.0321372880970330 [Eh]

	 ================> DF-SCS-MP2 Energies <==================
	-----------------------------------------------------------
	 SCS Same-Spin Scale       =       0.3333333333333333 [-]
	 SCS Opposite-Spin Scale   =       1.2000000000000000 [-]
	 SCS Same-Spin Energy      =      -0.0732417367944072 [Eh]
	 SCS Opposite-Spin Energy  =      -0.9079136248250349 [Eh]
	 SCS Correlation Energy    =      -0.9811553616194422 [Eh]
	 SCS Total Energy          =    -211.0369727519790501 [Eh]
	-----------------------------------------------------------

  Dipole Moment: [D]
     X:    -3.9837      Y:     1.0734      Z:    -0.0192     Total:     4.1258

*** Psi4 exiting successfully. Buy a developer a beer!
