                               Psi4 1.3.2 release

  ==> Input File <==

--------------------------------------------------------------------------
#psi4
#
memory 32 gb

molecule  {
0 1
  N        2.6330360    -0.2908360    -0.0000330
  C       -0.8748290    -0.5238240     0.0003100
  C        0.1478200     0.6200950     0.0003100
  C       -2.3044840     0.0081730    -0.0002990
  C        1.5441372     0.1812658    -0.0871844
  H       -0.7052620    -1.1537770     0.8794380
  H       -0.7047750    -1.1544660    -0.8781930
  H        0.0039960     1.2557980     0.8812230
  H        0.0030960     1.2567630    -0.8797780
  H       -2.4949090     0.6237750     0.8839850
  H       -2.4950800     0.6211070    -0.8863780
  H       -3.0255150    -0.8133870     0.0010390
units angstrom
no_reorient  #important for SAPT in psi4, default
symmetry c1  #important for SAPT in psi4, default
}

set PROPERTIES_ORIGIN ["COM"]
properties('MP2/aug-cc-pvtz', properties = ['dipole'])
--------------------------------------------------------------------------

    Molecular point group: c1
  Charge       = 0
  Multiplicity = 1
  Basis Set: AUG-CC-PVTZ
    Blend: AUG-CC-PVTZ
  Basis Set: (AUG-CC-PVTZ AUX)
    Blend: AUG-CC-PVTZ-JKFIT

    Orbital Energies [Eh]
    ---------------------

    Doubly Occupied:

       1A    -15.578540     2A    -11.284949     3A    -11.283947
       4A    -11.254433     5A    -11.237151     6A     -1.202164
       7A     -1.101029     8A     -0.987992     9A     -0.847992
      10A     -0.705243    11A     -0.671531    12A     -0.603921
      13A     -0.584481    14A     -0.564490    15A     -0.530769
      16A     -0.518573    17A     -0.506721    18A     -0.446536
      19A     -0.444468

  @DF-RHF Final Energy:  -210.06164464615415

   => Energetics <=

    Nuclear Repulsion Energy =            153.3163489170430296
    One-Electron Energy =                -586.0461265487346054
    Two-Electron Energy =                 222.6681329855374543
    Total Energy =                       -210.0616446461541500
  Basis Set: (AUG-CC-PVTZ AUX)
    Blend: AUG-CC-PVTZ-RI
    Molecular point group: c1

    Geometry (in Angstrom), charge = 0, multiplicity = 1:

       Center              X                  Y                   Z               Mass
    ------------   -----------------  -----------------  -----------------  -----------------
         N            2.495033154507    -0.290788327303     0.015048217542    14.003074004430
         C           -1.012831845493    -0.523776327303     0.015391217542    12.000000000000
         C            0.009817154507     0.620142672697     0.015391217542    12.000000000000
         C           -2.442486845493     0.008220672697     0.014782217542    12.000000000000
         C            1.406134354507     0.181313472697    -0.072103182458    12.000000000000
         H           -0.843264845493    -1.153729327303     0.894519217542     1.007825032230
         H           -0.842777845493    -1.154418327303    -0.863111782458     1.007825032230
         H           -0.134006845493     1.255845672697     0.896304217542     1.007825032230
         H           -0.134906845493     1.256810672697    -0.864696782458     1.007825032230
         H           -2.632911845493     0.623822672697     0.899066217542     1.007825032230
         H           -2.633082845493     0.621154672697    -0.871296782458     1.007825032230
         H           -3.163517845493    -0.813339327303     0.016120217542     1.007825032230

  Basis Set: AUG-CC-PVTZ
    Blend: AUG-CC-PVTZ
  Basis Set: (AUG-CC-PVTZ AUX)
    Blend: AUG-CC-PVTZ-JKFIT
	 Reference Energy          =    -210.0616446461541500 [Eh]
	 Singles Energy            =      -0.0000000000000000 [Eh]
	 Same-Spin Energy          =      -0.2189377386789198 [Eh]
	 Opposite-Spin Energy      =      -0.7547764940650927 [Eh]
	 Correlation Energy        =      -0.9737142327440125 [Eh]
	 Total Energy              =    -211.0353588788981654 [Eh]

	 ================> DF-SCS-MP2 Energies <==================
	-----------------------------------------------------------
	 SCS Same-Spin Scale       =       0.3333333333333333 [-]
	 SCS Opposite-Spin Scale   =       1.2000000000000000 [-]
	 SCS Same-Spin Energy      =      -0.0729792462263066 [Eh]
	 SCS Opposite-Spin Energy  =      -0.9057317928781112 [Eh]
	 SCS Correlation Energy    =      -0.9787110391044178 [Eh]
	 SCS Total Energy          =    -211.0403556852585609 [Eh]
	-----------------------------------------------------------

  Dipole Moment: [D]
     X:    -4.0103      Y:     1.0842      Z:    -0.0146     Total:     4.1543

*** Psi4 exiting successfully. Buy a developer a beer!
