                               Psi4 1.3.2 release

  ==> Input File <==

--------------------------------------------------------------------------
#psi4
#
memory 32 gb

molecule  {
0 1
  N        2.6330360    -0.2908360    -0.0000330
  C       -0.8748290    -0.5238240     0.0003100
  C        0.1478200     0.6200950     0.0003100
  C       -2.3044840     0.0081730    -0.0002990
  C        1.3409155     0.1958952    -0.0003947
  H       -0.7052620    -1.1537770     0.8794380
  H       -0.7047750    -1.1544660    -0.8781930
  H        0.0039960     1.2557980     0.8812230
  H        0.0030960     1.2567630    -0.8797780
  H       -2.4949090     0.6237750     0.8839850
  H       -2.4950800     0.6211070    -0.8863780
  H       -3.0255150    -0.8133870     0.0010390
units angstrom
no_reorient  #important for SAPT in psi4, default
symmetry c1  #important for SAPT in psi4, default
}

set PROPERTIES_ORIGIN ["COM"]
properties('MP2/aug-cc-pvtz', properties = ['dipole'])
--------------------------------------------------------------------------

    Molecular point group: c1
  Charge       = 0
  Multiplicity = 1
  Basis Set: AUG-CC-PVTZ
    Blend: AUG-CC-PVTZ
  Basis Set: (AUG-CC-PVTZ AUX)
    Blend: AUG-CC-PVTZ-JKFIT

    Orbital Energies [Eh]
    ---------------------

    Doubly Occupied:

       1A    -15.615319     2A    -11.326036     3A    -11.270706
       4A    -11.263799     5A    -11.241627     6A     -1.182247
       7A     -1.082120     8A     -1.017444     9A     -0.863909
      10A     -0.743062    11A     -0.691569    12A     -0.620621
      13A     -0.598799    14A     -0.562894    15A     -0.533740
      16A     -0.527747    17A     -0.514075    18A     -0.388422
      19A     -0.386207

  @DF-RHF Final Energy:  -209.93273002032979

   => Energetics <=

    Nuclear Repulsion Energy =            154.1767567477711225
    One-Electron Energy =                -587.3582860803401218
    Two-Electron Energy =                 223.2487993122391856
    Total Energy =                       -209.9327300203297852
  Basis Set: (AUG-CC-PVTZ AUX)
    Blend: AUG-CC-PVTZ-RI
    Molecular point group: c1

    Geometry (in Angstrom), charge = 0, multiplicity = 1:

       Center              X                  Y                   Z               Mass
    ------------   -----------------  -----------------  -----------------  -----------------
         N            2.530346452376    -0.293330439488    -0.000032999317    14.003074004430
         C           -0.977518547624    -0.526318439488     0.000310000683    12.000000000000
         C            0.045130452376     0.617600560512     0.000310000683    12.000000000000
         C           -2.407173547624     0.005678560512    -0.000298999317    12.000000000000
         C            1.238225952376     0.193400760512    -0.000394699317    12.000000000000
         H           -0.807951547624    -1.156271439488     0.879438000683     1.007825032230
         H           -0.807464547624    -1.156960439488    -0.878192999317     1.007825032230
         H           -0.098693547624     1.253303560512     0.881223000683     1.007825032230
         H           -0.099593547624     1.254268560512    -0.879777999317     1.007825032230
         H           -2.597598547624     0.621280560512     0.883985000683     1.007825032230
         H           -2.597769547624     0.618612560512    -0.886377999317     1.007825032230
         H           -3.128204547624    -0.815881439488     0.001039000683     1.007825032230

  Basis Set: AUG-CC-PVTZ
    Blend: AUG-CC-PVTZ
  Basis Set: (AUG-CC-PVTZ AUX)
    Blend: AUG-CC-PVTZ-JKFIT
	 Reference Energy          =    -209.9327300203297852 [Eh]
	 Singles Energy            =      -0.0000000000000000 [Eh]
	 Same-Spin Energy          =      -0.2361699126397954 [Eh]
	 Opposite-Spin Energy      =      -0.7856637915326471 [Eh]
	 Correlation Energy        =      -1.0218337041724426 [Eh]
	 Total Energy              =    -210.9545637245022363 [Eh]

	 ================> DF-SCS-MP2 Energies <==================
	-----------------------------------------------------------
	 SCS Same-Spin Scale       =       0.3333333333333333 [-]
	 SCS Opposite-Spin Scale   =       1.2000000000000000 [-]
	 SCS Same-Spin Energy      =      -0.0787233042132651 [Eh]
	 SCS Opposite-Spin Energy  =      -0.9427965498391765 [Eh]
	 SCS Correlation Energy    =      -1.0215198540524417 [Eh]
	 SCS Total Energy          =    -210.9542498743822136 [Eh]
	-----------------------------------------------------------

  Dipole Moment: [D]
     X:    -4.0865      Y:     1.0954      Z:     0.0009     Total:     4.2307

*** Psi4 exiting successfully. Buy a developer a beer!
