                               Psi4 1.3.2 release

  ==> Input File <==

--------------------------------------------------------------------------
#psi4
#
memory 32 gb

molecule  {
0 1
  N        2.6330360    -0.2908360    -0.0000330
  C       -0.8748290    -0.5238240     0.0003100
  C        0.1478200     0.6200950     0.0003100
  C       -2.3044840     0.0081730    -0.0002990
  C        1.7162969     0.0578021    -0.0004259
  H       -0.7052620    -1.1537770     0.8794380
  H       -0.7047750    -1.1544660    -0.8781930
  H        0.0039960     1.2557980     0.8812230
  H        0.0030960     1.2567630    -0.8797780
  H       -2.4949090     0.6237750     0.8839850
  H       -2.4950800     0.6211070    -0.8863780
  H       -3.0255150    -0.8133870     0.0010390
units angstrom
no_reorient  #important for SAPT in psi4, default
symmetry c1  #important for SAPT in psi4, default
}

set PROPERTIES_ORIGIN ["COM"]
properties('MP2/aug-cc-pvtz', properties = ['dipole'])
--------------------------------------------------------------------------

    Molecular point group: c1
  Charge       = 0
  Multiplicity = 1
  Basis Set: AUG-CC-PVTZ
    Blend: AUG-CC-PVTZ
  Basis Set: (AUG-CC-PVTZ AUX)
    Blend: AUG-CC-PVTZ-JKFIT

    Orbital Energies [Eh]
    ---------------------

    Doubly Occupied:

       1A    -15.504246     2A    -11.299609     3A    -11.251298
       4A    -11.236489     5A    -11.214073     6A     -1.291516
       7A     -1.090360     8A     -0.961742     9A     -0.835431
      10A     -0.665828    11A     -0.655176    12A     -0.599061
      13A     -0.581018    14A     -0.551892    15A     -0.535406
      16A     -0.523846    17A     -0.516094    18A     -0.501088
      19A     -0.499252

  @DF-RHF Final Energy:  -209.97540554472050

   => Energetics <=

    Nuclear Repulsion Energy =            154.7392431837946276
    One-Electron Energy =                -588.8024494188645122
    Two-Electron Energy =                 224.0878006903493542
    Total Energy =                       -209.9754055447205019
  Basis Set: (AUG-CC-PVTZ AUX)
    Blend: AUG-CC-PVTZ-RI
    Molecular point group: c1

    Geometry (in Angstrom), charge = 0, multiplicity = 1:

       Center              X                  Y                   Z               Mass
    ------------   -----------------  -----------------  -----------------  -----------------
         N            2.465117418309    -0.269334366363    -0.000027577775    14.003074004430
         C           -1.042747581691    -0.502322366363     0.000315422225    12.000000000000
         C           -0.020098581691     0.641596633637     0.000315422225    12.000000000000
         C           -2.472402581691     0.029674633637    -0.000293577775    12.000000000000
         C            1.548378318309     0.079303733637    -0.000420477775    12.000000000000
         H           -0.873180581691    -1.132275366363     0.879443422225     1.007825032230
         H           -0.872693581691    -1.132964366363    -0.878187577775     1.007825032230
         H           -0.163922581691     1.277299633637     0.881228422225     1.007825032230
         H           -0.164822581691     1.278264633637    -0.879772577775     1.007825032230
         H           -2.662827581691     0.645276633637     0.883990422225     1.007825032230
         H           -2.662998581691     0.642608633637    -0.886372577775     1.007825032230
         H           -3.193433581691    -0.791885366363     0.001044422225     1.007825032230

  Basis Set: AUG-CC-PVTZ
    Blend: AUG-CC-PVTZ
  Basis Set: (AUG-CC-PVTZ AUX)
    Blend: AUG-CC-PVTZ-JKFIT
	 Reference Energy          =    -209.9754055447205019 [Eh]
	 Singles Energy            =      -0.0000000000000000 [Eh]
	 Same-Spin Energy          =      -0.2065115284102987 [Eh]
	 Opposite-Spin Energy      =      -0.7307427234110870 [Eh]
	 Correlation Energy        =      -0.9372542518213858 [Eh]
	 Total Energy              =    -210.9126597965418739 [Eh]

	 ================> DF-SCS-MP2 Energies <==================
	-----------------------------------------------------------
	 SCS Same-Spin Scale       =       0.3333333333333333 [-]
	 SCS Opposite-Spin Scale   =       1.2000000000000000 [-]
	 SCS Same-Spin Energy      =      -0.0688371761367662 [Eh]
	 SCS Opposite-Spin Energy  =      -0.8768912680933044 [Eh]
	 SCS Correlation Energy    =      -0.9457284442300706 [Eh]
	 SCS Total Energy          =    -210.9211339889505723 [Eh]
	-----------------------------------------------------------

  Dipole Moment: [D]
     X:    -4.1433      Y:     1.1081      Z:     0.0003     Total:     4.2889

*** Psi4 exiting successfully. Buy a developer a beer!
