                               Psi4 1.3.2 release

  ==> Input File <==

--------------------------------------------------------------------------
#psi4
#
memory 32 gb

molecule  {
0 1
  N        2.6330360    -0.2908360    -0.0000330
  C       -0.8748290    -0.5238240     0.0003100
  C        0.1478200     0.6200950     0.0003100
  C       -2.3044840     0.0081730    -0.0002990
  C        1.7178025     0.0618948    -0.0006173
  H       -0.7052620    -1.1537770     0.8794380
  H       -0.7047750    -1.1544660    -0.8781930
  H        0.0039960     1.2557980     0.8812230
  H        0.0030960     1.2567630    -0.8797780
  H       -2.4949090     0.6237750     0.8839850
  H       -2.4950800     0.6211070    -0.8863780
  H       -3.0255150    -0.8133870     0.0010390
units angstrom
no_reorient  #important for SAPT in psi4, default
symmetry c1  #important for SAPT in psi4, default
}

set PROPERTIES_ORIGIN ["COM"]
properties('MP2/aug-cc-pvtz', properties = ['dipole'])
--------------------------------------------------------------------------

    Molecular point group: c1
  Charge       = 0
  Multiplicity = 1
  Basis Set: AUG-CC-PVTZ
    Blend: AUG-CC-PVTZ
  Basis Set: (AUG-CC-PVTZ AUX)
    Blend: AUG-CC-PVTZ-JKFIT

    Orbital Energies [Eh]
    ---------------------

    Doubly Occupied:

       1A    -15.504255     2A    -11.299596     3A    -11.251358
       4A    -11.236539     5A    -11.214083     6A     -1.291484
       7A     -1.090349     8A     -0.961754     9A     -0.835489
      10A     -0.665823    11A     -0.655096    12A     -0.598995
      13A     -0.581033    14A     -0.551910    15A     -0.535315
      16A     -0.523830    17A     -0.516147    18A     -0.501174
      19A     -0.499233

  @DF-RHF Final Energy:  -209.97547354263884

   => Energetics <=

    Nuclear Repulsion Energy =            154.7276815384929591
    One-Electron Energy =                -588.7793858694176379
    Two-Electron Energy =                 224.0762307882858408
    Total Energy =                       -209.9754735426388379
  Basis Set: (AUG-CC-PVTZ AUX)
    Blend: AUG-CC-PVTZ-RI
    Molecular point group: c1

    Geometry (in Angstrom), charge = 0, multiplicity = 1:

       Center              X                  Y                   Z               Mass
    ------------   -----------------  -----------------  -----------------  -----------------
         N            2.464855794175    -0.270045544028     0.000005681297    14.003074004430
         C           -1.043009205825    -0.503033544028     0.000348681297    12.000000000000
         C           -0.020360205825     0.640885455972     0.000348681297    12.000000000000
         C           -2.472664205825     0.028963455972    -0.000260318703    12.000000000000
         C            1.549622294175     0.082685255972    -0.000578618703    12.000000000000
         H           -0.873442205825    -1.132986544028     0.879476681297     1.007825032230
         H           -0.872955205825    -1.133675544028    -0.878154318703     1.007825032230
         H           -0.164184205825     1.276588455972     0.881261681297     1.007825032230
         H           -0.165084205825     1.277553455972    -0.879739318703     1.007825032230
         H           -2.663089205825     0.644565455972     0.884023681297     1.007825032230
         H           -2.663260205825     0.641897455972    -0.886339318703     1.007825032230
         H           -3.193695205825    -0.792596544028     0.001077681297     1.007825032230

  Basis Set: AUG-CC-PVTZ
    Blend: AUG-CC-PVTZ
  Basis Set: (AUG-CC-PVTZ AUX)
    Blend: AUG-CC-PVTZ-JKFIT
	 Reference Energy          =    -209.9754735426388379 [Eh]
	 Singles Energy            =      -0.0000000000000000 [Eh]
	 Same-Spin Energy          =      -0.2065142523196727 [Eh]
	 Opposite-Spin Energy      =      -0.7307459734899016 [Eh]
	 Correlation Energy        =      -0.9372602258095742 [Eh]
	 Total Energy              =    -210.9127337684484189 [Eh]

	 ================> DF-SCS-MP2 Energies <==================
	-----------------------------------------------------------
	 SCS Same-Spin Scale       =       0.3333333333333333 [-]
	 SCS Opposite-Spin Scale   =       1.2000000000000000 [-]
	 SCS Same-Spin Energy      =      -0.0688380841065575 [Eh]
	 SCS Opposite-Spin Energy  =      -0.8768951681878818 [Eh]
	 SCS Correlation Energy    =      -0.9457332522944394 [Eh]
	 SCS Total Energy          =    -210.9212067949332834 [Eh]
	-----------------------------------------------------------

  Dipole Moment: [D]
     X:    -4.1435      Y:     1.1106      Z:     0.0001     Total:     4.2897

*** Psi4 exiting successfully. Buy a developer a beer!
