                               Psi4 1.4a3.dev225

  ==> Input File <==

--------------------------------------------------------------------------
#psi4
#
memory 32 gb

molecule  {
0 1
  N       -2.6327470    -0.2908650     0.0000010
  C        0.8748260    -0.5239910    -0.0000010
  C       -0.1478930     0.6200730     0.0000000
  C        2.3042230     0.0082410     0.0000000
  C       -1.5102776     0.1356998    -0.0000010
  H        0.7048460    -1.1542040    -0.8788150
  H        0.7048450    -1.1542040     0.8788140
  H       -0.0035770     1.2562870    -0.8804710
  H       -0.0035780     1.2562840     0.8804720
  H        2.4945510     0.6225650    -0.8851870
  H        2.4945510     0.6225600     0.8851910
  H        3.0253870    -0.8131700    -0.0000020
units angstrom
no_reorient  #important for SAPT in psi4, default
symmetry c1  #important for SAPT in psi4, default
}

set PROPERTIES_ORIGIN ["COM"]
properties('MP2/aug-cc-pvtz', properties = ['dipole'])
--------------------------------------------------------------------------

    Molecular point group: c1
  Charge       = 0
  Multiplicity = 1
  Basis Set: AUG-CC-PVTZ
    Blend: AUG-CC-PVTZ
  Basis Set: (AUG-CC-PVTZ AUX)
    Blend: AUG-CC-PVTZ-JKFIT

    Orbital Energies [Eh]
    ---------------------

    Doubly Occupied:

       1A    -15.580850     2A    -11.287071     3A    -11.283227
       4A    -11.254444     5A    -11.236973     6A     -1.197768
       7A     -1.103335     8A     -0.990715     9A     -0.848243
      10A     -0.710697    11A     -0.673644    12A     -0.605689
      13A     -0.585202    14A     -0.564426    15A     -0.530718
      16A     -0.519431    17A     -0.507026    18A     -0.443101
      19A     -0.440512

  @DF-RHF Final Energy:  -210.06032557979734

   => Energetics <=

    Nuclear Repulsion Energy =            153.5883335569142787
    One-Electron Energy =                -586.5711716842702117
    Two-Electron Energy =                 222.9225125475585969
    Total Energy =                       -210.0603255797973361
  Basis Set: (AUG-CC-PVTZ AUX)
    Blend: AUG-CC-PVTZ-RI
    Molecular point group: c1

    Geometry (in Angstrom), charge = 0, multiplicity = 1:

       Center              X                  Y                   Z               Mass
    ------------   -----------------  -----------------  -----------------  -----------------
         N           -2.500607107815    -0.282876988752     0.000001115574    14.003074004430
         C            1.006965892185    -0.516002988752    -0.000000884426    12.000000000000
         C           -0.015753107815     0.628061011248     0.000000115574    12.000000000000
         C            2.436362892185     0.016229011248     0.000000115574    12.000000000000
         C           -1.378137707815     0.143687811248    -0.000000884426    12.000000000000
         H            0.836985892185    -1.146215988752    -0.878814884426     1.007825032230
         H            0.836984892185    -1.146215988752     0.878814115574     1.007825032230
         H            0.128562892185     1.264275011248    -0.880470884426     1.007825032230
         H            0.128561892185     1.264272011248     0.880472115574     1.007825032230
         H            2.626690892185     0.630553011248    -0.885186884426     1.007825032230
         H            2.626690892185     0.630548011248     0.885191115574     1.007825032230
         H            3.157526892185    -0.805181988752    -0.000001884426     1.007825032230

  Basis Set: AUG-CC-PVTZ
    Blend: AUG-CC-PVTZ
  Basis Set: (AUG-CC-PVTZ AUX)
    Blend: AUG-CC-PVTZ-JKFIT
	 Reference Energy          =    -210.0603255797973361 [Eh]
	 Singles Energy            =      -0.0000000000000000 [Eh]
	 Same-Spin Energy          =      -0.2198125540940954 [Eh]
	 Opposite-Spin Energy      =      -0.7560837540024664 [Eh]
	 Correlation Energy        =      -0.9758963080965618 [Eh]
	 Total Energy              =    -211.0362218878939018 [Eh]

	 ================> DF-SCS-MP2 Energies <==================
	-----------------------------------------------------------
	 SCS Same-Spin Scale       =       0.3333333333333333 [-]
	 SCS Opposite-Spin Scale   =       1.2000000000000000 [-]
	 SCS Same-Spin Energy      =      -0.0732708513646985 [Eh]
	 SCS Opposite-Spin Energy  =      -0.9073005048029597 [Eh]
	 SCS Correlation Energy    =      -0.9805713561676581 [Eh]
	 SCS Total Energy          =    -211.0408969359649802 [Eh]
	-----------------------------------------------------------

  Dipole Moment: [D]
     X:     4.0261      Y:     1.0911      Z:    -0.0000     Total:     4.1714

*** Psi4 exiting successfully. Buy a developer a beer!
