                               Psi4 1.3.2 release

  ==> Input File <==

--------------------------------------------------------------------------
#psi4
#
memory 32 gb

molecule  {
0 1
  N        2.6330360    -0.2908360    -0.0000330
  C       -0.8748290    -0.5238240     0.0003100
  C        0.1478200     0.6200950     0.0003100
  C       -2.3044840     0.0081730    -0.0002990
  C        1.5293590     0.1288950    -0.0005060
  H       -0.7052620    -1.1537770     0.8794380
  H       -0.7047750    -1.1544660    -0.8781930
  H        0.0039960     1.2557980     0.8812230
  H        0.0030960     1.2567630    -0.8797780
  H       -2.4949090     0.6237750     0.8839850
  H       -2.4950800     0.6211070    -0.8863780
  H       -3.0255150    -0.8133870     0.0010390
units angstrom
no_reorient  #important for SAPT in psi4, default
symmetry c1  #important for SAPT in psi4, default
}

set PROPERTIES_ORIGIN ["COM"]
properties('MP2/aug-cc-pvtz', properties = ['dipole'])
--------------------------------------------------------------------------

    Molecular point group: c1
  Charge       = 0
  Multiplicity = 1
  Basis Set: AUG-CC-PVTZ
    Blend: AUG-CC-PVTZ
  Basis Set: (AUG-CC-PVTZ AUX)
    Blend: AUG-CC-PVTZ-JKFIT

    Orbital Energies [Eh]
    ---------------------

    Doubly Occupied:

       1A    -15.575116     2A    -11.284879     3A    -11.281124
       4A    -11.253881     5A    -11.236765     6A     -1.205689
       7A     -1.101998     8A     -0.987436     9A     -0.846753
      10A     -0.706287    11A     -0.672438    12A     -0.604690
      13A     -0.584223    14A     -0.563900    15A     -0.530206
      16A     -0.518873    17A     -0.506636    18A     -0.449362
      19A     -0.446638

  @DF-RHF Final Energy:  -210.06624568587935

   => Energetics <=

    Nuclear Repulsion Energy =            153.5922103253653859
    One-Electron Energy =                -586.6031202912546405
    Two-Electron Energy =                 222.9446642800099028
    Total Energy =                       -210.0662456858793519
  Basis Set: (AUG-CC-PVTZ AUX)
    Blend: AUG-CC-PVTZ-RI
    Molecular point group: c1

    Geometry (in Angstrom), charge = 0, multiplicity = 1:

       Center              X                  Y                   Z               Mass
    ------------   -----------------  -----------------  -----------------  -----------------
         N            2.497601123275    -0.281687991758    -0.000013659010    14.003074004430
         C           -1.010263876725    -0.514675991758     0.000329340990    12.000000000000
         C            0.012385123275     0.629243008242     0.000329340990    12.000000000000
         C           -2.439918876725     0.017321008242    -0.000279659010    12.000000000000
         C            1.393924123275     0.138043008242    -0.000486659010    12.000000000000
         H           -0.840696876725    -1.144628991758     0.879457340990     1.007825032230
         H           -0.840209876725    -1.145317991758    -0.878173659010     1.007825032230
         H           -0.131438876725     1.264946008242     0.881242340990     1.007825032230
         H           -0.132338876725     1.265911008242    -0.879758659010     1.007825032230
         H           -2.630343876725     0.632923008242     0.884004340990     1.007825032230
         H           -2.630514876725     0.630255008242    -0.886358659010     1.007825032230
         H           -3.160949876725    -0.804238991758     0.001058340990     1.007825032230

  Basis Set: AUG-CC-PVTZ
    Blend: AUG-CC-PVTZ
  Basis Set: (AUG-CC-PVTZ AUX)
    Blend: AUG-CC-PVTZ-JKFIT
	 Reference Energy          =    -210.0662456858793519 [Eh]
	 Singles Energy            =      -0.0000000000000000 [Eh]
	 Same-Spin Energy          =      -0.2182750910920813 [Eh]
	 Opposite-Spin Energy      =      -0.7532455693336226 [Eh]
	 Correlation Energy        =      -0.9715206604257040 [Eh]
	 Total Energy              =    -211.0377663463050624 [Eh]

	 ================> DF-SCS-MP2 Energies <==================
	-----------------------------------------------------------
	 SCS Same-Spin Scale       =       0.3333333333333333 [-]
	 SCS Opposite-Spin Scale   =       1.2000000000000000 [-]
	 SCS Same-Spin Energy      =      -0.0727583636973604 [Eh]
	 SCS Opposite-Spin Energy  =      -0.9038946832003472 [Eh]
	 SCS Correlation Energy    =      -0.9766530468977076 [Eh]
	 SCS Total Energy          =    -211.0428987327770471 [Eh]
	-----------------------------------------------------------

  Dipole Moment: [D]
     X:    -4.0267      Y:     1.0908      Z:     0.0005     Total:     4.1718

*** Psi4 exiting successfully. Buy a developer a beer!
