                               Psi4 1.3.2 release

  ==> Input File <==

--------------------------------------------------------------------------
#psi4
#
memory 32 gb

molecule  {
0 1
  N        2.6330360    -0.2908360    -0.0000330
  C       -0.8748290    -0.5238240     0.0003100
  C        0.1478200     0.6200950     0.0003100
  C       -2.3044840     0.0081730    -0.0002990
  C        1.4946030     0.0549024     0.1293870
  H       -0.7052620    -1.1537770     0.8794380
  H       -0.7047750    -1.1544660    -0.8781930
  H        0.0039960     1.2557980     0.8812230
  H        0.0030960     1.2567630    -0.8797780
  H       -2.4949090     0.6237750     0.8839850
  H       -2.4950800     0.6211070    -0.8863780
  H       -3.0255150    -0.8133870     0.0010390
units angstrom
no_reorient  #important for SAPT in psi4, default
symmetry c1  #important for SAPT in psi4, default
}

set PROPERTIES_ORIGIN ["COM"]
properties('MP2/aug-cc-pvtz', properties = ['dipole'])
--------------------------------------------------------------------------

    Molecular point group: c1
  Charge       = 0
  Multiplicity = 1
  Basis Set: AUG-CC-PVTZ
    Blend: AUG-CC-PVTZ
  Basis Set: (AUG-CC-PVTZ AUX)
    Blend: AUG-CC-PVTZ-JKFIT

    Orbital Energies [Eh]
    ---------------------

    Doubly Occupied:

       1A    -15.581663     2A    -11.286382     3A    -11.284799
       4A    -11.252890     5A    -11.235863     6A     -1.200188
       7A     -1.102157     8A     -0.986121     9A     -0.844847
      10A     -0.711423    11A     -0.670970    12A     -0.605198
      13A     -0.583338    14A     -0.565225    15A     -0.527515
      16A     -0.518624    17A     -0.505964    18A     -0.445622
      19A     -0.442716

  @DF-RHF Final Energy:  -210.05681001615602

   => Energetics <=

    Nuclear Repulsion Energy =            153.5805183635440869
    One-Electron Energy =                -586.5716467880828304
    Two-Electron Energy =                 222.9343184083826941
    Total Energy =                       -210.0568100161560210
  Basis Set: (AUG-CC-PVTZ AUX)
    Blend: AUG-CC-PVTZ-RI
    Molecular point group: c1

    Geometry (in Angstrom), charge = 0, multiplicity = 1:

       Center              X                  Y                   Z               Mass
    ------------   -----------------  -----------------  -----------------  -----------------
         N            2.503640581565    -0.268830493155    -0.022584822424    14.003074004430
         C           -1.004224418435    -0.501818493155    -0.022241822424    12.000000000000
         C            0.018424581565     0.642100506845    -0.022241822424    12.000000000000
         C           -2.433879418435     0.030178506845    -0.022850822424    12.000000000000
         C            1.365207581565     0.076907906845     0.106835177576    12.000000000000
         H           -0.834657418435    -1.131771493155     0.856886177576     1.007825032230
         H           -0.834170418435    -1.132460493155    -0.900744822424     1.007825032230
         H           -0.125399418435     1.277803506845     0.858671177576     1.007825032230
         H           -0.126299418435     1.278768506845    -0.902329822424     1.007825032230
         H           -2.624304418435     0.645780506845     0.861433177576     1.007825032230
         H           -2.624475418435     0.643112506845    -0.908929822424     1.007825032230
         H           -3.154910418435    -0.791381493155    -0.021512822424     1.007825032230

  Basis Set: AUG-CC-PVTZ
    Blend: AUG-CC-PVTZ
  Basis Set: (AUG-CC-PVTZ AUX)
    Blend: AUG-CC-PVTZ-JKFIT
	 Reference Energy          =    -210.0568100161560210 [Eh]
	 Singles Energy            =      -0.0000000000000000 [Eh]
	 Same-Spin Energy          =      -0.2195463776007499 [Eh]
	 Opposite-Spin Energy      =      -0.7562129700881313 [Eh]
	 Correlation Energy        =      -0.9757593476888812 [Eh]
	 Total Energy              =    -211.0325693638449138 [Eh]

	 ================> DF-SCS-MP2 Energies <==================
	-----------------------------------------------------------
	 SCS Same-Spin Scale       =       0.3333333333333333 [-]
	 SCS Opposite-Spin Scale   =       1.2000000000000000 [-]
	 SCS Same-Spin Energy      =      -0.0731821258669166 [Eh]
	 SCS Opposite-Spin Energy  =      -0.9074555641057575 [Eh]
	 SCS Correlation Energy    =      -0.9806376899726741 [Eh]
	 SCS Total Energy          =    -211.0374477061286882 [Eh]
	-----------------------------------------------------------

  Dipole Moment: [D]
     X:    -3.9580      Y:     1.0704      Z:     0.0229     Total:     4.1003

*** Psi4 exiting successfully. Buy a developer a beer!
