                               Psi4 1.3.2 release

  ==> Input File <==

--------------------------------------------------------------------------
#psi4
#
memory 32 gb

molecule  {
0 1
  N        2.6330360    -0.2908360    -0.0000330
  C       -0.8748290    -0.5238240     0.0003100
  C        0.1478200     0.6200950     0.0003100
  C       -2.3044840     0.0081730    -0.0002990
  C        1.5246092     0.1161665     0.0211807
  H       -0.7052620    -1.1537770     0.8794380
  H       -0.7047750    -1.1544660    -0.8781930
  H        0.0039960     1.2557980     0.8812230
  H        0.0030960     1.2567630    -0.8797780
  H       -2.4949090     0.6237750     0.8839850
  H       -2.4950800     0.6211070    -0.8863780
  H       -3.0255150    -0.8133870     0.0010390
units angstrom
no_reorient  #important for SAPT in psi4, default
symmetry c1  #important for SAPT in psi4, default
}

set PROPERTIES_ORIGIN ["COM"]
properties('MP2/aug-cc-pvtz', properties = ['dipole'])
--------------------------------------------------------------------------

    Molecular point group: c1
  Charge       = 0
  Multiplicity = 1
  Basis Set: AUG-CC-PVTZ
    Blend: AUG-CC-PVTZ
  Basis Set: (AUG-CC-PVTZ AUX)
    Blend: AUG-CC-PVTZ-JKFIT

    Orbital Energies [Eh]
    ---------------------

    Doubly Occupied:

       1A    -15.575238     2A    -11.284892     3A    -11.281188
       4A    -11.253728     5A    -11.236640     6A     -1.205663
       7A     -1.102137     8A     -0.987258     9A     -0.846440
      10A     -0.706865    11A     -0.672414    12A     -0.604831
      13A     -0.584115    14A     -0.563930    15A     -0.529924
      16A     -0.518886    17A     -0.506570    18A     -0.449414
      19A     -0.446556

  @DF-RHF Final Energy:  -210.06604132041630

   => Energetics <=

    Nuclear Repulsion Energy =            153.6254736255378646
    One-Electron Energy =                -586.6696525729357745
    Two-Electron Energy =                 222.9781376269815780
    Total Energy =                       -210.0660413204163035
  Basis Set: (AUG-CC-PVTZ AUX)
    Blend: AUG-CC-PVTZ-RI
    Molecular point group: c1

    Geometry (in Angstrom), charge = 0, multiplicity = 1:

       Center              X                  Y                   Z               Mass
    ------------   -----------------  -----------------  -----------------  -----------------
         N            2.498426483472    -0.279476193943    -0.003782099569    14.003074004430
         C           -1.009438516528    -0.512464193943    -0.003439099569    12.000000000000
         C            0.013210483472     0.631454806057    -0.003439099569    12.000000000000
         C           -2.439093516528     0.019532806057    -0.004048099569    12.000000000000
         C            1.389999683472     0.127526306057     0.017431600431    12.000000000000
         H           -0.839871516528    -1.142417193943     0.875688900431     1.007825032230
         H           -0.839384516528    -1.143106193943    -0.881942099569     1.007825032230
         H           -0.130613516528     1.267157806057     0.877473900431     1.007825032230
         H           -0.131513516528     1.268122806057    -0.883527099569     1.007825032230
         H           -2.629518516528     0.635134806057     0.880235900431     1.007825032230
         H           -2.629689516528     0.632466806057    -0.890127099569     1.007825032230
         H           -3.160124516528    -0.802027193943    -0.002710099569     1.007825032230

  Basis Set: AUG-CC-PVTZ
    Blend: AUG-CC-PVTZ
  Basis Set: (AUG-CC-PVTZ AUX)
    Blend: AUG-CC-PVTZ-JKFIT
	 Reference Energy          =    -210.0660413204163035 [Eh]
	 Singles Energy            =      -0.0000000000000000 [Eh]
	 Same-Spin Energy          =      -0.2182994965077779 [Eh]
	 Opposite-Spin Energy      =      -0.7533038923508522 [Eh]
	 Correlation Energy        =      -0.9716033888586301 [Eh]
	 Total Energy              =    -211.0376447092749288 [Eh]

	 ================> DF-SCS-MP2 Energies <==================
	-----------------------------------------------------------
	 SCS Same-Spin Scale       =       0.3333333333333333 [-]
	 SCS Opposite-Spin Scale   =       1.2000000000000000 [-]
	 SCS Same-Spin Energy      =      -0.0727664988359260 [Eh]
	 SCS Opposite-Spin Energy  =      -0.9039646708210225 [Eh]
	 SCS Correlation Energy    =      -0.9767311696569485 [Eh]
	 SCS Total Energy          =    -211.0427724900732471 [Eh]
	-----------------------------------------------------------

  Dipole Moment: [D]
     X:    -4.0229      Y:     1.0896      Z:     0.0049     Total:     4.1678

*** Psi4 exiting successfully. Buy a developer a beer!
