                               Psi4 1.4a3.dev225

  ==> Input File <==

--------------------------------------------------------------------------
#psi4
#
memory 32 gb

molecule  {
0 1
  N       -2.6327470    -0.2908650     0.0000010
  C        0.8748260    -0.5239910    -0.0000010
  C       -0.1478930     0.6200730     0.0000000
  C        2.3042230     0.0082410     0.0000000
  C       -1.4823897     0.1467789    -0.0000011
  H        0.7048460    -1.1542040    -0.8788150
  H        0.7048450    -1.1542040     0.8788140
  H       -0.0035770     1.2562870    -0.8804710
  H       -0.0035780     1.2562840     0.8804720
  H        2.4945510     0.6225650    -0.8851870
  H        2.4945510     0.6225600     0.8851910
  H        3.0253870    -0.8131700    -0.0000020
units angstrom
no_reorient  #important for SAPT in psi4, default
symmetry c1  #important for SAPT in psi4, default
}

set PROPERTIES_ORIGIN ["COM"]
properties('MP2/aug-cc-pvtz', properties = ['dipole'])
--------------------------------------------------------------------------

    Molecular point group: c1
  Charge       = 0
  Multiplicity = 1
  Basis Set: AUG-CC-PVTZ
    Blend: AUG-CC-PVTZ
  Basis Set: (AUG-CC-PVTZ AUX)
    Blend: AUG-CC-PVTZ-JKFIT

    Orbital Energies [Eh]
    ---------------------

    Doubly Occupied:

       1A    -15.588829     2A    -11.295362     3A    -11.280998
       4A    -11.255453     5A    -11.237405     6A     -1.187137
       7A     -1.104766     8A     -0.995655     9A     -0.850589
      10A     -0.716879    11A     -0.675684    12A     -0.607365
      13A     -0.586856    14A     -0.564911    15A     -0.531527
      16A     -0.520353    17A     -0.507756    18A     -0.433816
      19A     -0.431412

  @DF-RHF Final Energy:  -210.04795398037732

   => Energetics <=

    Nuclear Repulsion Energy =            153.5959524313300903
    One-Electron Energy =                -586.5423063731877846
    Two-Electron Energy =                 222.8983999614803793
    Total Energy =                       -210.0479539803773150
  Basis Set: (AUG-CC-PVTZ AUX)
    Blend: AUG-CC-PVTZ-RI
    Molecular point group: c1

    Geometry (in Angstrom), charge = 0, multiplicity = 1:

       Center              X                  Y                   Z               Mass
    ------------   -----------------  -----------------  -----------------  -----------------
         N           -2.505453114514    -0.284802174686     0.000001132951    14.003074004430
         C            1.002119885486    -0.517928174686    -0.000000867049    12.000000000000
         C           -0.020599114514     0.626135825314     0.000000132951    12.000000000000
         C            2.431516885486     0.014303825314     0.000000132951    12.000000000000
         C           -1.355095814514     0.152841725314    -0.000000967049    12.000000000000
         H            0.832139885486    -1.148141174686    -0.878814867049     1.007825032230
         H            0.832138885486    -1.148141174686     0.878814132951     1.007825032230
         H            0.123716885486     1.262349825314    -0.880470867049     1.007825032230
         H            0.123715885486     1.262346825314     0.880472132951     1.007825032230
         H            2.621844885486     0.628627825314    -0.885186867049     1.007825032230
         H            2.621844885486     0.628622825314     0.885191132951     1.007825032230
         H            3.152680885486    -0.807107174686    -0.000001867049     1.007825032230

  Basis Set: AUG-CC-PVTZ
    Blend: AUG-CC-PVTZ
  Basis Set: (AUG-CC-PVTZ AUX)
    Blend: AUG-CC-PVTZ-JKFIT
	 Reference Energy          =    -210.0479539803773150 [Eh]
	 Singles Energy            =      -0.0000000000000000 [Eh]
	 Same-Spin Energy          =      -0.2222309282607575 [Eh]
	 Opposite-Spin Energy      =      -0.7605357611985947 [Eh]
	 Correlation Energy        =      -0.9827666894593521 [Eh]
	 Total Energy              =    -211.0307206698366542 [Eh]

	 ================> DF-SCS-MP2 Energies <==================
	-----------------------------------------------------------
	 SCS Same-Spin Scale       =       0.3333333333333333 [-]
	 SCS Opposite-Spin Scale   =       1.2000000000000000 [-]
	 SCS Same-Spin Energy      =      -0.0740769760869192 [Eh]
	 SCS Opposite-Spin Energy  =      -0.9126429134383136 [Eh]
	 SCS Correlation Energy    =      -0.9867198895252327 [Eh]
	 SCS Total Energy          =    -211.0346738699025479 [Eh]
	-----------------------------------------------------------

  Dipole Moment: [D]
     X:     4.0298      Y:     1.0919      Z:    -0.0000     Total:     4.1752

*** Psi4 exiting successfully. Buy a developer a beer!
