                               Psi4 1.3.2 release

  ==> Input File <==

--------------------------------------------------------------------------
#psi4
#
memory 32 gb

molecule  {
0 1
  N        2.6330360    -0.2908360    -0.0000330
  C       -0.8342838    -0.5588171     0.0002778
  C        0.1478200     0.6200950     0.0003100
  C       -2.3044840     0.0081730    -0.0002990
  C        1.5293590     0.1288950    -0.0005060
  H       -0.7052620    -1.1537770     0.8794380
  H       -0.7047750    -1.1544660    -0.8781930
  H        0.0039960     1.2557980     0.8812230
  H        0.0030960     1.2567630    -0.8797780
  H       -2.4949090     0.6237750     0.8839850
  H       -2.4950800     0.6211070    -0.8863780
  H       -3.0255150    -0.8133870     0.0010390
units angstrom
no_reorient  #important for SAPT in psi4, default
symmetry c1  #important for SAPT in psi4, default
}

set PROPERTIES_ORIGIN ["COM"]
properties('MP2/aug-cc-pvtz', properties = ['dipole'])
--------------------------------------------------------------------------

    Molecular point group: c1
  Charge       = 0
  Multiplicity = 1
  Basis Set: AUG-CC-PVTZ
    Blend: AUG-CC-PVTZ
  Basis Set: (AUG-CC-PVTZ AUX)
    Blend: AUG-CC-PVTZ-JKFIT

    Orbital Energies [Eh]
    ---------------------

    Doubly Occupied:

       1A    -15.573954     2A    -11.285151     3A    -11.279937
       4A    -11.252243     5A    -11.238199     6A     -1.205010
       7A     -1.099055     8A     -0.981259     9A     -0.852556
      10A     -0.704272    11A     -0.675515    12A     -0.604032
      13A     -0.583424    14A     -0.560186    15A     -0.528220
      16A     -0.518569    17A     -0.511295    18A     -0.448918
      19A     -0.445135

  @DF-RHF Final Energy:  -210.06401118080993

   => Energetics <=

    Nuclear Repulsion Energy =            153.3868875094094051
    One-Electron Energy =                -586.2079377891717513
    Two-Electron Energy =                 222.7570390989524185
    Total Energy =                       -210.0640111808099277
  Basis Set: (AUG-CC-PVTZ AUX)
    Blend: AUG-CC-PVTZ-RI
    Molecular point group: c1

    Geometry (in Angstrom), charge = 0, multiplicity = 1:

       Center              X                  Y                   Z               Mass
    ------------   -----------------  -----------------  -----------------  -----------------
         N            2.490555690997    -0.275607333228    -0.000008063701    14.003074004430
         C           -0.976764109003    -0.543588433228     0.000302736299    12.000000000000
         C            0.005339690997     0.635323666772     0.000334936299    12.000000000000
         C           -2.446964309003     0.023401666772    -0.000274063701    12.000000000000
         C            1.386878690997     0.144123666772    -0.000481063701    12.000000000000
         H           -0.847742309003    -1.138548333228     0.879462936299     1.007825032230
         H           -0.847255309003    -1.139237333228    -0.878168063701     1.007825032230
         H           -0.138484309003     1.271026666772     0.881247936299     1.007825032230
         H           -0.139384309003     1.271991666772    -0.879753063701     1.007825032230
         H           -2.637389309003     0.639003666772     0.884009936299     1.007825032230
         H           -2.637560309003     0.636335666772    -0.886353063701     1.007825032230
         H           -3.167995309003    -0.798158333228     0.001063936299     1.007825032230

  Basis Set: AUG-CC-PVTZ
    Blend: AUG-CC-PVTZ
  Basis Set: (AUG-CC-PVTZ AUX)
    Blend: AUG-CC-PVTZ-JKFIT
	 Reference Energy          =    -210.0640111808099277 [Eh]
	 Singles Energy            =      -0.0000000000000000 [Eh]
	 Same-Spin Energy          =      -0.2180806920675842 [Eh]
	 Opposite-Spin Energy      =      -0.7531145485451678 [Eh]
	 Correlation Energy        =      -0.9711952406127520 [Eh]
	 Total Energy              =    -211.0352064214226857 [Eh]

	 ================> DF-SCS-MP2 Energies <==================
	-----------------------------------------------------------
	 SCS Same-Spin Scale       =       0.3333333333333333 [-]
	 SCS Opposite-Spin Scale   =       1.2000000000000000 [-]
	 SCS Same-Spin Energy      =      -0.0726935640225281 [Eh]
	 SCS Opposite-Spin Energy  =      -0.9037374582542013 [Eh]
	 SCS Correlation Energy    =      -0.9764310222767294 [Eh]
	 SCS Total Energy          =    -211.0404422030866556 [Eh]
	-----------------------------------------------------------

  Dipole Moment: [D]
     X:    -4.0201      Y:     1.0900      Z:     0.0005     Total:     4.1652

*** Psi4 exiting successfully. Buy a developer a beer!
