                               Psi4 1.3.2 release

  ==> Input File <==

--------------------------------------------------------------------------
#psi4
#
memory 32 gb

molecule  {
0 1
  N        2.6330360    -0.2908360    -0.0000330
  C       -0.8748290    -0.5238240     0.0003100
  C        0.1478200     0.6200950     0.0003100
  C       -2.3044840     0.0081730    -0.0002990
  C        1.4358900     0.1644415    -0.0005461
  H       -0.7052620    -1.1537770     0.8794380
  H       -0.7047750    -1.1544660    -0.8781930
  H        0.0039960     1.2557980     0.8812230
  H        0.0030960     1.2567630    -0.8797780
  H       -2.4949090     0.6237750     0.8839850
  H       -2.4950800     0.6211070    -0.8863780
  H       -3.0255150    -0.8133870     0.0010390
units angstrom
no_reorient  #important for SAPT in psi4, default
symmetry c1  #important for SAPT in psi4, default
}

set PROPERTIES_ORIGIN ["COM"]
properties('MP2/aug-cc-pvtz', properties = ['dipole'])
--------------------------------------------------------------------------

    Molecular point group: c1
  Charge       = 0
  Multiplicity = 1
  Basis Set: AUG-CC-PVTZ
    Blend: AUG-CC-PVTZ
  Basis Set: (AUG-CC-PVTZ AUX)
    Blend: AUG-CC-PVTZ-JKFIT

    Orbital Energies [Eh]
    ---------------------

    Doubly Occupied:

       1A    -15.600292     2A    -11.307757     3A    -11.277381
       4A    -11.257567     5A    -11.238407     6A     -1.175106
       7A     -1.103791     8A     -1.003785     9A     -0.854734
      10A     -0.726344    11A     -0.679815    12A     -0.610779
      13A     -0.590129    14A     -0.564930    15A     -0.532810
      16A     -0.522250    17A     -0.509349    18A     -0.418573
      19A     -0.416363

  @DF-RHF Final Energy:  -210.01898127649906

   => Energetics <=

    Nuclear Repulsion Energy =            153.6809443065799030
    One-Electron Energy =                -586.6195282457116491
    Two-Electron Energy =                 222.9196026626326557
    Total Energy =                       -210.0189812764990620
  Basis Set: (AUG-CC-PVTZ AUX)
    Blend: AUG-CC-PVTZ-RI
    Molecular point group: c1

    Geometry (in Angstrom), charge = 0, multiplicity = 1:

       Center              X                  Y                   Z               Mass
    ------------   -----------------  -----------------  -----------------  -----------------
         N            2.513842984447    -0.287864813144    -0.000006690939    14.003074004430
         C           -0.994022015553    -0.520852813144     0.000336309061    12.000000000000
         C            0.028626984447     0.623066186856     0.000336309061    12.000000000000
         C           -2.423677015553     0.011144186856    -0.000272690939    12.000000000000
         C            1.316696984447     0.167412686856    -0.000519790939    12.000000000000
         H           -0.824455015553    -1.150805813144     0.879464309061     1.007825032230
         H           -0.823968015553    -1.151494813144    -0.878166690939     1.007825032230
         H           -0.115197015553     1.258769186856     0.881249309061     1.007825032230
         H           -0.116097015553     1.259734186856    -0.879751690939     1.007825032230
         H           -2.614102015553     0.626746186856     0.884011309061     1.007825032230
         H           -2.614273015553     0.624078186856    -0.886351690939     1.007825032230
         H           -3.144708015553    -0.810415813144     0.001065309061     1.007825032230

  Basis Set: AUG-CC-PVTZ
    Blend: AUG-CC-PVTZ
  Basis Set: (AUG-CC-PVTZ AUX)
    Blend: AUG-CC-PVTZ-JKFIT
	 Reference Energy          =    -210.0189812764990620 [Eh]
	 Singles Energy            =      -0.0000000000000000 [Eh]
	 Same-Spin Energy          =      -0.2265603929246474 [Eh]
	 Opposite-Spin Energy      =      -0.7684500684787401 [Eh]
	 Correlation Energy        =      -0.9950104614033874 [Eh]
	 Total Energy              =    -211.0139917379024439 [Eh]

	 ================> DF-SCS-MP2 Energies <==================
	-----------------------------------------------------------
	 SCS Same-Spin Scale       =       0.3333333333333333 [-]
	 SCS Opposite-Spin Scale   =       1.2000000000000000 [-]
	 SCS Same-Spin Energy      =      -0.0755201309748824 [Eh]
	 SCS Opposite-Spin Energy  =      -0.9221400821744881 [Eh]
	 SCS Correlation Energy    =      -0.9976602131493705 [Eh]
	 SCS Total Energy          =    -211.0166414896484355 [Eh]
	-----------------------------------------------------------

  Dipole Moment: [D]
     X:    -4.0452      Y:     1.0941      Z:     0.0008     Total:     4.1905

*** Psi4 exiting successfully. Buy a developer a beer!
