                               Psi4 1.3.2 release

  ==> Input File <==

--------------------------------------------------------------------------
#psi4
#
memory 32 gb

molecule  {
0 1
  N        2.6330360    -0.2908360    -0.0000330
  C       -0.8748290    -0.5238240     0.0003100
  C        0.1478200     0.6200950     0.0003100
  C       -2.3044840     0.0081730    -0.0002990
  C        1.6235808     0.0953949    -0.0005617
  H       -0.7052620    -1.1537770     0.8794380
  H       -0.7047750    -1.1544660    -0.8781930
  H        0.0039960     1.2557980     0.8812230
  H        0.0030960     1.2567630    -0.8797780
  H       -2.4949090     0.6237750     0.8839850
  H       -2.4950800     0.6211070    -0.8863780
  H       -3.0255150    -0.8133870     0.0010390
units angstrom
no_reorient  #important for SAPT in psi4, default
symmetry c1  #important for SAPT in psi4, default
}

set PROPERTIES_ORIGIN ["COM"]
properties('MP2/aug-cc-pvtz', properties = ['dipole'])
--------------------------------------------------------------------------

    Molecular point group: c1
  Charge       = 0
  Multiplicity = 1
  Basis Set: AUG-CC-PVTZ
    Blend: AUG-CC-PVTZ
  Basis Set: (AUG-CC-PVTZ AUX)
    Blend: AUG-CC-PVTZ-JKFIT

    Orbital Energies [Eh]
    ---------------------

    Doubly Occupied:

       1A    -15.542036     2A    -11.292440     3A    -11.252033
       4A    -11.248596     5A    -11.236284     6A     -1.249477
       7A     -1.095133     8A     -0.972848     9A     -0.840301
      10A     -0.681912    11A     -0.668100    12A     -0.601009
      13A     -0.580990    14A     -0.558976    15A     -0.528809
      16A     -0.517289    17A     -0.506650    18A     -0.480862
      19A     -0.477004

  @DF-RHF Final Energy:  -210.06159422854878

   => Energetics <=

    Nuclear Repulsion Energy =            153.9188827746866650
    One-Electron Energy =                -587.2994543948512955
    Two-Electron Energy =                 223.3189773916158458
    Total Energy =                       -210.0615942285487847
  Basis Set: (AUG-CC-PVTZ AUX)
    Blend: AUG-CC-PVTZ-RI
    Molecular point group: c1

    Geometry (in Angstrom), charge = 0, multiplicity = 1:

       Center              X                  Y                   Z               Mass
    ------------   -----------------  -----------------  -----------------  -----------------
         N            2.481228450037    -0.275866767893    -0.000003980168    14.003074004430
         C           -1.026636549963    -0.508854767893     0.000339019832    12.000000000000
         C           -0.003987549963     0.635064232107     0.000339019832    12.000000000000
         C           -2.456291549963     0.023142232107    -0.000269980168    12.000000000000
         C            1.471773250037     0.110364132107    -0.000532680168    12.000000000000
         H           -0.857069549963    -1.138807767893     0.879467019832     1.007825032230
         H           -0.856582549963    -1.139496767893    -0.878163980168     1.007825032230
         H           -0.147811549963     1.270767232107     0.881252019832     1.007825032230
         H           -0.148711549963     1.271732232107    -0.879748980168     1.007825032230
         H           -2.646716549963     0.638744232107     0.884014019832     1.007825032230
         H           -2.646887549963     0.636076232107    -0.886348980168     1.007825032230
         H           -3.177322549963    -0.798417767893     0.001068019832     1.007825032230

  Basis Set: AUG-CC-PVTZ
    Blend: AUG-CC-PVTZ
  Basis Set: (AUG-CC-PVTZ AUX)
    Blend: AUG-CC-PVTZ-JKFIT
	 Reference Energy          =    -210.0615942285487847 [Eh]
	 Singles Energy            =      -0.0000000000000000 [Eh]
	 Same-Spin Energy          =      -0.2115972104910045 [Eh]
	 Opposite-Spin Energy      =      -0.7406854845665816 [Eh]
	 Correlation Energy        =      -0.9522826950575861 [Eh]
	 Total Energy              =    -211.0138769236063752 [Eh]

	 ================> DF-SCS-MP2 Energies <==================
	-----------------------------------------------------------
	 SCS Same-Spin Scale       =       0.3333333333333333 [-]
	 SCS Opposite-Spin Scale   =       1.2000000000000000 [-]
	 SCS Same-Spin Energy      =      -0.0705324034970015 [Eh]
	 SCS Opposite-Spin Energy  =      -0.8888225814798979 [Eh]
	 SCS Correlation Energy    =      -0.9593549849768994 [Eh]
	 SCS Total Energy          =    -211.0209492135256824 [Eh]
	-----------------------------------------------------------

  Dipole Moment: [D]
     X:    -4.0628      Y:     1.0963      Z:     0.0003     Total:     4.2081

*** Psi4 exiting successfully. Buy a developer a beer!
