                               Psi4 1.3.2 release

  ==> Input File <==

--------------------------------------------------------------------------
#psi4
#
memory 32 gb

molecule  {
0 1
  N        2.6330360    -0.2908360    -0.0000330
  C       -0.9887989    -0.4106616     0.0004064
  C        0.1478200     0.6200950     0.0003100
  C       -2.3044840     0.0081730    -0.0002990
  C        1.5293590     0.1288950    -0.0005060
  H       -0.7052620    -1.1537770     0.8794380
  H       -0.7047750    -1.1544660    -0.8781930
  H        0.0039960     1.2557980     0.8812230
  H        0.0030960     1.2567630    -0.8797780
  H       -2.4949090     0.6237750     0.8839850
  H       -2.4950800     0.6211070    -0.8863780
  H       -3.0255150    -0.8133870     0.0010390
units angstrom
no_reorient  #important for SAPT in psi4, default
symmetry c1  #important for SAPT in psi4, default
}

set PROPERTIES_ORIGIN ["COM"]
properties('MP2/aug-cc-pvtz', properties = ['dipole'])
--------------------------------------------------------------------------

    Molecular point group: c1
  Charge       = 0
  Multiplicity = 1
  Basis Set: AUG-CC-PVTZ
    Blend: AUG-CC-PVTZ
  Basis Set: (AUG-CC-PVTZ AUX)
    Blend: AUG-CC-PVTZ-JKFIT

    Orbital Energies [Eh]
    ---------------------

    Doubly Occupied:

       1A    -15.579014     2A    -11.286531     3A    -11.285293
       4A    -11.263268     5A    -11.232003     6A     -1.208335
       7A     -1.118522     8A     -1.008359     9A     -0.828351
      10A     -0.712834    11A     -0.669377    12A     -0.610468
      13A     -0.594664    14A     -0.590648    15A     -0.550808
      16A     -0.503323    17A     -0.466780    18A     -0.447539
      19A     -0.447231

  @DF-RHF Final Energy:  -210.03495950297963

   => Energetics <=

    Nuclear Repulsion Energy =            154.3470618875404625
    One-Electron Energy =                -587.9573486296794727
    Two-Electron Energy =                 223.5753272391593782
    Total Energy =                       -210.0349595029796319
  Basis Set: (AUG-CC-PVTZ AUX)
    Blend: AUG-CC-PVTZ-RI
    Molecular point group: c1

    Geometry (in Angstrom), charge = 0, multiplicity = 1:

       Center              X                  Y                   Z               Mass
    ------------   -----------------  -----------------  -----------------  -----------------
         N            2.517405371673    -0.301351923015    -0.000030410183    14.003074004430
         C           -1.104429528327    -0.421177523015     0.000408989817    12.000000000000
         C            0.032189371673     0.609579076985     0.000312589817    12.000000000000
         C           -2.420114628327    -0.002342923015    -0.000296410183    12.000000000000
         C            1.413728371673     0.118379076985    -0.000503410183    12.000000000000
         H           -0.820892628327    -1.164292923015     0.879440589817     1.007825032230
         H           -0.820405628327    -1.164981923015    -0.878190410183     1.007825032230
         H           -0.111634628327     1.245282076985     0.881225589817     1.007825032230
         H           -0.112534628327     1.246247076985    -0.879775410183     1.007825032230
         H           -2.610539628327     0.613259076985     0.883987589817     1.007825032230
         H           -2.610710628327     0.610591076985    -0.886375410183     1.007825032230
         H           -3.141145628327    -0.823902923015     0.001041589817     1.007825032230

  Basis Set: AUG-CC-PVTZ
    Blend: AUG-CC-PVTZ
  Basis Set: (AUG-CC-PVTZ AUX)
    Blend: AUG-CC-PVTZ-JKFIT
	 Reference Energy          =    -210.0349595029796319 [Eh]
	 Singles Energy            =      -0.0000000000000000 [Eh]
	 Same-Spin Energy          =      -0.2200233769115447 [Eh]
	 Opposite-Spin Energy      =      -0.7560440338608680 [Eh]
	 Correlation Energy        =      -0.9760674107724128 [Eh]
	 Total Energy              =    -211.0110269137520334 [Eh]

	 ================> DF-SCS-MP2 Energies <==================
	-----------------------------------------------------------
	 SCS Same-Spin Scale       =       0.3333333333333333 [-]
	 SCS Opposite-Spin Scale   =       1.2000000000000000 [-]
	 SCS Same-Spin Energy      =      -0.0733411256371816 [Eh]
	 SCS Opposite-Spin Energy  =      -0.9072528406330416 [Eh]
	 SCS Correlation Energy    =      -0.9805939662702231 [Eh]
	 SCS Total Energy          =    -211.0155534692498520 [Eh]
	-----------------------------------------------------------

  Dipole Moment: [D]
     X:    -4.0603      Y:     1.1293      Z:     0.0006     Total:     4.2145

*** Psi4 exiting successfully. Buy a developer a beer!
