                               Psi4 1.4a3.dev225

  ==> Input File <==

--------------------------------------------------------------------------
#psi4
#
memory 32 gb

molecule  {
0 1
  N       -2.6327470    -0.2908650     0.0000010
  C        0.8748260    -0.5239910    -0.0000010
  C       -0.1478930     0.6200730     0.0000000
  C        2.3042230     0.0082410     0.0000000
  C       -1.5758543     0.1112211    -0.0000009
  H        0.7048460    -1.1542040    -0.8788150
  H        0.7048450    -1.1542040     0.8788140
  H       -0.0035770     1.2562870    -0.8804710
  H       -0.0035780     1.2562840     0.8804720
  H        2.4945510     0.6225650    -0.8851870
  H        2.4945510     0.6225600     0.8851910
  H        3.0253870    -0.8131700    -0.0000020
units angstrom
no_reorient  #important for SAPT in psi4, default
symmetry c1  #important for SAPT in psi4, default
}

set PROPERTIES_ORIGIN ["COM"]
properties('MP2/aug-cc-pvtz', properties = ['dipole'])
--------------------------------------------------------------------------

    Molecular point group: c1
  Charge       = 0
  Multiplicity = 1
  Basis Set: AUG-CC-PVTZ
    Blend: AUG-CC-PVTZ
  Basis Set: (AUG-CC-PVTZ AUX)
    Blend: AUG-CC-PVTZ-JKFIT

    Orbital Energies [Eh]
    ---------------------

    Doubly Occupied:

       1A    -15.559390     2A    -11.288619     3A    -11.265412
       4A    -11.252754     5A    -11.236383     6A     -1.227160
       7A     -1.098441     8A     -0.979797     9A     -0.843317
      10A     -0.694664    11A     -0.669966    12A     -0.602634
      13A     -0.582279    14A     -0.561897    15A     -0.529150
      16A     -0.517925    17A     -0.506116    18A     -0.465147
      19A     -0.461881

  @DF-RHF Final Energy:  -210.07180230004593

   => Energetics <=

    Nuclear Repulsion Energy =            153.7121024897759582
    One-Electron Energy =                -586.8819476296343964
    Two-Electron Energy =                 223.0980428398125355
    Total Energy =                       -210.0718023000459311
  Basis Set: (AUG-CC-PVTZ AUX)
    Blend: AUG-CC-PVTZ-RI
    Molecular point group: c1

    Geometry (in Angstrom), charge = 0, multiplicity = 1:

       Center              X                  Y                   Z               Mass
    ------------   -----------------  -----------------  -----------------  -----------------
         N           -2.489212017919    -0.278623389729     0.000001098197    14.003074004430
         C            1.018360982081    -0.511749389729    -0.000000901803    12.000000000000
         C           -0.004358017919     0.632314610271     0.000000098197    12.000000000000
         C            2.447757982081     0.020482610271     0.000000098197    12.000000000000
         C           -1.432319317919     0.123462710271    -0.000000801803    12.000000000000
         H            0.848380982081    -1.141962389729    -0.878814901803     1.007825032230
         H            0.848379982081    -1.141962389729     0.878814098197     1.007825032230
         H            0.139957982081     1.268528610271    -0.880470901803     1.007825032230
         H            0.139956982081     1.268525610271     0.880472098197     1.007825032230
         H            2.638085982081     0.634806610271    -0.885186901803     1.007825032230
         H            2.638085982081     0.634801610271     0.885191098197     1.007825032230
         H            3.168921982081    -0.800928389729    -0.000001901803     1.007825032230

  Basis Set: AUG-CC-PVTZ
    Blend: AUG-CC-PVTZ
  Basis Set: (AUG-CC-PVTZ AUX)
    Blend: AUG-CC-PVTZ-JKFIT
	 Reference Energy          =    -210.0718023000459311 [Eh]
	 Singles Energy            =      -0.0000000000000000 [Eh]
	 Same-Spin Energy          =      -0.2147359745093239 [Eh]
	 Opposite-Spin Energy      =      -0.7466321705251933 [Eh]
	 Correlation Energy        =      -0.9613681450345171 [Eh]
	 Total Energy              =    -211.0331704450804580 [Eh]

	 ================> DF-SCS-MP2 Energies <==================
	-----------------------------------------------------------
	 SCS Same-Spin Scale       =       0.3333333333333333 [-]
	 SCS Opposite-Spin Scale   =       1.2000000000000000 [-]
	 SCS Same-Spin Energy      =      -0.0715786581697746 [Eh]
	 SCS Opposite-Spin Energy  =      -0.8959586046302319 [Eh]
	 SCS Correlation Energy    =      -0.9675372628000065 [Eh]
	 SCS Total Energy          =    -211.0393395628459245 [Eh]
	-----------------------------------------------------------

  Dipole Moment: [D]
     X:     4.0375      Y:     1.0922      Z:    -0.0000     Total:     4.1826

*** Psi4 exiting successfully. Buy a developer a beer!
