                               Psi4 1.4a3.dev225

  ==> Input File <==

--------------------------------------------------------------------------
#psi4
#
memory 32 gb

molecule  {
0 1
  N       -2.6327470    -0.2908650     0.0000010
  C        0.8748260    -0.5239910    -0.0000010
  C       -0.1478930     0.6200730     0.0000000
  C        2.3042230     0.0082410     0.0000000
  C       -1.5104291     0.1361116    -0.0000010
  H        0.7048460    -1.1542040    -0.8788150
  H        0.7048450    -1.1542040     0.8788140
  H       -0.0035770     1.2562870    -0.8804710
  H       -0.0035780     1.2562840     0.8804720
  H        2.4945510     0.6225650    -0.8851870
  H        2.4945510     0.6225600     0.8851910
  H        3.0253870    -0.8131700    -0.0000020
units angstrom
no_reorient  #important for SAPT in psi4, default
symmetry c1  #important for SAPT in psi4, default
}

set PROPERTIES_ORIGIN ["COM"]
properties('MP2/aug-cc-pvtz', properties = ['dipole'])
--------------------------------------------------------------------------

    Molecular point group: c1
  Charge       = 0
  Multiplicity = 1
  Basis Set: AUG-CC-PVTZ
    Blend: AUG-CC-PVTZ
  Basis Set: (AUG-CC-PVTZ AUX)
    Blend: AUG-CC-PVTZ-JKFIT

    Orbital Energies [Eh]
    ---------------------

    Doubly Occupied:

       1A    -15.580851     2A    -11.287073     3A    -11.283227
       4A    -11.254448     5A    -11.236976     6A     -1.197765
       7A     -1.103329     8A     -0.990720     9A     -0.848253
      10A     -0.710678    11A     -0.673643    12A     -0.605684
      13A     -0.585206    14A     -0.564426    15A     -0.530726
      16A     -0.519430    17A     -0.507028    18A     -0.443096
      19A     -0.440513

  @DF-RHF Final Energy:  -210.06032496373427

   => Energetics <=

    Nuclear Repulsion Energy =            153.5870226307012558
    One-Electron Energy =                -586.5685476451413933
    Two-Electron Energy =                 222.9212000507058633
    Total Energy =                       -210.0603249637342742
  Basis Set: (AUG-CC-PVTZ AUX)
    Blend: AUG-CC-PVTZ-RI
    Molecular point group: c1

    Geometry (in Angstrom), charge = 0, multiplicity = 1:

       Center              X                  Y                   Z               Mass
    ------------   -----------------  -----------------  -----------------  -----------------
         N           -2.500580782060    -0.282948546149     0.000001115574    14.003074004430
         C            1.006992217940    -0.516074546149    -0.000000884426    12.000000000000
         C           -0.015726782060     0.627989453851     0.000000115574    12.000000000000
         C            2.436389217940     0.016157453851     0.000000115574    12.000000000000
         C           -1.378262882060     0.144028053851    -0.000000884426    12.000000000000
         H            0.837012217940    -1.146287546149    -0.878814884426     1.007825032230
         H            0.837011217940    -1.146287546149     0.878814115574     1.007825032230
         H            0.128589217940     1.264203453851    -0.880470884426     1.007825032230
         H            0.128588217940     1.264200453851     0.880472115574     1.007825032230
         H            2.626717217940     0.630481453851    -0.885186884426     1.007825032230
         H            2.626717217940     0.630476453851     0.885191115574     1.007825032230
         H            3.157553217940    -0.805253546149    -0.000001884426     1.007825032230

  Basis Set: AUG-CC-PVTZ
    Blend: AUG-CC-PVTZ
  Basis Set: (AUG-CC-PVTZ AUX)
    Blend: AUG-CC-PVTZ-JKFIT
	 Reference Energy          =    -210.0603249637342742 [Eh]
	 Singles Energy            =      -0.0000000000000000 [Eh]
	 Same-Spin Energy          =      -0.2198125483343086 [Eh]
	 Opposite-Spin Energy      =      -0.7560839218264161 [Eh]
	 Correlation Energy        =      -0.9758964701607247 [Eh]
	 Total Energy              =    -211.0362214338950082 [Eh]

	 ================> DF-SCS-MP2 Energies <==================
	-----------------------------------------------------------
	 SCS Same-Spin Scale       =       0.3333333333333333 [-]
	 SCS Opposite-Spin Scale   =       1.2000000000000000 [-]
	 SCS Same-Spin Energy      =      -0.0732708494447695 [Eh]
	 SCS Opposite-Spin Energy  =      -0.9073007061916993 [Eh]
	 SCS Correlation Energy    =      -0.9805715556364688 [Eh]
	 SCS Total Energy          =    -211.0408965193707331 [Eh]
	-----------------------------------------------------------

  Dipole Moment: [D]
     X:     4.0262      Y:     1.0911      Z:    -0.0000     Total:     4.1714

*** Psi4 exiting successfully. Buy a developer a beer!
