                               Psi4 1.3.2 release

  ==> Input File <==

--------------------------------------------------------------------------
#psi4
#
memory 32 gb

molecule  {
0 1
  N        2.6330360    -0.2908360    -0.0000330
  C       -0.8748290    -0.5238240     0.0003100
  C        0.1478200     0.6200950     0.0003100
  C       -2.3044840     0.0081730    -0.0002990
  C        1.5375947     0.1547970    -0.0438721
  H       -0.7052620    -1.1537770     0.8794380
  H       -0.7047750    -1.1544660    -0.8781930
  H        0.0039960     1.2557980     0.8812230
  H        0.0030960     1.2567630    -0.8797780
  H       -2.4949090     0.6237750     0.8839850
  H       -2.4950800     0.6211070    -0.8863780
  H       -3.0255150    -0.8133870     0.0010390
units angstrom
no_reorient  #important for SAPT in psi4, default
symmetry c1  #important for SAPT in psi4, default
}

set PROPERTIES_ORIGIN ["COM"]
properties('MP2/aug-cc-pvtz', properties = ['dipole'])
--------------------------------------------------------------------------

    Molecular point group: c1
  Charge       = 0
  Multiplicity = 1
  Basis Set: AUG-CC-PVTZ
    Blend: AUG-CC-PVTZ
  Basis Set: (AUG-CC-PVTZ AUX)
    Blend: AUG-CC-PVTZ-JKFIT

    Orbital Energies [Eh]
    ---------------------

    Doubly Occupied:

       1A    -15.576052     2A    -11.284863     3A    -11.281954
       4A    -11.254169     5A    -11.236981     6A     -1.204643
       7A     -1.101598     8A     -0.987746     9A     -0.847375
      10A     -0.705509    11A     -0.672183    12A     -0.604344
      13A     -0.584387    14A     -0.564061    15A     -0.530598
      16A     -0.518776    17A     -0.506714    18A     -0.448437
      19A     -0.446074

  @DF-RHF Final Energy:  -210.06505569063745

   => Energetics <=

    Nuclear Repulsion Energy =            153.4824603747955791
    One-Electron Energy =                -586.3821004302296842
    Two-Electron Energy =                 222.8345843647966831
    Total Energy =                       -210.0650556906374504
  Basis Set: (AUG-CC-PVTZ AUX)
    Blend: AUG-CC-PVTZ-RI
    Molecular point group: c1

    Geometry (in Angstrom), charge = 0, multiplicity = 1:

       Center              X                  Y                   Z               Mass
    ------------   -----------------  -----------------  -----------------  -----------------
         N            2.496170027446    -0.286188913861     0.007521953608    14.003074004430
         C           -1.011694972554    -0.519176913861     0.007864953608    12.000000000000
         C            0.010954027446     0.624742086139     0.007864953608    12.000000000000
         C           -2.441349972554     0.012820086139     0.007255953608    12.000000000000
         C            1.400728727446     0.159444086139    -0.036317146392    12.000000000000
         H           -0.842127972554    -1.149129913861     0.886992953608     1.007825032230
         H           -0.841640972554    -1.149818913861    -0.870638046392     1.007825032230
         H           -0.132869972554     1.260445086139     0.888777953608     1.007825032230
         H           -0.133769972554     1.261410086139    -0.872223046392     1.007825032230
         H           -2.631774972554     0.628422086139     0.891539953608     1.007825032230
         H           -2.631945972554     0.625754086139    -0.878823046392     1.007825032230
         H           -3.162380972554    -0.808739913861     0.008593953608     1.007825032230

  Basis Set: AUG-CC-PVTZ
    Blend: AUG-CC-PVTZ
  Basis Set: (AUG-CC-PVTZ AUX)
    Blend: AUG-CC-PVTZ-JKFIT
	 Reference Energy          =    -210.0650556906374504 [Eh]
	 Singles Energy            =      -0.0000000000000000 [Eh]
	 Same-Spin Energy          =      -0.2184541398564364 [Eh]
	 Opposite-Spin Energy      =      -0.7536584248239634 [Eh]
	 Correlation Energy        =      -0.9721125646803997 [Eh]
	 Total Energy              =    -211.0371682553178516 [Eh]

	 ================> DF-SCS-MP2 Energies <==================
	-----------------------------------------------------------
	 SCS Same-Spin Scale       =       0.3333333333333333 [-]
	 SCS Opposite-Spin Scale   =       1.2000000000000000 [-]
	 SCS Same-Spin Energy      =      -0.0728180466188121 [Eh]
	 SCS Opposite-Spin Energy  =      -0.9043901097887560 [Eh]
	 SCS Correlation Energy    =      -0.9772081564075681 [Eh]
	 SCS Total Energy          =    -211.0422638470450067 [Eh]
	-----------------------------------------------------------

  Dipole Moment: [D]
     X:    -4.0247      Y:     1.0900      Z:    -0.0077     Total:     4.1697

*** Psi4 exiting successfully. Buy a developer a beer!
