                               Psi4 1.3.2 release

  ==> Input File <==

--------------------------------------------------------------------------
#psi4
#
memory 32 gb

molecule  {
0 1
  N        2.6330360    -0.2908360    -0.0000330
  C       -0.7925421    -0.5923738     0.0002457
  C        0.1478200     0.6200950     0.0003100
  C       -2.3044840     0.0081730    -0.0002990
  C        1.5293590     0.1288950    -0.0005060
  H       -0.7052620    -1.1537770     0.8794380
  H       -0.7047750    -1.1544660    -0.8781930
  H        0.0039960     1.2557980     0.8812230
  H        0.0030960     1.2567630    -0.8797780
  H       -2.4949090     0.6237750     0.8839850
  H       -2.4950800     0.6211070    -0.8863780
  H       -3.0255150    -0.8133870     0.0010390
units angstrom
no_reorient  #important for SAPT in psi4, default
symmetry c1  #important for SAPT in psi4, default
}

set PROPERTIES_ORIGIN ["COM"]
properties('MP2/aug-cc-pvtz', properties = ['dipole'])
--------------------------------------------------------------------------

    Molecular point group: c1
  Charge       = 0
  Multiplicity = 1
  Basis Set: AUG-CC-PVTZ
    Blend: AUG-CC-PVTZ
  Basis Set: (AUG-CC-PVTZ AUX)
    Blend: AUG-CC-PVTZ-JKFIT

    Orbital Energies [Eh]
    ---------------------

    Doubly Occupied:

       1A    -15.572869     2A    -11.285790     3A    -11.278877
       4A    -11.251469     5A    -11.239474     6A     -1.204448
       7A     -1.097053     8A     -0.975704     9A     -0.857987
      10A     -0.702434    11A     -0.679516    12A     -0.604021
      13A     -0.583448    14A     -0.558144    15A     -0.530816
      16A     -0.528686    17A     -0.497609    18A     -0.448459
      19A     -0.442559

  @DF-RHF Final Energy:  -210.05661751663860

   => Energetics <=

    Nuclear Repulsion Energy =            153.2014557771514660
    One-Electron Energy =                -585.8374205933801022
    Two-Electron Energy =                 222.5793472995900402
    Total Energy =                       -210.0566175166385960
  Basis Set: (AUG-CC-PVTZ AUX)
    Blend: AUG-CC-PVTZ-RI
    Molecular point group: c1

    Geometry (in Angstrom), charge = 0, multiplicity = 1:

       Center              X                  Y                   Z               Mass
    ------------   -----------------  -----------------  -----------------  -----------------
         N            2.483302346076    -0.269776274130    -0.000002485768    14.003074004430
         C           -0.942275753924    -0.571314074130     0.000276214232    12.000000000000
         C           -0.001913653924     0.641154725870     0.000340514232    12.000000000000
         C           -2.454217653924     0.029232725870    -0.000268485768    12.000000000000
         C            1.379625346076     0.149954725870    -0.000475485768    12.000000000000
         H           -0.854995653924    -1.132717274130     0.879468514232     1.007825032230
         H           -0.854508653924    -1.133406274130    -0.878162485768     1.007825032230
         H           -0.145737653924     1.276857725870     0.881253514232     1.007825032230
         H           -0.146637653924     1.277822725870    -0.879747485768     1.007825032230
         H           -2.644642653924     0.644834725870     0.884015514232     1.007825032230
         H           -2.644813653924     0.642166725870    -0.886347485768     1.007825032230
         H           -3.175248653924    -0.792327274130     0.001069514232     1.007825032230

  Basis Set: AUG-CC-PVTZ
    Blend: AUG-CC-PVTZ
  Basis Set: (AUG-CC-PVTZ AUX)
    Blend: AUG-CC-PVTZ-JKFIT
	 Reference Energy          =    -210.0566175166385960 [Eh]
	 Singles Energy            =      -0.0000000000000000 [Eh]
	 Same-Spin Energy          =      -0.2180731085611773 [Eh]
	 Opposite-Spin Energy      =      -0.7533705737493419 [Eh]
	 Correlation Energy        =      -0.9714436823105193 [Eh]
	 Total Energy              =    -211.0280611989491035 [Eh]

	 ================> DF-SCS-MP2 Energies <==================
	-----------------------------------------------------------
	 SCS Same-Spin Scale       =       0.3333333333333333 [-]
	 SCS Opposite-Spin Scale   =       1.2000000000000000 [-]
	 SCS Same-Spin Energy      =      -0.0726910361870591 [Eh]
	 SCS Opposite-Spin Energy  =      -0.9040446884992103 [Eh]
	 SCS Correlation Energy    =      -0.9767357246862693 [Eh]
	 SCS Total Energy          =    -211.0333532413248747 [Eh]
	-----------------------------------------------------------

  Dipole Moment: [D]
     X:    -4.0150      Y:     1.0933      Z:     0.0006     Total:     4.1612

*** Psi4 exiting successfully. Buy a developer a beer!
