                               Psi4 1.3.2 release

  ==> Input File <==

--------------------------------------------------------------------------
#psi4
#
memory 32 gb

molecule  {
0 1
  N        2.6330360    -0.2908360    -0.0000330
  C       -0.8547091    -0.5414975     0.0002939
  C        0.1478200     0.6200950     0.0003100
  C       -2.3044840     0.0081730    -0.0002990
  C        1.5293590     0.1288950    -0.0005060
  H       -0.7052620    -1.1537770     0.8794380
  H       -0.7047750    -1.1544660    -0.8781930
  H        0.0039960     1.2557980     0.8812230
  H        0.0030960     1.2567630    -0.8797780
  H       -2.4949090     0.6237750     0.8839850
  H       -2.4950800     0.6211070    -0.8863780
  H       -3.0255150    -0.8133870     0.0010390
units angstrom
no_reorient  #important for SAPT in psi4, default
symmetry c1  #important for SAPT in psi4, default
}

set PROPERTIES_ORIGIN ["COM"]
properties('MP2/aug-cc-pvtz', properties = ['dipole'])
--------------------------------------------------------------------------

    Molecular point group: c1
  Charge       = 0
  Multiplicity = 1
  Basis Set: AUG-CC-PVTZ
    Blend: AUG-CC-PVTZ
  Basis Set: (AUG-CC-PVTZ AUX)
    Blend: AUG-CC-PVTZ-JKFIT

    Orbital Energies [Eh]
    ---------------------

    Doubly Occupied:

       1A    -15.574525     2A    -11.284967     3A    -11.280515
       4A    -11.252957     5A    -11.237501     6A     -1.205335
       7A     -1.100397     8A     -0.984275     9A     -0.849695
      10A     -0.705261    11A     -0.673854    12A     -0.604279
      13A     -0.583726    14A     -0.561759    15A     -0.527810
      16A     -0.516800    17A     -0.512802    18A     -0.449147
      19A     -0.445990

  @DF-RHF Final Energy:  -210.06582278683911

   => Energetics <=

    Nuclear Repulsion Energy =            153.4869052163169840
    One-Electron Energy =                -586.4022616578157567
    Two-Electron Energy =                 222.8495336546596661
    Total Energy =                       -210.0658227868391066
  Basis Set: (AUG-CC-PVTZ AUX)
    Blend: AUG-CC-PVTZ-RI
    Molecular point group: c1

    Geometry (in Angstrom), charge = 0, multiplicity = 1:

       Center              X                  Y                   Z               Mass
    ------------   -----------------  -----------------  -----------------  -----------------
         N            2.494104941412    -0.278616914359    -0.000010861355    14.003074004430
         C           -0.993640158588    -0.529278414359     0.000316038645    12.000000000000
         C            0.008888941412     0.632314085641     0.000332138645    12.000000000000
         C           -2.443415058588     0.020392085641    -0.000276861355    12.000000000000
         C            1.390427941412     0.141114085641    -0.000483861355    12.000000000000
         H           -0.844193058588    -1.141557914359     0.879460138645     1.007825032230
         H           -0.843706058588    -1.142246914359    -0.878170861355     1.007825032230
         H           -0.134935058588     1.268017085641     0.881245138645     1.007825032230
         H           -0.135835058588     1.268982085641    -0.879755861355     1.007825032230
         H           -2.633840058588     0.635994085641     0.884007138645     1.007825032230
         H           -2.634011058588     0.633326085641    -0.886355861355     1.007825032230
         H           -3.164446058588    -0.801167914359     0.001061138645     1.007825032230

  Basis Set: AUG-CC-PVTZ
    Blend: AUG-CC-PVTZ
  Basis Set: (AUG-CC-PVTZ AUX)
    Blend: AUG-CC-PVTZ-JKFIT
	 Reference Energy          =    -210.0658227868391066 [Eh]
	 Singles Energy            =      -0.0000000000000000 [Eh]
	 Same-Spin Energy          =      -0.2181542174281952 [Eh]
	 Opposite-Spin Energy      =      -0.7531309322467932 [Eh]
	 Correlation Energy        =      -0.9712851496749884 [Eh]
	 Total Energy              =    -211.0371079365141043 [Eh]

	 ================> DF-SCS-MP2 Energies <==================
	-----------------------------------------------------------
	 SCS Same-Spin Scale       =       0.3333333333333333 [-]
	 SCS Opposite-Spin Scale   =       1.2000000000000000 [-]
	 SCS Same-Spin Energy      =      -0.0727180724760651 [Eh]
	 SCS Opposite-Spin Energy  =      -0.9037571186961517 [Eh]
	 SCS Correlation Energy    =      -0.9764751911722168 [Eh]
	 SCS Total Energy          =    -211.0422979780113337 [Eh]
	-----------------------------------------------------------

  Dipole Moment: [D]
     X:    -4.0232      Y:     1.0898      Z:     0.0005     Total:     4.1682

*** Psi4 exiting successfully. Buy a developer a beer!
