                               Psi4 1.3.2 release

  ==> Input File <==

--------------------------------------------------------------------------
#psi4
#
memory 32 gb

molecule  {
0 1
  N        2.6330360    -0.2908360    -0.0000330
  C       -0.8946374    -0.5058021     0.0003261
  C        0.1478200     0.6200950     0.0003100
  C       -2.3044840     0.0081730    -0.0002990
  C        1.5293590     0.1288950    -0.0005060
  H       -0.7052620    -1.1537770     0.8794380
  H       -0.7047750    -1.1544660    -0.8781930
  H        0.0039960     1.2557980     0.8812230
  H        0.0030960     1.2567630    -0.8797780
  H       -2.4949090     0.6237750     0.8839850
  H       -2.4950800     0.6211070    -0.8863780
  H       -3.0255150    -0.8133870     0.0010390
units angstrom
no_reorient  #important for SAPT in psi4, default
symmetry c1  #important for SAPT in psi4, default
}

set PROPERTIES_ORIGIN ["COM"]
properties('MP2/aug-cc-pvtz', properties = ['dipole'])
--------------------------------------------------------------------------

    Molecular point group: c1
  Charge       = 0
  Multiplicity = 1
  Basis Set: AUG-CC-PVTZ
    Blend: AUG-CC-PVTZ
  Basis Set: (AUG-CC-PVTZ AUX)
    Blend: AUG-CC-PVTZ-JKFIT

    Orbital Energies [Eh]
    ---------------------

    Doubly Occupied:

       1A    -15.575726     2A    -11.284890     3A    -11.281761
       4A    -11.255004     5A    -11.235997     6A     -1.206071
       7A     -1.103884     8A     -0.990729     9A     -0.843744
      10A     -0.707341    11A     -0.671277    12A     -0.605264
      13A     -0.584901    14A     -0.566813    15A     -0.534865
      16A     -0.517789    17A     -0.500135    18A     -0.449549
      19A     -0.447114

  @DF-RHF Final Energy:  -210.06518864763865

   => Energetics <=

    Nuclear Repulsion Energy =            153.7030733300067311
    One-Electron Energy =                -586.8108175392627572
    Two-Electron Energy =                 223.0425555616173483
    Total Energy =                       -210.0651886476386494
  Basis Set: (AUG-CC-PVTZ AUX)
    Blend: AUG-CC-PVTZ-RI
    Molecular point group: c1

    Geometry (in Angstrom), charge = 0, multiplicity = 1:

       Center              X                  Y                   Z               Mass
    ------------   -----------------  -----------------  -----------------  -----------------
         N            2.501043176607    -0.284819609705    -0.000016456664    14.003074004430
         C           -1.026630223393    -0.499785709705     0.000342643336    12.000000000000
         C            0.015827176607     0.626111390295     0.000326543336    12.000000000000
         C           -2.436476823393     0.014189390295    -0.000282456664    12.000000000000
         C            1.397366176607     0.134911390295    -0.000489456664    12.000000000000
         H           -0.837254823393    -1.147760609705     0.879454543336     1.007825032230
         H           -0.836767823393    -1.148449609705    -0.878176456664     1.007825032230
         H           -0.127996823393     1.261814390295     0.881239543336     1.007825032230
         H           -0.128896823393     1.262779390295    -0.879761456664     1.007825032230
         H           -2.626901823393     0.629791390295     0.884001543336     1.007825032230
         H           -2.627072823393     0.627123390295    -0.886361456664     1.007825032230
         H           -3.157507823393    -0.807370609705     0.001055543336     1.007825032230

  Basis Set: AUG-CC-PVTZ
    Blend: AUG-CC-PVTZ
  Basis Set: (AUG-CC-PVTZ AUX)
    Blend: AUG-CC-PVTZ-JKFIT
	 Reference Energy          =    -210.0651886476386494 [Eh]
	 Singles Energy            =      -0.0000000000000000 [Eh]
	 Same-Spin Energy          =      -0.2184439043198731 [Eh]
	 Opposite-Spin Energy      =      -0.7534597408058896 [Eh]
	 Correlation Energy        =      -0.9719036451257628 [Eh]
	 Total Energy              =    -211.0370922927644131 [Eh]

	 ================> DF-SCS-MP2 Energies <==================
	-----------------------------------------------------------
	 SCS Same-Spin Scale       =       0.3333333333333333 [-]
	 SCS Opposite-Spin Scale   =       1.2000000000000000 [-]
	 SCS Same-Spin Energy      =      -0.0728146347732910 [Eh]
	 SCS Opposite-Spin Energy  =      -0.9041516889670675 [Eh]
	 SCS Correlation Energy    =      -0.9769663237403585 [Eh]
	 SCS Total Energy          =    -211.0421549713790057 [Eh]
	-----------------------------------------------------------

  Dipole Moment: [D]
     X:    -4.0305      Y:     1.0931      Z:     0.0005     Total:     4.1761

*** Psi4 exiting successfully. Buy a developer a beer!
