                               Psi4 1.3.2 release

  ==> Input File <==

--------------------------------------------------------------------------
#psi4
#
memory 32 gb

molecule  {
0 1
  N        2.6010954    -0.3667276     0.0035778
  C       -0.8748290    -0.5238240     0.0003100
  C        0.1478200     0.6200950     0.0003100
  C       -2.3044840     0.0081730    -0.0002990
  C        1.5293590     0.1288950    -0.0005060
  H       -0.7052620    -1.1537770     0.8794380
  H       -0.7047750    -1.1544660    -0.8781930
  H        0.0039960     1.2557980     0.8812230
  H        0.0030960     1.2567630    -0.8797780
  H       -2.4949090     0.6237750     0.8839850
  H       -2.4950800     0.6211070    -0.8863780
  H       -3.0255150    -0.8133870     0.0010390
units angstrom
no_reorient  #important for SAPT in psi4, default
symmetry c1  #important for SAPT in psi4, default
}

set PROPERTIES_ORIGIN ["COM"]
properties('MP2/aug-cc-pvtz', properties = ['dipole'])
--------------------------------------------------------------------------

    Molecular point group: c1
  Charge       = 0
  Multiplicity = 1
  Basis Set: AUG-CC-PVTZ
    Blend: AUG-CC-PVTZ
  Basis Set: (AUG-CC-PVTZ AUX)
    Blend: AUG-CC-PVTZ-JKFIT

    Orbital Energies [Eh]
    ---------------------

    Doubly Occupied:

       1A    -15.575192     2A    -11.284777     3A    -11.281048
       4A    -11.253721     5A    -11.236652     6A     -1.205885
       7A     -1.101618     8A     -0.987299     9A     -0.846647
      10A     -0.705786    11A     -0.672234    12A     -0.604461
      13A     -0.584059    14A     -0.563812    15A     -0.530501
      16A     -0.518510    17A     -0.506318    18A     -0.449495
      19A     -0.446548

  @DF-RHF Final Energy:  -210.06596797522326

   => Energetics <=

    Nuclear Repulsion Energy =            153.7192962146852437
    One-Electron Energy =                -586.8614033990254484
    Two-Electron Energy =                 223.0761392091169455
    Total Energy =                       -210.0659679752232591
  Basis Set: (AUG-CC-PVTZ AUX)
    Blend: AUG-CC-PVTZ-RI
    Molecular point group: c1

    Geometry (in Angstrom), charge = 0, multiplicity = 1:

       Center              X                  Y                   Z               Mass
    ------------   -----------------  -----------------  -----------------  -----------------
         N            2.472137217678    -0.342190816941     0.002864967889    14.003074004430
         C           -1.003787182322    -0.499287216941    -0.000402832111    12.000000000000
         C            0.018861817678     0.644631783059    -0.000402832111    12.000000000000
         C           -2.433442182322     0.032709783059    -0.001011832111    12.000000000000
         C            1.400400817678     0.153431783059    -0.001218832111    12.000000000000
         H           -0.834220182322    -1.129240216941     0.878725167889     1.007825032230
         H           -0.833733182322    -1.129929216941    -0.878905832111     1.007825032230
         H           -0.124962182322     1.280334783059     0.880510167889     1.007825032230
         H           -0.125862182322     1.281299783059    -0.880490832111     1.007825032230
         H           -2.623867182322     0.648311783059     0.883272167889     1.007825032230
         H           -2.624038182322     0.645643783059    -0.887090832111     1.007825032230
         H           -3.154473182322    -0.788850216941     0.000326167889     1.007825032230

  Basis Set: AUG-CC-PVTZ
    Blend: AUG-CC-PVTZ
  Basis Set: (AUG-CC-PVTZ AUX)
    Blend: AUG-CC-PVTZ-JKFIT
	 Reference Energy          =    -210.0659679752232591 [Eh]
	 Singles Energy            =      -0.0000000000000000 [Eh]
	 Same-Spin Energy          =      -0.2183217876827573 [Eh]
	 Opposite-Spin Energy      =      -0.7533250626218302 [Eh]
	 Correlation Energy        =      -0.9716468503045874 [Eh]
	 Total Energy              =    -211.0376148255278395 [Eh]

	 ================> DF-SCS-MP2 Energies <==================
	-----------------------------------------------------------
	 SCS Same-Spin Scale       =       0.3333333333333333 [-]
	 SCS Opposite-Spin Scale   =       1.2000000000000000 [-]
	 SCS Same-Spin Energy      =      -0.0727739292275857 [Eh]
	 SCS Opposite-Spin Energy  =      -0.9039900751461962 [Eh]
	 SCS Correlation Energy    =      -0.9767640043737820 [Eh]
	 SCS Total Energy          =    -211.0427319795970504 [Eh]
	-----------------------------------------------------------

  Dipole Moment: [D]
     X:    -3.9795      Y:     1.2006      Z:    -0.0048     Total:     4.1566

*** Psi4 exiting successfully. Buy a developer a beer!
