                               Psi4 1.3.2 release

  ==> Input File <==

--------------------------------------------------------------------------
#psi4
#
memory 32 gb

molecule  {
0 1
  N        2.6330360    -0.2908360    -0.0000330
  C       -0.9141282    -0.4874372     0.0003422
  C        0.1478200     0.6200950     0.0003100
  C       -2.3044840     0.0081730    -0.0002990
  C        1.5293590     0.1288950    -0.0005060
  H       -0.7052620    -1.1537770     0.8794380
  H       -0.7047750    -1.1544660    -0.8781930
  H        0.0039960     1.2557980     0.8812230
  H        0.0030960     1.2567630    -0.8797780
  H       -2.4949090     0.6237750     0.8839850
  H       -2.4950800     0.6211070    -0.8863780
  H       -3.0255150    -0.8133870     0.0010390
units angstrom
no_reorient  #important for SAPT in psi4, default
symmetry c1  #important for SAPT in psi4, default
}

set PROPERTIES_ORIGIN ["COM"]
properties('MP2/aug-cc-pvtz', properties = ['dipole'])
--------------------------------------------------------------------------

    Molecular point group: c1
  Charge       = 0
  Multiplicity = 1
  Basis Set: AUG-CC-PVTZ
    Blend: AUG-CC-PVTZ
  Basis Set: (AUG-CC-PVTZ AUX)
    Blend: AUG-CC-PVTZ-JKFIT

    Orbital Energies [Eh]
    ---------------------

    Doubly Occupied:

       1A    -15.576353     2A    -11.285003     3A    -11.282424
       4A    -11.256316     5A    -11.235205     6A     -1.206478
       7A     -1.106081     8A     -0.994133     9A     -0.840686
      10A     -0.708417    11A     -0.670373    12A     -0.605997
      13A     -0.585750    14A     -0.570692    15A     -0.539542
      16A     -0.515551    17A     -0.493377    18A     -0.449679
      19A     -0.447437

  @DF-RHF Final Energy:  -210.06256677964345

   => Energetics <=

    Nuclear Repulsion Energy =            153.8197253431128786
    One-Electron Energy =                -587.0255959561301324
    Two-Electron Energy =                 223.1433038333738352
    Total Energy =                       -210.0625667796434470
  Basis Set: (AUG-CC-PVTZ AUX)
    Blend: AUG-CC-PVTZ-RI
    Molecular point group: c1

    Geometry (in Angstrom), charge = 0, multiplicity = 1:

       Center              X                  Y                   Z               Mass
    ------------   -----------------  -----------------  -----------------  -----------------
         N            2.504430041425    -0.288010829855    -0.000019254319    14.003074004430
         C           -1.042734158575    -0.484612029855     0.000355945681    12.000000000000
         C            0.019214041425     0.622920170145     0.000323745681    12.000000000000
         C           -2.433089958575     0.010998170145    -0.000285254319    12.000000000000
         C            1.400753041425     0.131720170145    -0.000492254319    12.000000000000
         H           -0.833867958575    -1.150951829855     0.879451745681     1.007825032230
         H           -0.833380958575    -1.151640829855    -0.878179254319     1.007825032230
         H           -0.124609958575     1.258623170145     0.881236745681     1.007825032230
         H           -0.125509958575     1.259588170145    -0.879764254319     1.007825032230
         H           -2.623514958575     0.626600170145     0.883998745681     1.007825032230
         H           -2.623685958575     0.623932170145    -0.886364254319     1.007825032230
         H           -3.154120958575    -0.810561829855     0.001052745681     1.007825032230

  Basis Set: AUG-CC-PVTZ
    Blend: AUG-CC-PVTZ
  Basis Set: (AUG-CC-PVTZ AUX)
    Blend: AUG-CC-PVTZ-JKFIT
	 Reference Energy          =    -210.0625667796434470 [Eh]
	 Singles Energy            =      -0.0000000000000000 [Eh]
	 Same-Spin Energy          =      -0.2186611989283782 [Eh]
	 Opposite-Spin Energy      =      -0.7537744570427253 [Eh]
	 Correlation Energy        =      -0.9724356559711035 [Eh]
	 Total Energy              =    -211.0350024356145582 [Eh]

	 ================> DF-SCS-MP2 Energies <==================
	-----------------------------------------------------------
	 SCS Same-Spin Scale       =       0.3333333333333333 [-]
	 SCS Opposite-Spin Scale   =       1.2000000000000000 [-]
	 SCS Same-Spin Energy      =      -0.0728870663094594 [Eh]
	 SCS Opposite-Spin Energy  =      -0.9045293484512703 [Eh]
	 SCS Correlation Energy    =      -0.9774164147607297 [Eh]
	 SCS Total Energy          =    -211.0399831944041864 [Eh]
	-----------------------------------------------------------

  Dipole Moment: [D]
     X:    -4.0349      Y:     1.0968      Z:     0.0005     Total:     4.1813

*** Psi4 exiting successfully. Buy a developer a beer!
