                               Psi4 1.3.2 release

  ==> Input File <==

--------------------------------------------------------------------------
#psi4
#
memory 32 gb

molecule  {
0 1
  N        2.6330360    -0.2908360    -0.0000330
  C       -0.8748290    -0.5238240     0.0003100
  C        0.1478200     0.6200950     0.0003100
  C       -2.3044840     0.0081730    -0.0002990
  C        1.6228280     0.0933485    -0.0004659
  H       -0.7052620    -1.1537770     0.8794380
  H       -0.7047750    -1.1544660    -0.8781930
  H        0.0039960     1.2557980     0.8812230
  H        0.0030960     1.2567630    -0.8797780
  H       -2.4949090     0.6237750     0.8839850
  H       -2.4950800     0.6211070    -0.8863780
  H       -3.0255150    -0.8133870     0.0010390
units angstrom
no_reorient  #important for SAPT in psi4, default
symmetry c1  #important for SAPT in psi4, default
}

set PROPERTIES_ORIGIN ["COM"]
properties('MP2/aug-cc-pvtz', properties = ['dipole'])
--------------------------------------------------------------------------

    Molecular point group: c1
  Charge       = 0
  Multiplicity = 1
  Basis Set: AUG-CC-PVTZ
    Blend: AUG-CC-PVTZ
  Basis Set: (AUG-CC-PVTZ AUX)
    Blend: AUG-CC-PVTZ-JKFIT

    Orbital Energies [Eh]
    ---------------------

    Doubly Occupied:

       1A    -15.542032     2A    -11.292444     3A    -11.252006
       4A    -11.248589     5A    -11.236262     6A     -1.249493
       7A     -1.095149     8A     -0.972835     9A     -0.840262
      10A     -0.681979    11A     -0.668104    12A     -0.601039
      13A     -0.580979    14A     -0.558968    15A     -0.528791
      16A     -0.517287    17A     -0.506636    18A     -0.480892
      19A     -0.476992

  @DF-RHF Final Energy:  -210.06158701974510

   => Energetics <=

    Nuclear Repulsion Energy =            153.9249362367831964
    One-Electron Energy =                -587.3115720240072051
    Two-Electron Energy =                 223.3250487674789042
    Total Energy =                       -210.0615870197451045
  Basis Set: (AUG-CC-PVTZ AUX)
    Blend: AUG-CC-PVTZ-RI
    Molecular point group: c1

    Geometry (in Angstrom), charge = 0, multiplicity = 1:

       Center              X                  Y                   Z               Mass
    ------------   -----------------  -----------------  -----------------  -----------------
         N            2.481359262104    -0.275511170372    -0.000020627081    14.003074004430
         C           -1.026505737896    -0.508499170372     0.000322372919    12.000000000000
         C           -0.003856737896     0.635419829628     0.000322372919    12.000000000000
         C           -2.456160737896     0.023497829628    -0.000286627081    12.000000000000
         C            1.471151262104     0.108673329628    -0.000453527081    12.000000000000
         H           -0.856938737896    -1.138452170372     0.879450372919     1.007825032230
         H           -0.856451737896    -1.139141170372    -0.878180627081     1.007825032230
         H           -0.147680737896     1.271122829628     0.881235372919     1.007825032230
         H           -0.148580737896     1.272087829628    -0.879765627081     1.007825032230
         H           -2.646585737896     0.639099829628     0.883997372919     1.007825032230
         H           -2.646756737896     0.636431829628    -0.886365627081     1.007825032230
         H           -3.177191737896    -0.798062170372     0.001051372919     1.007825032230

  Basis Set: AUG-CC-PVTZ
    Blend: AUG-CC-PVTZ
  Basis Set: (AUG-CC-PVTZ AUX)
    Blend: AUG-CC-PVTZ-JKFIT
	 Reference Energy          =    -210.0615870197451045 [Eh]
	 Singles Energy            =      -0.0000000000000000 [Eh]
	 Same-Spin Energy          =      -0.2115963073024362 [Eh]
	 Opposite-Spin Energy      =      -0.7406840998591930 [Eh]
	 Correlation Energy        =      -0.9522804071616292 [Eh]
	 Total Energy              =    -211.0138674269067280 [Eh]

	 ================> DF-SCS-MP2 Energies <==================
	-----------------------------------------------------------
	 SCS Same-Spin Scale       =       0.3333333333333333 [-]
	 SCS Opposite-Spin Scale   =       1.2000000000000000 [-]
	 SCS Same-Spin Energy      =      -0.0705321024341454 [Eh]
	 SCS Opposite-Spin Energy  =      -0.8888209198310316 [Eh]
	 SCS Correlation Energy    =      -0.9593530222651770 [Eh]
	 SCS Total Energy          =    -211.0209400420102952 [Eh]
	-----------------------------------------------------------

  Dipole Moment: [D]
     X:    -4.0626      Y:     1.0957      Z:     0.0004     Total:     4.2077

*** Psi4 exiting successfully. Buy a developer a beer!
