                               Psi4 1.3.2 release

  ==> Input File <==

--------------------------------------------------------------------------
#psi4
#
memory 32 gb

molecule  {
0 1
  N        2.6330360    -0.2908360    -0.0000330
  C       -0.8748290    -0.5238240     0.0003100
  C        0.1478200     0.6200950     0.0003100
  C       -2.3044840     0.0081730    -0.0002990
  C        1.4351372     0.1623951    -0.0004503
  H       -0.7052620    -1.1537770     0.8794380
  H       -0.7047750    -1.1544660    -0.8781930
  H        0.0039960     1.2557980     0.8812230
  H        0.0030960     1.2567630    -0.8797780
  H       -2.4949090     0.6237750     0.8839850
  H       -2.4950800     0.6211070    -0.8863780
  H       -3.0255150    -0.8133870     0.0010390
units angstrom
no_reorient  #important for SAPT in psi4, default
symmetry c1  #important for SAPT in psi4, default
}

set PROPERTIES_ORIGIN ["COM"]
properties('MP2/aug-cc-pvtz', properties = ['dipole'])
--------------------------------------------------------------------------

    Molecular point group: c1
  Charge       = 0
  Multiplicity = 1
  Basis Set: AUG-CC-PVTZ
    Blend: AUG-CC-PVTZ
  Basis Set: (AUG-CC-PVTZ AUX)
    Blend: AUG-CC-PVTZ-JKFIT

    Orbital Energies [Eh]
    ---------------------

    Doubly Occupied:

       1A    -15.600288     2A    -11.307749     3A    -11.277376
       4A    -11.257551     5A    -11.238393     6A     -1.175126
       7A     -1.103821     8A     -1.003749     9A     -0.854681
      10A     -0.726450    11A     -0.679821    12A     -0.610802
      13A     -0.590110    14A     -0.564930    15A     -0.532771
      16A     -0.522258    17A     -0.509344    18A     -0.418587
      19A     -0.416364

  @DF-RHF Final Energy:  -210.01898268445839

   => Energetics <=

    Nuclear Repulsion Energy =            153.6878271808909346
    One-Electron Energy =                -586.6332819045414908
    Two-Electron Energy =                 222.9264720391921344
    Total Energy =                       -210.0189826844583934
  Basis Set: (AUG-CC-PVTZ AUX)
    Blend: AUG-CC-PVTZ-RI
    Molecular point group: c1

    Geometry (in Angstrom), charge = 0, multiplicity = 1:

       Center              X                  Y                   Z               Mass
    ------------   -----------------  -----------------  -----------------  -----------------
         N            2.513973796514    -0.287509215623    -0.000023337851    14.003074004430
         C           -0.993891203486    -0.520497215623     0.000319662149    12.000000000000
         C            0.028757796514     0.623421784377     0.000319662149    12.000000000000
         C           -2.423546203486     0.011499784377    -0.000289337851    12.000000000000
         C            1.316074996514     0.165721884377    -0.000440637851    12.000000000000
         H           -0.824324203486    -1.150450215623     0.879447662149     1.007825032230
         H           -0.823837203486    -1.151139215623    -0.878183337851     1.007825032230
         H           -0.115066203486     1.259124784377     0.881232662149     1.007825032230
         H           -0.115966203486     1.260089784377    -0.879768337851     1.007825032230
         H           -2.613971203486     0.627101784377     0.883994662149     1.007825032230
         H           -2.614142203486     0.624433784377    -0.886368337851     1.007825032230
         H           -3.144577203486    -0.810060215623     0.001048662149     1.007825032230

  Basis Set: AUG-CC-PVTZ
    Blend: AUG-CC-PVTZ
  Basis Set: (AUG-CC-PVTZ AUX)
    Blend: AUG-CC-PVTZ-JKFIT
	 Reference Energy          =    -210.0189826844583934 [Eh]
	 Singles Energy            =      -0.0000000000000000 [Eh]
	 Same-Spin Energy          =      -0.2265614418283834 [Eh]
	 Opposite-Spin Energy      =      -0.7684503058632639 [Eh]
	 Correlation Energy        =      -0.9950117476916474 [Eh]
	 Total Energy              =    -211.0139944321500423 [Eh]

	 ================> DF-SCS-MP2 Energies <==================
	-----------------------------------------------------------
	 SCS Same-Spin Scale       =       0.3333333333333333 [-]
	 SCS Opposite-Spin Scale   =       1.2000000000000000 [-]
	 SCS Same-Spin Energy      =      -0.0755204806094611 [Eh]
	 SCS Opposite-Spin Energy  =      -0.9221403670359166 [Eh]
	 SCS Correlation Energy    =      -0.9976608476453778 [Eh]
	 SCS Total Energy          =    -211.0166435321037852 [Eh]
	-----------------------------------------------------------

  Dipole Moment: [D]
     X:    -4.0447      Y:     1.0945      Z:     0.0007     Total:     4.1902

*** Psi4 exiting successfully. Buy a developer a beer!
