                               Psi4 1.4a3.dev225

  ==> Input File <==

--------------------------------------------------------------------------
#psi4
#
memory 32 gb

molecule  {
0 1
  N       -2.6327470    -0.2908650     0.0000010
  C        0.8748260    -0.5239910    -0.0000010
  C       -0.1478930     0.6200730     0.0000000
  C        2.3042230     0.0082410     0.0000000
  C       -1.4820109     0.1457496    -0.0000010
  H        0.7048460    -1.1542040    -0.8788150
  H        0.7048450    -1.1542040     0.8788140
  H       -0.0035770     1.2562870    -0.8804710
  H       -0.0035780     1.2562840     0.8804720
  H        2.4945510     0.6225650    -0.8851870
  H        2.4945510     0.6225600     0.8851910
  H        3.0253870    -0.8131700    -0.0000020
units angstrom
no_reorient  #important for SAPT in psi4, default
symmetry c1  #important for SAPT in psi4, default
}

set PROPERTIES_ORIGIN ["COM"]
properties('MP2/aug-cc-pvtz', properties = ['dipole'])
--------------------------------------------------------------------------

    Molecular point group: c1
  Charge       = 0
  Multiplicity = 1
  Basis Set: AUG-CC-PVTZ
    Blend: AUG-CC-PVTZ
  Basis Set: (AUG-CC-PVTZ AUX)
    Blend: AUG-CC-PVTZ-JKFIT

    Orbital Energies [Eh]
    ---------------------

    Doubly Occupied:

       1A    -15.588827     2A    -11.295358     3A    -11.280997
       4A    -11.255442     5A    -11.237397     6A     -1.187144
       7A     -1.104781     8A     -0.995639     9A     -0.850563
      10A     -0.716928    11A     -0.675687    12A     -0.607377
      13A     -0.586848    14A     -0.564911    15A     -0.531507
      16A     -0.520356    17A     -0.507753    18A     -0.433825
      19A     -0.431412

  @DF-RHF Final Energy:  -210.04795550946116

   => Energetics <=

    Nuclear Repulsion Energy =            153.5992965501857839
    One-Electron Energy =                -586.5489967235145059
    Two-Electron Energy =                 222.9017446638675608
    Total Energy =                       -210.0479555094611612
  Basis Set: (AUG-CC-PVTZ AUX)
    Blend: AUG-CC-PVTZ-RI
    Molecular point group: c1

    Geometry (in Angstrom), charge = 0, multiplicity = 1:

       Center              X                  Y                   Z               Mass
    ------------   -----------------  -----------------  -----------------  -----------------
         N           -2.505518937589    -0.284623315944     0.000001115574    14.003074004430
         C            1.002054062411    -0.517749315944    -0.000000884426    12.000000000000
         C           -0.020664937589     0.626314684056     0.000000115574    12.000000000000
         C            2.431451062411     0.014482684056     0.000000115574    12.000000000000
         C           -1.354782837589     0.151991284056    -0.000000884426    12.000000000000
         H            0.832074062411    -1.147962315944    -0.878814884426     1.007825032230
         H            0.832073062411    -1.147962315944     0.878814115574     1.007825032230
         H            0.123651062411     1.262528684056    -0.880470884426     1.007825032230
         H            0.123650062411     1.262525684056     0.880472115574     1.007825032230
         H            2.621779062411     0.628806684056    -0.885186884426     1.007825032230
         H            2.621779062411     0.628801684056     0.885191115574     1.007825032230
         H            3.152615062411    -0.806928315944    -0.000001884426     1.007825032230

  Basis Set: AUG-CC-PVTZ
    Blend: AUG-CC-PVTZ
  Basis Set: (AUG-CC-PVTZ AUX)
    Blend: AUG-CC-PVTZ-JKFIT
	 Reference Energy          =    -210.0479555094611612 [Eh]
	 Singles Energy            =      -0.0000000000000000 [Eh]
	 Same-Spin Energy          =      -0.2222311196407981 [Eh]
	 Opposite-Spin Energy      =      -0.7605355073390823 [Eh]
	 Correlation Energy        =      -0.9827666269798804 [Eh]
	 Total Energy              =    -211.0307221364410282 [Eh]

	 ================> DF-SCS-MP2 Energies <==================
	-----------------------------------------------------------
	 SCS Same-Spin Scale       =       0.3333333333333333 [-]
	 SCS Opposite-Spin Scale   =       1.2000000000000000 [-]
	 SCS Same-Spin Energy      =      -0.0740770398802660 [Eh]
	 SCS Opposite-Spin Energy  =      -0.9126426088068986 [Eh]
	 SCS Correlation Energy    =      -0.9867196486871647 [Eh]
	 SCS Total Energy          =    -211.0346751581483318 [Eh]
	-----------------------------------------------------------

  Dipole Moment: [D]
     X:     4.0296      Y:     1.0920      Z:    -0.0000     Total:     4.1750

*** Psi4 exiting successfully. Buy a developer a beer!
