                               Psi4 1.4a3.dev225

  ==> Input File <==

--------------------------------------------------------------------------
#psi4
#
memory 32 gb

molecule  {
0 1
  N       -2.6327470    -0.2908650     0.0000010
  C        0.8748260    -0.5239910    -0.0000010
  C       -0.1478930     0.6200730     0.0000000
  C        2.3042230     0.0082410     0.0000000
  C       -1.5478149     0.1218884    -0.0000010
  H        0.7048460    -1.1542040    -0.8788150
  H        0.7048450    -1.1542040     0.8788140
  H       -0.0035770     1.2562870    -0.8804710
  H       -0.0035780     1.2562840     0.8804720
  H        2.4945510     0.6225650    -0.8851870
  H        2.4945510     0.6225600     0.8851910
  H        3.0253870    -0.8131700    -0.0000020
units angstrom
no_reorient  #important for SAPT in psi4, default
symmetry c1  #important for SAPT in psi4, default
}

set PROPERTIES_ORIGIN ["COM"]
properties('MP2/aug-cc-pvtz', properties = ['dipole'])
--------------------------------------------------------------------------

    Molecular point group: c1
  Charge       = 0
  Multiplicity = 1
  Basis Set: AUG-CC-PVTZ
    Blend: AUG-CC-PVTZ
  Basis Set: (AUG-CC-PVTZ AUX)
    Blend: AUG-CC-PVTZ-JKFIT

    Orbital Energies [Eh]
    ---------------------

    Doubly Occupied:

       1A    -15.569040     2A    -11.286334     3A    -11.275004
       4A    -11.253379     5A    -11.236573     6A     -1.214073
       7A     -1.100594     8A     -0.984336     9A     -0.845340
      10A     -0.701788    11A     -0.671372    12A     -0.603808
      13A     -0.583376    14A     -0.563215    15A     -0.529742
      16A     -0.518463    17A     -0.506352    18A     -0.455635
      19A     -0.452712

  @DF-RHF Final Energy:  -210.07014058312626

   => Energetics <=

    Nuclear Repulsion Energy =            153.6328837044256943
    One-Electron Energy =                -586.7037790035161606
    Two-Electron Energy =                 223.0007547159642058
    Total Energy =                       -210.0701405831262605
  Basis Set: (AUG-CC-PVTZ AUX)
    Blend: AUG-CC-PVTZ-RI
    Molecular point group: c1

    Geometry (in Angstrom), charge = 0, multiplicity = 1:

       Center              X                  Y                   Z               Mass
    ------------   -----------------  -----------------  -----------------  -----------------
         N           -2.494084350373    -0.280477018265     0.000001115574    14.003074004430
         C            1.013488649627    -0.513603018265    -0.000000884426    12.000000000000
         C           -0.009230350373     0.630460981735     0.000000115574    12.000000000000
         C            2.442885649627     0.018628981735     0.000000115574    12.000000000000
         C           -1.409152250373     0.132276381735    -0.000000884426    12.000000000000
         H            0.843508649627    -1.143816018265    -0.878814884426     1.007825032230
         H            0.843507649627    -1.143816018265     0.878814115574     1.007825032230
         H            0.135085649627     1.266674981735    -0.880470884426     1.007825032230
         H            0.135084649627     1.266671981735     0.880472115574     1.007825032230
         H            2.633213649627     0.632952981735    -0.885186884426     1.007825032230
         H            2.633213649627     0.632947981735     0.885191115574     1.007825032230
         H            3.164049649627    -0.802782018265    -0.000001884426     1.007825032230

  Basis Set: AUG-CC-PVTZ
    Blend: AUG-CC-PVTZ
  Basis Set: (AUG-CC-PVTZ AUX)
    Blend: AUG-CC-PVTZ-JKFIT
	 Reference Energy          =    -210.0701405831262605 [Eh]
	 Singles Energy            =      -0.0000000000000000 [Eh]
	 Same-Spin Energy          =      -0.2168133696880840 [Eh]
	 Opposite-Spin Energy      =      -0.7505209231343816 [Eh]
	 Correlation Energy        =      -0.9673342928224655 [Eh]
	 Total Energy              =    -211.0374748759487318 [Eh]

	 ================> DF-SCS-MP2 Energies <==================
	-----------------------------------------------------------
	 SCS Same-Spin Scale       =       0.3333333333333333 [-]
	 SCS Opposite-Spin Scale   =       1.2000000000000000 [-]
	 SCS Same-Spin Energy      =      -0.0722711232293613 [Eh]
	 SCS Opposite-Spin Energy  =      -0.9006251077612578 [Eh]
	 SCS Correlation Energy    =      -0.9728962309906192 [Eh]
	 SCS Total Energy          =    -211.0430368141168742 [Eh]
	-----------------------------------------------------------

  Dipole Moment: [D]
     X:     4.0292      Y:     1.0912      Z:    -0.0000     Total:     4.1743

*** Psi4 exiting successfully. Buy a developer a beer!
