                               Psi4 1.4a3.dev225

  ==> Input File <==

--------------------------------------------------------------------------
#psi4
#
memory 32 gb

molecule  {
0 1
  N       -2.6327470    -0.2908650     0.0000010
  C        0.8748260    -0.5239910    -0.0000010
  C       -0.1478930     0.6200730     0.0000000
  C        2.3042230     0.0082410     0.0000000
  C       -1.5479664     0.1223002    -0.0000010
  H        0.7048460    -1.1542040    -0.8788150
  H        0.7048450    -1.1542040     0.8788140
  H       -0.0035770     1.2562870    -0.8804710
  H       -0.0035780     1.2562840     0.8804720
  H        2.4945510     0.6225650    -0.8851870
  H        2.4945510     0.6225600     0.8851910
  H        3.0253870    -0.8131700    -0.0000020
units angstrom
no_reorient  #important for SAPT in psi4, default
symmetry c1  #important for SAPT in psi4, default
}

set PROPERTIES_ORIGIN ["COM"]
properties('MP2/aug-cc-pvtz', properties = ['dipole'])
--------------------------------------------------------------------------

    Molecular point group: c1
  Charge       = 0
  Multiplicity = 1
  Basis Set: AUG-CC-PVTZ
    Blend: AUG-CC-PVTZ
  Basis Set: (AUG-CC-PVTZ AUX)
    Blend: AUG-CC-PVTZ-JKFIT

    Orbital Energies [Eh]
    ---------------------

    Doubly Occupied:

       1A    -15.569041     2A    -11.286334     3A    -11.275005
       4A    -11.253383     5A    -11.236577     6A     -1.214070
       7A     -1.100589     8A     -0.984340     9A     -0.845350
      10A     -0.701771    11A     -0.671371    12A     -0.603803
      13A     -0.583378    14A     -0.563215    15A     -0.529750
      16A     -0.518462    17A     -0.506354    18A     -0.455630
      19A     -0.452712

  @DF-RHF Final Energy:  -210.07014027013912

   => Energetics <=

    Nuclear Repulsion Energy =            153.6316062215051659
    One-Electron Energy =                -586.7012209507230409
    Two-Electron Energy =                 222.9994744590787263
    Total Energy =                       -210.0701402701391203
  Basis Set: (AUG-CC-PVTZ AUX)
    Blend: AUG-CC-PVTZ-RI
    Molecular point group: c1

    Geometry (in Angstrom), charge = 0, multiplicity = 1:

       Center              X                  Y                   Z               Mass
    ------------   -----------------  -----------------  -----------------  -----------------
         N           -2.494058024618    -0.280548575663     0.000001115574    14.003074004430
         C            1.013514975382    -0.513674575663    -0.000000884426    12.000000000000
         C           -0.009204024618     0.630389424337     0.000000115574    12.000000000000
         C            2.442911975382     0.018557424337     0.000000115574    12.000000000000
         C           -1.409277424618     0.132616624337    -0.000000884426    12.000000000000
         H            0.843534975382    -1.143887575663    -0.878814884426     1.007825032230
         H            0.843533975382    -1.143887575663     0.878814115574     1.007825032230
         H            0.135111975382     1.266603424337    -0.880470884426     1.007825032230
         H            0.135110975382     1.266600424337     0.880472115574     1.007825032230
         H            2.633239975382     0.632881424337    -0.885186884426     1.007825032230
         H            2.633239975382     0.632876424337     0.885191115574     1.007825032230
         H            3.164075975382    -0.802853575663    -0.000001884426     1.007825032230

  Basis Set: AUG-CC-PVTZ
    Blend: AUG-CC-PVTZ
  Basis Set: (AUG-CC-PVTZ AUX)
    Blend: AUG-CC-PVTZ-JKFIT
	 Reference Energy          =    -210.0701402701391203 [Eh]
	 Singles Energy            =      -0.0000000000000000 [Eh]
	 Same-Spin Energy          =      -0.2168134392553368 [Eh]
	 Opposite-Spin Energy      =      -0.7505211444886172 [Eh]
	 Correlation Energy        =      -0.9673345837439540 [Eh]
	 Total Energy              =    -211.0374748538830829 [Eh]

	 ================> DF-SCS-MP2 Energies <==================
	-----------------------------------------------------------
	 SCS Same-Spin Scale       =       0.3333333333333333 [-]
	 SCS Opposite-Spin Scale   =       1.2000000000000000 [-]
	 SCS Same-Spin Energy      =      -0.0722711464184456 [Eh]
	 SCS Opposite-Spin Energy  =      -0.9006253733863405 [Eh]
	 SCS Correlation Energy    =      -0.9728965198047861 [Eh]
	 SCS Total Energy          =    -211.0430367899438977 [Eh]
	-----------------------------------------------------------

  Dipole Moment: [D]
     X:     4.0293      Y:     1.0912      Z:    -0.0000     Total:     4.1744

*** Psi4 exiting successfully. Buy a developer a beer!
