                               Psi4 1.3.2 release

  ==> Input File <==

--------------------------------------------------------------------------
#psi4
#
memory 32 gb

molecule  {
0 1
  N        2.6255493    -0.3100152     0.0008706
  C       -0.8748290    -0.5238240     0.0003100
  C        0.1478200     0.6200950     0.0003100
  C       -2.3044840     0.0081730    -0.0002990
  C        1.5293590     0.1288950    -0.0005060
  H       -0.7052620    -1.1537770     0.8794380
  H       -0.7047750    -1.1544660    -0.8781930
  H        0.0039960     1.2557980     0.8812230
  H        0.0030960     1.2567630    -0.8797780
  H       -2.4949090     0.6237750     0.8839850
  H       -2.4950800     0.6211070    -0.8863780
  H       -3.0255150    -0.8133870     0.0010390
units angstrom
no_reorient  #important for SAPT in psi4, default
symmetry c1  #important for SAPT in psi4, default
}

set PROPERTIES_ORIGIN ["COM"]
properties('MP2/aug-cc-pvtz', properties = ['dipole'])
--------------------------------------------------------------------------

    Molecular point group: c1
  Charge       = 0
  Multiplicity = 1
  Basis Set: AUG-CC-PVTZ
    Blend: AUG-CC-PVTZ
  Basis Set: (AUG-CC-PVTZ AUX)
    Blend: AUG-CC-PVTZ-JKFIT

    Orbital Energies [Eh]
    ---------------------

    Doubly Occupied:

       1A    -15.575117     2A    -11.284864     3A    -11.281113
       4A    -11.253855     5A    -11.236746     6A     -1.205716
       7A     -1.101922     8A     -0.987420     9A     -0.846739
      10A     -0.706178    11A     -0.672398    12A     -0.604642
      13A     -0.584191    14A     -0.563868    15A     -0.530286
      16A     -0.518794    17A     -0.506567    18A     -0.449386
      19A     -0.446621

  @DF-RHF Final Energy:  -210.06622113363838

   => Energetics <=

    Nuclear Repulsion Energy =            153.6212631022177391
    One-Electron Energy =                -586.6621241202080910
    Two-Electron Energy =                 222.9746398843519444
    Total Energy =                       -210.0662211336383791
  Basis Set: (AUG-CC-PVTZ AUX)
    Blend: AUG-CC-PVTZ-RI
    Molecular point group: c1

    Geometry (in Angstrom), charge = 0, multiplicity = 1:

       Center              X                  Y                   Z               Mass
    ------------   -----------------  -----------------  -----------------  -----------------
         N            2.491632524625    -0.296978165964     0.000706715219    14.003074004430
         C           -1.008745775375    -0.510786965964     0.000146115219    12.000000000000
         C            0.013903224625     0.633132034036     0.000146115219    12.000000000000
         C           -2.438400775375     0.021210034036    -0.000462884781    12.000000000000
         C            1.395442224625     0.141932034036    -0.000669884781    12.000000000000
         H           -0.839178775375    -1.140739965964     0.879274115219     1.007825032230
         H           -0.838691775375    -1.141428965964    -0.878356884781     1.007825032230
         H           -0.129920775375     1.268835034036     0.881059115219     1.007825032230
         H           -0.130820775375     1.269800034036    -0.879941884781     1.007825032230
         H           -2.628825775375     0.636812034036     0.883821115219     1.007825032230
         H           -2.628996775375     0.634144034036    -0.886541884781     1.007825032230
         H           -3.159431775375    -0.800349965964     0.000875115219     1.007825032230

  Basis Set: AUG-CC-PVTZ
    Blend: AUG-CC-PVTZ
  Basis Set: (AUG-CC-PVTZ AUX)
    Blend: AUG-CC-PVTZ-JKFIT
	 Reference Energy          =    -210.0662211336383791 [Eh]
	 Singles Energy            =      -0.0000000000000000 [Eh]
	 Same-Spin Energy          =      -0.2182844978586072 [Eh]
	 Opposite-Spin Energy      =      -0.7532562508312820 [Eh]
	 Correlation Energy        =      -0.9715407486898893 [Eh]
	 Total Energy              =    -211.0377618823282546 [Eh]

	 ================> DF-SCS-MP2 Energies <==================
	-----------------------------------------------------------
	 SCS Same-Spin Scale       =       0.3333333333333333 [-]
	 SCS Opposite-Spin Scale   =       1.2000000000000000 [-]
	 SCS Same-Spin Energy      =      -0.0727614992862024 [Eh]
	 SCS Opposite-Spin Energy  =      -0.9039075009975384 [Eh]
	 SCS Correlation Energy    =      -0.9766690002837408 [Eh]
	 SCS Total Energy          =    -211.0428901339221284 [Eh]
	-----------------------------------------------------------

  Dipole Moment: [D]
     X:    -4.0162      Y:     1.1187      Z:    -0.0008     Total:     4.1691

*** Psi4 exiting successfully. Buy a developer a beer!
