                               Psi4 1.4a3.dev225

  ==> Input File <==

--------------------------------------------------------------------------
#psi4
#
memory 32 gb

molecule  {
0 1
  N       -2.6327470    -0.2908650     0.0000010
  C        0.8748260    -0.5239910    -0.0000010
  C       -0.1478930     0.6200730     0.0000000
  C        2.3042230     0.0082410     0.0000000
  C       -1.5762331     0.1122504    -0.0000010
  H        0.7048460    -1.1542040    -0.8788150
  H        0.7048450    -1.1542040     0.8788140
  H       -0.0035770     1.2562870    -0.8804710
  H       -0.0035780     1.2562840     0.8804720
  H        2.4945510     0.6225650    -0.8851870
  H        2.4945510     0.6225600     0.8851910
  H        3.0253870    -0.8131700    -0.0000020
units angstrom
no_reorient  #important for SAPT in psi4, default
symmetry c1  #important for SAPT in psi4, default
}

set PROPERTIES_ORIGIN ["COM"]
properties('MP2/aug-cc-pvtz', properties = ['dipole'])
--------------------------------------------------------------------------

    Molecular point group: c1
  Charge       = 0
  Multiplicity = 1
  Basis Set: AUG-CC-PVTZ
    Blend: AUG-CC-PVTZ
  Basis Set: (AUG-CC-PVTZ AUX)
    Blend: AUG-CC-PVTZ-JKFIT

    Orbital Energies [Eh]
    ---------------------

    Doubly Occupied:

       1A    -15.559392     2A    -11.288618     3A    -11.265415
       4A    -11.252767     5A    -11.236394     6A     -1.227153
       7A     -1.098430     8A     -0.979805     9A     -0.843340
      10A     -0.694624    11A     -0.669964    12A     -0.602621
      13A     -0.582285    14A     -0.561899    15A     -0.529167
      16A     -0.517924    17A     -0.506121    18A     -0.465134
      19A     -0.461884

  @DF-RHF Final Energy:  -210.07180267349727

   => Energetics <=

    Nuclear Repulsion Energy =            153.7089677261620579
    One-Electron Energy =                -586.8756702211290985
    Two-Electron Energy =                 223.0948998214697383
    Total Energy =                       -210.0718026734972739
  Basis Set: (AUG-CC-PVTZ AUX)
    Blend: AUG-CC-PVTZ-RI
    Molecular point group: c1

    Geometry (in Angstrom), charge = 0, multiplicity = 1:

       Center              X                  Y                   Z               Mass
    ------------   -----------------  -----------------  -----------------  -----------------
         N           -2.489146194844    -0.278802248470     0.000001115574    14.003074004430
         C            1.018426805156    -0.511928248470    -0.000000884426    12.000000000000
         C           -0.004292194844     0.632135751530     0.000000115574    12.000000000000
         C            2.447823805156     0.020303751530     0.000000115574    12.000000000000
         C           -1.432632294844     0.124313151530    -0.000000884426    12.000000000000
         H            0.848446805156    -1.142141248470    -0.878814884426     1.007825032230
         H            0.848445805156    -1.142141248470     0.878814115574     1.007825032230
         H            0.140023805156     1.268349751530    -0.880470884426     1.007825032230
         H            0.140022805156     1.268346751530     0.880472115574     1.007825032230
         H            2.638151805156     0.634627751530    -0.885186884426     1.007825032230
         H            2.638151805156     0.634622751530     0.885191115574     1.007825032230
         H            3.168987805156    -0.801107248470    -0.000001884426     1.007825032230

  Basis Set: AUG-CC-PVTZ
    Blend: AUG-CC-PVTZ
  Basis Set: (AUG-CC-PVTZ AUX)
    Blend: AUG-CC-PVTZ-JKFIT
	 Reference Energy          =    -210.0718026734972739 [Eh]
	 Singles Energy            =      -0.0000000000000000 [Eh]
	 Same-Spin Energy          =      -0.2147362600350759 [Eh]
	 Opposite-Spin Energy      =      -0.7466327786551948 [Eh]
	 Correlation Energy        =      -0.9613690386902707 [Eh]
	 Total Energy              =    -211.0331717121875386 [Eh]

	 ================> DF-SCS-MP2 Energies <==================
	-----------------------------------------------------------
	 SCS Same-Spin Scale       =       0.3333333333333333 [-]
	 SCS Opposite-Spin Scale   =       1.2000000000000000 [-]
	 SCS Same-Spin Energy      =      -0.0715787533450253 [Eh]
	 SCS Opposite-Spin Energy  =      -0.8959593343862338 [Eh]
	 SCS Correlation Energy    =      -0.9675380877312590 [Eh]
	 SCS Total Energy          =    -211.0393407612285444 [Eh]
	-----------------------------------------------------------

  Dipole Moment: [D]
     X:     4.0376      Y:     1.0924      Z:    -0.0000     Total:     4.1828

*** Psi4 exiting successfully. Buy a developer a beer!
