                               Psi4 1.3.2 release

  ==> Input File <==

--------------------------------------------------------------------------
#psi4
#
memory 32 gb

molecule  {
0 1
  N        2.6330360    -0.2908360    -0.0000330
  C       -0.8748290    -0.5238240     0.0003100
  C        0.1478200     0.6200950     0.0003100
  C       -2.3044840     0.0081730    -0.0002990
  C        1.5336879     0.1417731    -0.0221925
  H       -0.7052620    -1.1537770     0.8794380
  H       -0.7047750    -1.1544660    -0.8781930
  H        0.0039960     1.2557980     0.8812230
  H        0.0030960     1.2567630    -0.8797780
  H       -2.4949090     0.6237750     0.8839850
  H       -2.4950800     0.6211070    -0.8863780
  H       -3.0255150    -0.8133870     0.0010390
units angstrom
no_reorient  #important for SAPT in psi4, default
symmetry c1  #important for SAPT in psi4, default
}

set PROPERTIES_ORIGIN ["COM"]
properties('MP2/aug-cc-pvtz', properties = ['dipole'])
--------------------------------------------------------------------------

    Molecular point group: c1
  Charge       = 0
  Multiplicity = 1
  Basis Set: AUG-CC-PVTZ
    Blend: AUG-CC-PVTZ
  Basis Set: (AUG-CC-PVTZ AUX)
    Blend: AUG-CC-PVTZ-JKFIT

    Orbital Energies [Eh]
    ---------------------

    Doubly Occupied:

       1A    -15.575388     2A    -11.284869     3A    -11.281381
       4A    -11.254028     5A    -11.236879     6A     -1.205349
       7A     -1.101819     8A     -0.987599     9A     -0.847064
      10A     -0.705834    11A     -0.672362    12A     -0.604527
      13A     -0.584314    14A     -0.563945    15A     -0.530430
      16A     -0.518837    17A     -0.506685    18A     -0.449033
      19A     -0.446480

  @DF-RHF Final Energy:  -210.06591977806815

   => Energetics <=

    Nuclear Repulsion Energy =            153.5445067684071319
    One-Electron Energy =                -586.5072109640814233
    Two-Electron Energy =                 222.8967844176061419
    Total Energy =                       -210.0659197780681495
  Basis Set: (AUG-CC-PVTZ AUX)
    Blend: AUG-CC-PVTZ-RI
    Molecular point group: c1

    Geometry (in Angstrom), charge = 0, multiplicity = 1:

       Center              X                  Y                   Z               Mass
    ------------   -----------------  -----------------  -----------------  -----------------
         N            2.496848901760    -0.283925785169     0.003754746797    14.003074004430
         C           -1.011016098240    -0.516913785169     0.004097746797    12.000000000000
         C            0.011632901760     0.627005214831     0.004097746797    12.000000000000
         C           -2.440671098240     0.015083214831     0.003488746797    12.000000000000
         C            1.397500801760     0.148683314831    -0.018404753203    12.000000000000
         H           -0.841449098240    -1.146866785169     0.883225746797     1.007825032230
         H           -0.840962098240    -1.147555785169    -0.874405253203     1.007825032230
         H           -0.132191098240     1.262708214831     0.885010746797     1.007825032230
         H           -0.133091098240     1.263673214831    -0.875990253203     1.007825032230
         H           -2.631096098240     0.630685214831     0.887772746797     1.007825032230
         H           -2.631267098240     0.628017214831    -0.882590253203     1.007825032230
         H           -3.161702098240    -0.806476785169     0.004826746797     1.007825032230

  Basis Set: AUG-CC-PVTZ
    Blend: AUG-CC-PVTZ
  Basis Set: (AUG-CC-PVTZ AUX)
    Blend: AUG-CC-PVTZ-JKFIT
	 Reference Energy          =    -210.0659197780681495 [Eh]
	 Singles Energy            =      -0.0000000000000000 [Eh]
	 Same-Spin Energy          =      -0.2183265829447313 [Eh]
	 Opposite-Spin Energy      =      -0.7533637312769985 [Eh]
	 Correlation Energy        =      -0.9716903142217298 [Eh]
	 Total Energy              =    -211.0376100922898672 [Eh]

	 ================> DF-SCS-MP2 Energies <==================
	-----------------------------------------------------------
	 SCS Same-Spin Scale       =       0.3333333333333333 [-]
	 SCS Opposite-Spin Scale   =       1.2000000000000000 [-]
	 SCS Same-Spin Energy      =      -0.0727755276482438 [Eh]
	 SCS Opposite-Spin Energy  =      -0.9040364775323981 [Eh]
	 SCS Correlation Energy    =      -0.9768120051806419 [Eh]
	 SCS Total Energy          =    -211.0427317832487972 [Eh]
	-----------------------------------------------------------

  Dipole Moment: [D]
     X:    -4.0273      Y:     1.0910      Z:    -0.0037     Total:     4.1724

*** Psi4 exiting successfully. Buy a developer a beer!
