                               Psi4 1.3.2 release

  ==> Input File <==

--------------------------------------------------------------------------
#psi4
#
memory 32 gb

molecule  {
0 1
  N        2.6401865    -0.2715289    -0.0009367
  C       -0.8748290    -0.5238240     0.0003100
  C        0.1478200     0.6200950     0.0003100
  C       -2.3044840     0.0081730    -0.0002990
  C        1.5293590     0.1288950    -0.0005060
  H       -0.7052620    -1.1537770     0.8794380
  H       -0.7047750    -1.1544660    -0.8781930
  H        0.0039960     1.2557980     0.8812230
  H        0.0030960     1.2567630    -0.8797780
  H       -2.4949090     0.6237750     0.8839850
  H       -2.4950800     0.6211070    -0.8863780
  H       -3.0255150    -0.8133870     0.0010390
units angstrom
no_reorient  #important for SAPT in psi4, default
symmetry c1  #important for SAPT in psi4, default
}

set PROPERTIES_ORIGIN ["COM"]
properties('MP2/aug-cc-pvtz', properties = ['dipole'])
--------------------------------------------------------------------------

    Molecular point group: c1
  Charge       = 0
  Multiplicity = 1
  Basis Set: AUG-CC-PVTZ
    Blend: AUG-CC-PVTZ
  Basis Set: (AUG-CC-PVTZ AUX)
    Blend: AUG-CC-PVTZ-JKFIT

    Orbital Energies [Eh]
    ---------------------

    Doubly Occupied:

       1A    -15.575128     2A    -11.284887     3A    -11.281129
       4A    -11.253896     5A    -11.236777     6A     -1.205677
       7A     -1.102061     8A     -0.987441     9A     -0.846759
      10A     -0.706384    11A     -0.672471    12A     -0.604732
      13A     -0.584249    14A     -0.563939    15A     -0.530123
      16A     -0.518946    17A     -0.506699    18A     -0.449345
      19A     -0.446653

  @DF-RHF Final Energy:  -210.06624038978836

   => Energetics <=

    Nuclear Repulsion Energy =            153.5649573076178740
    One-Electron Energy =                -586.5478042304287101
    Two-Electron Energy =                 222.9166065330224740
    Total Energy =                       -210.0662403897883621
  Basis Set: (AUG-CC-PVTZ AUX)
    Blend: AUG-CC-PVTZ-RI
    Molecular point group: c1

    Geometry (in Angstrom), charge = 0, multiplicity = 1:

       Center              X                  Y                   Z               Mass
    ------------   -----------------  -----------------  -----------------  -----------------
         N            2.503301694241    -0.266295852231    -0.000734112961    14.003074004430
         C           -1.011713805759    -0.518590952231     0.000512587039    12.000000000000
         C            0.010935194241     0.625328047769     0.000512587039    12.000000000000
         C           -2.441368805759     0.013406047769    -0.000096412961    12.000000000000
         C            1.392474194241     0.134128047769    -0.000303412961    12.000000000000
         H           -0.842146805759    -1.148543952231     0.879640587039     1.007825032230
         H           -0.841659805759    -1.149232952231    -0.877990412961     1.007825032230
         H           -0.132888805759     1.261031047769     0.881425587039     1.007825032230
         H           -0.133788805759     1.261996047769    -0.879575412961     1.007825032230
         H           -2.631793805759     0.629008047769     0.884187587039     1.007825032230
         H           -2.631964805759     0.626340047769    -0.886175412961     1.007825032230
         H           -3.162399805759    -0.808153952231     0.001241587039     1.007825032230

  Basis Set: AUG-CC-PVTZ
    Blend: AUG-CC-PVTZ
  Basis Set: (AUG-CC-PVTZ AUX)
    Blend: AUG-CC-PVTZ-JKFIT
	 Reference Energy          =    -210.0662403897883621 [Eh]
	 Singles Energy            =      -0.0000000000000000 [Eh]
	 Same-Spin Energy          =      -0.2182671996914699 [Eh]
	 Opposite-Spin Energy      =      -0.7532410254475522 [Eh]
	 Correlation Energy        =      -0.9715082251390221 [Eh]
	 Total Energy              =    -211.0377486149273807 [Eh]

	 ================> DF-SCS-MP2 Energies <==================
	-----------------------------------------------------------
	 SCS Same-Spin Scale       =       0.3333333333333333 [-]
	 SCS Opposite-Spin Scale   =       1.2000000000000000 [-]
	 SCS Same-Spin Energy      =      -0.0727557332304900 [Eh]
	 SCS Opposite-Spin Energy  =      -0.9038892305370626 [Eh]
	 SCS Correlation Energy    =      -0.9766449637675526 [Eh]
	 SCS Total Energy          =    -211.0428853535559028 [Eh]
	-----------------------------------------------------------

  Dipole Moment: [D]
     X:    -4.0362      Y:     1.0627      Z:     0.0019     Total:     4.1737

*** Psi4 exiting successfully. Buy a developer a beer!
