                               Psi4 1.3.2 release

  ==> Input File <==

--------------------------------------------------------------------------
#psi4
#
memory 32 gb

molecule  {
0 1
  N        2.6330360    -0.2908360    -0.0000330
  C       -0.8748290    -0.5238240     0.0003100
  C        0.1478200     0.6200950     0.0003100
  C       -2.3044840     0.0081730    -0.0002990
  C        1.5194401     0.1035915     0.0428611
  H       -0.7052620    -1.1537770     0.8794380
  H       -0.7047750    -1.1544660    -0.8781930
  H        0.0039960     1.2557980     0.8812230
  H        0.0030960     1.2567630    -0.8797780
  H       -2.4949090     0.6237750     0.8839850
  H       -2.4950800     0.6211070    -0.8863780
  H       -3.0255150    -0.8133870     0.0010390
units angstrom
no_reorient  #important for SAPT in psi4, default
symmetry c1  #important for SAPT in psi4, default
}

set PROPERTIES_ORIGIN ["COM"]
properties('MP2/aug-cc-pvtz', properties = ['dipole'])
--------------------------------------------------------------------------

    Molecular point group: c1
  Charge       = 0
  Multiplicity = 1
  Basis Set: AUG-CC-PVTZ
    Blend: AUG-CC-PVTZ
  Basis Set: (AUG-CC-PVTZ AUX)
    Blend: AUG-CC-PVTZ-JKFIT

    Orbital Energies [Eh]
    ---------------------

    Doubly Occupied:

       1A    -15.575754     2A    -11.284909     3A    -11.281571
       4A    -11.253570     5A    -11.236505     6A     -1.205271
       7A     -1.102233     8A     -0.987064     9A     -0.846125
      10A     -0.707564    11A     -0.672294    12A     -0.604949
      13A     -0.583990    14A     -0.564038    15A     -0.529579
      16A     -0.518876    17A     -0.506485    18A     -0.449184
      19A     -0.446239

  @DF-RHF Final Energy:  -210.06530674643795

   => Energetics <=

    Nuclear Repulsion Energy =            153.6443253227307366
    One-Electron Energy =                -586.7068644695126522
    Two-Electron Energy =                 222.9972324003439326
    Total Energy =                       -210.0653067464379546
  Basis Set: (AUG-CC-PVTZ AUX)
    Blend: AUG-CC-PVTZ-RI
    Molecular point group: c1

    Geometry (in Angstrom), charge = 0, multiplicity = 1:

       Center              X                  Y                   Z               Mass
    ------------   -----------------  -----------------  -----------------  -----------------
         N            2.499324704321    -0.277291069418    -0.007549445395    14.003074004430
         C           -1.008540295679    -0.510279069418    -0.007206445395    12.000000000000
         C            0.014108704321     0.633639930582    -0.007206445395    12.000000000000
         C           -2.438195295679     0.021717930582    -0.007815445395    12.000000000000
         C            1.385728804321     0.117136430582     0.035344654605    12.000000000000
         H           -0.838973295679    -1.140232069418     0.871921554605     1.007825032230
         H           -0.838486295679    -1.140921069418    -0.885709445395     1.007825032230
         H           -0.129715295679     1.269342930582     0.873706554605     1.007825032230
         H           -0.130615295679     1.270307930582    -0.887294445395     1.007825032230
         H           -2.628620295679     0.637319930582     0.876468554605     1.007825032230
         H           -2.628791295679     0.634651930582    -0.893894445395     1.007825032230
         H           -3.159226295679    -0.799842069418    -0.006477445395     1.007825032230

  Basis Set: AUG-CC-PVTZ
    Blend: AUG-CC-PVTZ
  Basis Set: (AUG-CC-PVTZ AUX)
    Blend: AUG-CC-PVTZ-JKFIT
	 Reference Energy          =    -210.0653067464379546 [Eh]
	 Singles Energy            =      -0.0000000000000000 [Eh]
	 Same-Spin Energy          =      -0.2183995398795396 [Eh]
	 Opposite-Spin Energy      =      -0.7535383614933456 [Eh]
	 Correlation Energy        =      -0.9719379013728853 [Eh]
	 Total Energy              =    -211.0372446478108373 [Eh]

	 ================> DF-SCS-MP2 Energies <==================
	-----------------------------------------------------------
	 SCS Same-Spin Scale       =       0.3333333333333333 [-]
	 SCS Opposite-Spin Scale   =       1.2000000000000000 [-]
	 SCS Same-Spin Energy      =      -0.0727998466265132 [Eh]
	 SCS Opposite-Spin Energy  =      -0.9042460337920147 [Eh]
	 SCS Correlation Energy    =      -0.9770458804185279 [Eh]
	 SCS Total Energy          =    -211.0423526268564842 [Eh]
	-----------------------------------------------------------

  Dipole Moment: [D]
     X:    -4.0160      Y:     1.0874      Z:     0.0091     Total:     4.1606

*** Psi4 exiting successfully. Buy a developer a beer!
