                               Psi4 1.3.2 release

  ==> Input File <==

--------------------------------------------------------------------------
#psi4
#
memory 32 gb

molecule  {
0 1
  N        2.6469987    -0.2520998    -0.0018403
  C       -0.8748290    -0.5238240     0.0003100
  C        0.1478200     0.6200950     0.0003100
  C       -2.3044840     0.0081730    -0.0002990
  C        1.5293590     0.1288950    -0.0005060
  H       -0.7052620    -1.1537770     0.8794380
  H       -0.7047750    -1.1544660    -0.8781930
  H        0.0039960     1.2557980     0.8812230
  H        0.0030960     1.2567630    -0.8797780
  H       -2.4949090     0.6237750     0.8839850
  H       -2.4950800     0.6211070    -0.8863780
  H       -3.0255150    -0.8133870     0.0010390
units angstrom
no_reorient  #important for SAPT in psi4, default
symmetry c1  #important for SAPT in psi4, default
}

set PROPERTIES_ORIGIN ["COM"]
properties('MP2/aug-cc-pvtz', properties = ['dipole'])
--------------------------------------------------------------------------

    Molecular point group: c1
  Charge       = 0
  Multiplicity = 1
  Basis Set: AUG-CC-PVTZ
    Blend: AUG-CC-PVTZ
  Basis Set: (AUG-CC-PVTZ AUX)
    Blend: AUG-CC-PVTZ-JKFIT

    Orbital Energies [Eh]
    ---------------------

    Doubly Occupied:

       1A    -15.575153     2A    -11.284888     3A    -11.281129
       4A    -11.253902     5A    -11.236783     6A     -1.205679
       7A     -1.102112     8A     -0.987433     9A     -0.846756
      10A     -0.706471    11A     -0.672497    12A     -0.604768
      13A     -0.584269    14A     -0.563984    15A     -0.530035
      16A     -0.519010    17A     -0.506755    18A     -0.449334
      19A     -0.446664

  @DF-RHF Final Energy:  -210.06620525244224

   => Energetics <=

    Nuclear Repulsion Energy =            153.5394948786419889
    One-Electron Energy =                -586.4961584024721333
    Two-Electron Energy =                 222.8904582713878710
    Total Energy =                       -210.0662052524422450
  Basis Set: (AUG-CC-PVTZ AUX)
    Blend: AUG-CC-PVTZ-RI
    Molecular point group: c1

    Geometry (in Angstrom), charge = 0, multiplicity = 1:

       Center              X                  Y                   Z               Mass
    ------------   -----------------  -----------------  -----------------  -----------------
         N            2.508732563345    -0.250806451023    -0.001454487190    14.003074004430
         C           -1.013095136655    -0.522530651023     0.000695812810    12.000000000000
         C            0.009553863345     0.621388348977     0.000695812810    12.000000000000
         C           -2.442750136655     0.009466348977     0.000086812810    12.000000000000
         C            1.391092863345     0.130188348977    -0.000120187190    12.000000000000
         H           -0.843528136655    -1.152483651023     0.879823812810     1.007825032230
         H           -0.843041136655    -1.153172651023    -0.877807187190     1.007825032230
         H           -0.134270136655     1.257091348977     0.881608812810     1.007825032230
         H           -0.135170136655     1.258056348977    -0.879392187190     1.007825032230
         H           -2.633175136655     0.625068348977     0.884370812810     1.007825032230
         H           -2.633346136655     0.622400348977    -0.885992187190     1.007825032230
         H           -3.163781136655    -0.812093651023     0.001424812810     1.007825032230

  Basis Set: AUG-CC-PVTZ
    Blend: AUG-CC-PVTZ
  Basis Set: (AUG-CC-PVTZ AUX)
    Blend: AUG-CC-PVTZ-JKFIT
	 Reference Energy          =    -210.0662052524422450 [Eh]
	 Singles Energy            =      -0.0000000000000000 [Eh]
	 Same-Spin Energy          =      -0.2182608276330582 [Eh]
	 Opposite-Spin Energy      =      -0.7532426158123884 [Eh]
	 Correlation Energy        =      -0.9715034434454466 [Eh]
	 Total Energy              =    -211.0377086958876873 [Eh]

	 ================> DF-SCS-MP2 Energies <==================
	-----------------------------------------------------------
	 SCS Same-Spin Scale       =       0.3333333333333333 [-]
	 SCS Opposite-Spin Scale   =       1.2000000000000000 [-]
	 SCS Same-Spin Energy      =      -0.0727536092110194 [Eh]
	 SCS Opposite-Spin Energy  =      -0.9038911389748661 [Eh]
	 SCS Correlation Energy    =      -0.9766447481858854 [Eh]
	 SCS Total Energy          =    -211.0428500006281354 [Eh]
	-----------------------------------------------------------

  Dipole Moment: [D]
     X:    -4.0448      Y:     1.0344      Z:     0.0032     Total:     4.1749

*** Psi4 exiting successfully. Buy a developer a beer!
