                               Psi4 1.3.2 release

  ==> Input File <==

--------------------------------------------------------------------------
#psi4
#
memory 32 gb

molecule  {
0 1
  N        2.6595996    -0.2128995    -0.0036461
  C       -0.8748290    -0.5238240     0.0003100
  C        0.1478200     0.6200950     0.0003100
  C       -2.3044840     0.0081730    -0.0002990
  C        1.5293590     0.1288950    -0.0005060
  H       -0.7052620    -1.1537770     0.8794380
  H       -0.7047750    -1.1544660    -0.8781930
  H        0.0039960     1.2557980     0.8812230
  H        0.0030960     1.2567630    -0.8797780
  H       -2.4949090     0.6237750     0.8839850
  H       -2.4950800     0.6211070    -0.8863780
  H       -3.0255150    -0.8133870     0.0010390
units angstrom
no_reorient  #important for SAPT in psi4, default
symmetry c1  #important for SAPT in psi4, default
}

set PROPERTIES_ORIGIN ["COM"]
properties('MP2/aug-cc-pvtz', properties = ['dipole'])
--------------------------------------------------------------------------

    Molecular point group: c1
  Charge       = 0
  Multiplicity = 1
  Basis Set: AUG-CC-PVTZ
    Blend: AUG-CC-PVTZ
  Basis Set: (AUG-CC-PVTZ AUX)
    Blend: AUG-CC-PVTZ-JKFIT

    Orbital Energies [Eh]
    ---------------------

    Doubly Occupied:

       1A    -15.575239     2A    -11.284869     3A    -11.281111
       4A    -11.253885     5A    -11.236776     6A     -1.205727
       7A     -1.102175     8A     -0.987382     9A     -0.846726
      10A     -0.706611    11A     -0.672525    12A     -0.604820
      13A     -0.584290    14A     -0.564095    15A     -0.529848
      16A     -0.519117    17A     -0.506847    18A     -0.449330
      19A     -0.446676

  @DF-RHF Final Energy:  -210.06604565906892

   => Energetics <=

    Nuclear Repulsion Energy =            153.4939232776609401
    One-Electron Energy =                -586.4038432219870174
    Two-Electron Energy =                 222.8438742852571579
    Total Energy =                       -210.0660456590689193
  Basis Set: (AUG-CC-PVTZ AUX)
    Blend: AUG-CC-PVTZ-RI
    Molecular point group: c1

    Geometry (in Angstrom), charge = 0, multiplicity = 1:

       Center              X                  Y                   Z               Mass
    ------------   -----------------  -----------------  -----------------  -----------------
         N            2.518778339819    -0.219554917282    -0.002894119531    14.003074004430
         C           -1.015650260181    -0.530479417282     0.001061980469    12.000000000000
         C            0.006998739819     0.613439582718     0.001061980469    12.000000000000
         C           -2.445305260181     0.001517582718     0.000452980469    12.000000000000
         C            1.388537739819     0.122239582718     0.000245980469    12.000000000000
         H           -0.846083260181    -1.160432417282     0.880189980469     1.007825032230
         H           -0.845596260181    -1.161121417282    -0.877441019531     1.007825032230
         H           -0.136825260181     1.249142582718     0.881974980469     1.007825032230
         H           -0.137725260181     1.250107582718    -0.879026019531     1.007825032230
         H           -2.635730260181     0.617119582718     0.884736980469     1.007825032230
         H           -2.635901260181     0.614451582718    -0.885626019531     1.007825032230
         H           -3.166336260181    -0.820042417282     0.001790980469     1.007825032230

  Basis Set: AUG-CC-PVTZ
    Blend: AUG-CC-PVTZ
  Basis Set: (AUG-CC-PVTZ AUX)
    Blend: AUG-CC-PVTZ-JKFIT
	 Reference Energy          =    -210.0660456590689193 [Eh]
	 Singles Energy            =      -0.0000000000000000 [Eh]
	 Same-Spin Energy          =      -0.2182525997593007 [Eh]
	 Opposite-Spin Energy      =      -0.7532640273164841 [Eh]
	 Correlation Energy        =      -0.9715166270757848 [Eh]
	 Total Energy              =    -211.0375622861446914 [Eh]

	 ================> DF-SCS-MP2 Energies <==================
	-----------------------------------------------------------
	 SCS Same-Spin Scale       =       0.3333333333333333 [-]
	 SCS Opposite-Spin Scale   =       1.2000000000000000 [-]
	 SCS Same-Spin Energy      =      -0.0727508665864336 [Eh]
	 SCS Opposite-Spin Energy  =      -0.9039168327797809 [Eh]
	 SCS Correlation Energy    =      -0.9766676993662144 [Eh]
	 SCS Total Energy          =    -211.0427133584351225 [Eh]
	-----------------------------------------------------------

  Dipole Moment: [D]
     X:    -4.0591      Y:     0.9769      Z:     0.0059     Total:     4.1750

*** Psi4 exiting successfully. Buy a developer a beer!
