                               Psi4 1.3.2 release

  ==> Input File <==

--------------------------------------------------------------------------
#psi4
#
memory 32 gb

molecule  {
0 1
  N        2.5831563    -0.4037906     0.0053768
  C       -0.8748290    -0.5238240     0.0003100
  C        0.1478200     0.6200950     0.0003100
  C       -2.3044840     0.0081730    -0.0002990
  C        1.5293590     0.1288950    -0.0005060
  H       -0.7052620    -1.1537770     0.8794380
  H       -0.7047750    -1.1544660    -0.8781930
  H        0.0039960     1.2557980     0.8812230
  H        0.0030960     1.2567630    -0.8797780
  H       -2.4949090     0.6237750     0.8839850
  H       -2.4950800     0.6211070    -0.8863780
  H       -3.0255150    -0.8133870     0.0010390
units angstrom
no_reorient  #important for SAPT in psi4, default
symmetry c1  #important for SAPT in psi4, default
}

set PROPERTIES_ORIGIN ["COM"]
properties('MP2/aug-cc-pvtz', properties = ['dipole'])
--------------------------------------------------------------------------

    Molecular point group: c1
  Charge       = 0
  Multiplicity = 1
  Basis Set: AUG-CC-PVTZ
    Blend: AUG-CC-PVTZ
  Basis Set: (AUG-CC-PVTZ AUX)
    Blend: AUG-CC-PVTZ-JKFIT

    Orbital Energies [Eh]
    ---------------------

    Doubly Occupied:

       1A    -15.575303     2A    -11.284684     3A    -11.280977
       4A    -11.253583     5A    -11.236557     6A     -1.206072
       7A     -1.101351     8A     -0.987160     9A     -0.846545
      10A     -0.705470    11A     -0.672089    12A     -0.604311
      13A     -0.583942    14A     -0.563810    15A     -0.530624
      16A     -0.518283    17A     -0.506118    18A     -0.449600
      19A     -0.446483

  @DF-RHF Final Energy:  -210.06564925813115

   => Energetics <=

    Nuclear Repulsion Energy =            153.7938076330092656
    One-Electron Energy =                -587.0129860803565407
    Two-Electron Energy =                 223.1535291892161581
    Total Energy =                       -210.0656492581311454
  Basis Set: (AUG-CC-PVTZ AUX)
    Blend: AUG-CC-PVTZ-RI
    Molecular point group: c1

    Geometry (in Angstrom), charge = 0, multiplicity = 1:

       Center              X                  Y                   Z               Mass
    ------------   -----------------  -----------------  -----------------  -----------------
         N            2.457835684553    -0.371738437624     0.004299179087    14.003074004430
         C           -1.000149615447    -0.491771837624    -0.000767620913    12.000000000000
         C            0.022499384553     0.652147162376    -0.000767620913    12.000000000000
         C           -2.429804615447     0.040225162376    -0.001376620913    12.000000000000
         C            1.404038384553     0.160947162376    -0.001583620913    12.000000000000
         H           -0.830582615447    -1.121724837624     0.878360379087     1.007825032230
         H           -0.830095615447    -1.122413837624    -0.879270620913     1.007825032230
         H           -0.121324615447     1.287850162376     0.880145379087     1.007825032230
         H           -0.122224615447     1.288815162376    -0.880855620913     1.007825032230
         H           -2.620229615447     0.655827162376     0.882907379087     1.007825032230
         H           -2.620400615447     0.653159162376    -0.887455620913     1.007825032230
         H           -3.150835615447    -0.781334837624    -0.000038620913     1.007825032230

  Basis Set: AUG-CC-PVTZ
    Blend: AUG-CC-PVTZ
  Basis Set: (AUG-CC-PVTZ AUX)
    Blend: AUG-CC-PVTZ-JKFIT
	 Reference Energy          =    -210.0656492581311454 [Eh]
	 Singles Energy            =      -0.0000000000000000 [Eh]
	 Same-Spin Energy          =      -0.2183541102824118 [Eh]
	 Opposite-Spin Energy      =      -0.7534011979021586 [Eh]
	 Correlation Energy        =      -0.9717553081845705 [Eh]
	 Total Energy              =    -211.0374045663157290 [Eh]

	 ================> DF-SCS-MP2 Energies <==================
	-----------------------------------------------------------
	 SCS Same-Spin Scale       =       0.3333333333333333 [-]
	 SCS Opposite-Spin Scale   =       1.2000000000000000 [-]
	 SCS Same-Spin Energy      =      -0.0727847034274706 [Eh]
	 SCS Opposite-Spin Energy  =      -0.9040814374825903 [Eh]
	 SCS Correlation Energy    =      -0.9768661409100609 [Eh]
	 SCS Total Energy          =    -211.0425153990412070 [Eh]
	-----------------------------------------------------------

  Dipole Moment: [D]
     X:    -3.9504      Y:     1.2536      Z:    -0.0075     Total:     4.1446

*** Psi4 exiting successfully. Buy a developer a beer!
