                               Psi4 1.3.2 release

  ==> Input File <==

--------------------------------------------------------------------------
#psi4
#
memory 32 gb

molecule  {
0 1
  N        2.6330360    -0.2908360    -0.0000330
  C       -0.8748290    -0.5238240     0.0003100
  C        0.1478200     0.6200950     0.0003100
  C       -2.3044840     0.0081730    -0.0002990
  C        1.5078501     0.0789173     0.0861763
  H       -0.7052620    -1.1537770     0.8794380
  H       -0.7047750    -1.1544660    -0.8781930
  H        0.0039960     1.2557980     0.8812230
  H        0.0030960     1.2567630    -0.8797780
  H       -2.4949090     0.6237750     0.8839850
  H       -2.4950800     0.6211070    -0.8863780
  H       -3.0255150    -0.8133870     0.0010390
units angstrom
no_reorient  #important for SAPT in psi4, default
symmetry c1  #important for SAPT in psi4, default
}

set PROPERTIES_ORIGIN ["COM"]
properties('MP2/aug-cc-pvtz', properties = ['dipole'])
--------------------------------------------------------------------------

    Molecular point group: c1
  Charge       = 0
  Multiplicity = 1
  Basis Set: AUG-CC-PVTZ
    Blend: AUG-CC-PVTZ
  Basis Set: (AUG-CC-PVTZ AUX)
    Blend: AUG-CC-PVTZ-JKFIT

    Orbital Energies [Eh]
    ---------------------

    Doubly Occupied:

       1A    -15.577952     2A    -11.284976     3A    -11.283253
       4A    -11.253239     5A    -11.236203     6A     -1.203411
       7A     -1.102294     8A     -0.986626     9A     -0.845490
      10A     -0.709297    11A     -0.671785    12A     -0.605119
      13A     -0.583692    14A     -0.564485    15A     -0.528691
      16A     -0.518791    17A     -0.506262    18A     -0.447906
      19A     -0.444918

  @DF-RHF Final Energy:  -210.06220871130972

   => Energetics <=

    Nuclear Repulsion Energy =            153.6395361827148633
    One-Electron Energy =                -586.6947114121923050
    Two-Electron Energy =                 222.9929665181676910
    Total Energy =                       -210.0622087113097223
  Basis Set: (AUG-CC-PVTZ AUX)
    Blend: AUG-CC-PVTZ-RI
    Molecular point group: c1

    Geometry (in Angstrom), charge = 0, multiplicity = 1:

       Center              X                  Y                   Z               Mass
    ------------   -----------------  -----------------  -----------------  -----------------
         N            2.501338667999    -0.273003498877    -0.015076213254    14.003074004430
         C           -1.006526332001    -0.505991498877    -0.014733213254    12.000000000000
         C            0.016122667999     0.637927501123    -0.014733213254    12.000000000000
         C           -2.436181332001     0.026005501123    -0.015342213254    12.000000000000
         C            1.376152767999     0.096749801123     0.071133086746    12.000000000000
         H           -0.836959332001    -1.135944498877     0.864394786746     1.007825032230
         H           -0.836472332001    -1.136633498877    -0.893236213254     1.007825032230
         H           -0.127701332001     1.273630501123     0.866179786746     1.007825032230
         H           -0.128601332001     1.274595501123    -0.894821213254     1.007825032230
         H           -2.626606332001     0.641607501123     0.868941786746     1.007825032230
         H           -2.626777332001     0.638939501123    -0.901421213254     1.007825032230
         H           -3.157212332001    -0.795554498877    -0.014004213254     1.007825032230

  Basis Set: AUG-CC-PVTZ
    Blend: AUG-CC-PVTZ
  Basis Set: (AUG-CC-PVTZ AUX)
    Blend: AUG-CC-PVTZ-JKFIT
	 Reference Energy          =    -210.0622087113097223 [Eh]
	 Singles Energy            =      -0.0000000000000000 [Eh]
	 Same-Spin Energy          =      -0.2188250121618774 [Eh]
	 Opposite-Spin Energy      =      -0.7545323021428825 [Eh]
	 Correlation Energy        =      -0.9733573143047598 [Eh]
	 Total Energy              =    -211.0355660256144859 [Eh]

	 ================> DF-SCS-MP2 Energies <==================
	-----------------------------------------------------------
	 SCS Same-Spin Scale       =       0.3333333333333333 [-]
	 SCS Opposite-Spin Scale   =       1.2000000000000000 [-]
	 SCS Same-Spin Energy      =      -0.0729416707206258 [Eh]
	 SCS Opposite-Spin Energy  =      -0.9054387625714589 [Eh]
	 SCS Correlation Energy    =      -0.9783804332920847 [Eh]
	 SCS Total Energy          =    -211.0405891446017961 [Eh]
	-----------------------------------------------------------

  Dipole Moment: [D]
     X:    -3.9928      Y:     1.0804      Z:     0.0168     Total:     4.1365

*** Psi4 exiting successfully. Buy a developer a beer!
