                               Psi4 1.3.2 release

  ==> Input File <==

--------------------------------------------------------------------------
#psi4
#
memory 32 gb

molecule  {
0 1
  N        2.6177287    -0.3290608     0.0017738
  C       -0.8748290    -0.5238240     0.0003100
  C        0.1478200     0.6200950     0.0003100
  C       -2.3044840     0.0081730    -0.0002990
  C        1.5293590     0.1288950    -0.0005060
  H       -0.7052620    -1.1537770     0.8794380
  H       -0.7047750    -1.1544660    -0.8781930
  H        0.0039960     1.2557980     0.8812230
  H        0.0030960     1.2567630    -0.8797780
  H       -2.4949090     0.6237750     0.8839850
  H       -2.4950800     0.6211070    -0.8863780
  H       -3.0255150    -0.8133870     0.0010390
units angstrom
no_reorient  #important for SAPT in psi4, default
symmetry c1  #important for SAPT in psi4, default
}

set PROPERTIES_ORIGIN ["COM"]
properties('MP2/aug-cc-pvtz', properties = ['dipole'])
--------------------------------------------------------------------------

    Molecular point group: c1
  Charge       = 0
  Multiplicity = 1
  Basis Set: AUG-CC-PVTZ
    Blend: AUG-CC-PVTZ
  Basis Set: (AUG-CC-PVTZ AUX)
    Blend: AUG-CC-PVTZ-JKFIT

    Orbital Energies [Eh]
    ---------------------

    Doubly Occupied:

       1A    -15.575129     2A    -11.284842     3A    -11.281097
       4A    -11.253820     5A    -11.236721     6A     -1.205758
       7A     -1.101833     8A     -0.987392     9A     -0.846716
      10A     -0.706058    11A     -0.672351    12A     -0.604588
      13A     -0.584153    14A     -0.563842    15A     -0.530361
      16A     -0.518707    17A     -0.506490    18A     -0.449416
      19A     -0.446600

  @DF-RHF Final Energy:  -210.06616667974191

   => Energetics <=

    Nuclear Repulsion Energy =            153.6521220064045963
    One-Electron Energy =                -586.7248273850798341
    Two-Electron Energy =                 223.0065386989332978
    Total Energy =                       -210.0661666797419116
  Basis Set: (AUG-CC-PVTZ AUX)
    Blend: AUG-CC-PVTZ-RI
    Molecular point group: c1

    Geometry (in Angstrom), charge = 0, multiplicity = 1:

       Center              X                  Y                   Z               Mass
    ------------   -----------------  -----------------  -----------------  -----------------
         N            2.485397731913    -0.312161830655     0.001426770558    14.003074004430
         C           -1.007159968087    -0.506925030655    -0.000037029442    12.000000000000
         C            0.015489031913     0.636993969345    -0.000037029442    12.000000000000
         C           -2.436814968087     0.025071969345    -0.000646029442    12.000000000000
         C            1.397028031913     0.145793969345    -0.000853029442    12.000000000000
         H           -0.837592968087    -1.136878030655     0.879090970558     1.007825032230
         H           -0.837105968087    -1.137567030655    -0.878540029442     1.007825032230
         H           -0.128334968087     1.272696969345     0.880875970558     1.007825032230
         H           -0.129234968087     1.273661969345    -0.880125029442     1.007825032230
         H           -2.627239968087     0.640673969345     0.883637970558     1.007825032230
         H           -2.627410968087     0.638005969345    -0.886725029442     1.007825032230
         H           -3.157845968087    -0.796488030655     0.000691970558     1.007825032230

  Basis Set: AUG-CC-PVTZ
    Blend: AUG-CC-PVTZ
  Basis Set: (AUG-CC-PVTZ AUX)
    Blend: AUG-CC-PVTZ-JKFIT
	 Reference Energy          =    -210.0661666797419116 [Eh]
	 Singles Energy            =      -0.0000000000000000 [Eh]
	 Same-Spin Energy          =      -0.2182954222498641 [Eh]
	 Opposite-Spin Energy      =      -0.7532730781774399 [Eh]
	 Correlation Energy        =      -0.9715685004273040 [Eh]
	 Total Energy              =    -211.0377351801692214 [Eh]

	 ================> DF-SCS-MP2 Energies <==================
	-----------------------------------------------------------
	 SCS Same-Spin Scale       =       0.3333333333333333 [-]
	 SCS Opposite-Spin Scale   =       1.2000000000000000 [-]
	 SCS Same-Spin Energy      =      -0.0727651407499547 [Eh]
	 SCS Opposite-Spin Energy  =      -0.9039276938129279 [Eh]
	 SCS Correlation Energy    =      -0.9766928345628826 [Eh]
	 SCS Total Energy          =    -211.0428595143047801 [Eh]
	-----------------------------------------------------------

  Dipole Moment: [D]
     X:    -4.0049      Y:     1.1463      Z:    -0.0022     Total:     4.1657

*** Psi4 exiting successfully. Buy a developer a beer!
