                               Psi4 1.3.2 release

  ==> Input File <==

--------------------------------------------------------------------------
#psi4
#
memory 32 gb

molecule  {
0 1
  C        2.5428260    -0.3261640     0.0004000
  H        2.5841121    -1.0584060     0.8128580
  H        2.5787950    -0.9712350    -0.8831070
  H        3.4433220     0.2951360    -0.0003880
  C        1.2758620     0.5250290    -0.0000810
  H        1.2742200     1.1832430    -0.8780540
  H        1.2734520     1.1829250     0.8781380
  C        0.0000050    -0.3135590    -0.0008010
  H       -0.0000170    -0.9720800    -0.8802820
  H        0.0000540    -0.9738100     0.8773920
  C       -1.2758600     0.5250110     0.0000320
  H       -1.2742070     1.1833710    -0.8778340
  H       -1.2734650     1.1827700     0.8783550
  C       -2.5428310    -0.3261580     0.0003500
  H       -2.5791270    -0.9698370     0.8848460
  H       -3.4433120     0.2951650    -0.0002120
  H       -2.5788740    -0.9709940    -0.8833260
units angstrom
no_reorient  #important for SAPT in psi4, default
symmetry c1  #important for SAPT in psi4, default
}

set PROPERTIES_ORIGIN ["COM"]
properties('MP2/aug-cc-pvtz', properties = ['dipole'])
--------------------------------------------------------------------------

    Molecular point group: c1
  Charge       = 0
  Multiplicity = 1
  Basis Set: AUG-CC-PVTZ
    Blend: AUG-CC-PVTZ
  Basis Set: (AUG-CC-PVTZ AUX)
    Blend: AUG-CC-PVTZ-JKFIT

    Orbital Energies [Eh]
    ---------------------

    Doubly Occupied:

       1A    -11.215571     2A    -11.214865     3A    -11.212612
       4A    -11.209452     5A    -11.209228     6A     -1.078856
       7A     -1.013377     8A     -0.917693     9A     -0.819470
      10A     -0.783920    11A     -0.644296    12A     -0.598167
      13A     -0.588208    14A     -0.555705    15A     -0.547284
      16A     -0.520506    17A     -0.497415    18A     -0.472383
      19A     -0.462162    20A     -0.457635    21A     -0.446728

  @DF-RHF Final Energy:  -196.40265151801594

   => Energetics <=

    Nuclear Repulsion Energy =            184.9855874863003180
    One-Electron Energy =                -629.8454125116290925
    Two-Electron Energy =                 248.4571735073128025
    Total Energy =                       -196.4026515180159436
  Basis Set: (AUG-CC-PVTZ AUX)
    Blend: AUG-CC-PVTZ-RI
    Molecular point group: c1

    Geometry (in Angstrom), charge = 0, multiplicity = 1:

       Center              X                  Y                   Z               Mass
    ------------   -----------------  -----------------  -----------------  -----------------
         C            2.542756426040    -0.331871970706     0.001417761301    12.000000000000
         H            2.584042526040    -1.064113970706     0.813875761301     1.007825032230
         H            2.578725426040    -0.976942970706    -0.882089238699     1.007825032230
         H            3.443252426040     0.289428029294     0.000629761301     1.007825032230
         C            1.275792426040     0.519321029294     0.000936761301    12.000000000000
         H            1.274150426040     1.177535029294    -0.877036238699     1.007825032230
         H            1.273382426040     1.177217029294     0.879155761301     1.007825032230
         C           -0.000064573960    -0.319266970706     0.000216761301    12.000000000000
         H           -0.000086573960    -0.977787970706    -0.879264238699     1.007825032230
         H           -0.000015573960    -0.979517970706     0.878409761301     1.007825032230
         C           -1.275929573960     0.519303029294     0.001049761301    12.000000000000
         H           -1.274276573960     1.177663029294    -0.876816238699     1.007825032230
         H           -1.273534573960     1.177062029294     0.879372761301     1.007825032230
         C           -2.542900573960    -0.331865970706     0.001367761301    12.000000000000
         H           -2.579196573960    -0.975544970706     0.885863761301     1.007825032230
         H           -3.443381573960     0.289457029294     0.000805761301     1.007825032230
         H           -2.578943573960    -0.976701970706    -0.882308238699     1.007825032230

  Basis Set: AUG-CC-PVTZ
    Blend: AUG-CC-PVTZ
  Basis Set: (AUG-CC-PVTZ AUX)
    Blend: AUG-CC-PVTZ-JKFIT
	 Reference Energy          =    -196.4026515180159436 [Eh]
	 Singles Energy            =      -0.0000000000000000 [Eh]
	 Same-Spin Energy          =      -0.2077610427945058 [Eh]
	 Opposite-Spin Energy      =      -0.7933576712253012 [Eh]
	 Correlation Energy        =      -1.0011187140198070 [Eh]
	 Total Energy              =    -197.4037702320357539 [Eh]

	 ================> DF-SCS-MP2 Energies <==================
	-----------------------------------------------------------
	 SCS Same-Spin Scale       =       0.3333333333333333 [-]
	 SCS Opposite-Spin Scale   =       1.2000000000000000 [-]
	 SCS Same-Spin Energy      =      -0.0692536809315019 [Eh]
	 SCS Opposite-Spin Energy  =      -0.9520292054703614 [Eh]
	 SCS Correlation Energy    =      -1.0212828864018633 [Eh]
	 SCS Total Energy          =    -197.4239344044178210 [Eh]
	-----------------------------------------------------------

  Dipole Moment: [D]
     X:    -0.0117      Y:     0.0635      Z:    -0.0153     Total:     0.0664

*** Psi4 exiting successfully. Buy a developer a beer!
