                               Psi4 1.4a3.dev225

  ==> Input File <==

--------------------------------------------------------------------------
#psi4
#
memory 32 gb

molecule  {
0 1
  C        2.5434150    -0.3258570     0.0000020
  H        2.5799190    -0.9700390     0.8840510
  H        2.5798870    -0.9701100    -0.8839970
  H        3.4436120     0.2958290    -0.0000390
  C        1.2759530     0.5247200    -0.0000120
  H        1.2739300     1.1828070    -0.8780290
  H        1.2739250     1.1828280     0.8779900
  C       -0.0417854    -0.3412157    -0.0000048
  H       -0.0000060    -0.9732170    -0.8787350
  H        0.0000060    -0.9732200     0.8787230
  C       -1.2759530     0.5247200     0.0000030
  H       -1.2739340     1.1828180    -0.8780070
  H       -1.2739210     1.1828170     0.8780130
  C       -2.5434150    -0.3258570     0.0000110
  H       -2.5799100    -0.9700590     0.8840460
  H       -3.4436120     0.2958290    -0.0000090
  H       -2.5798950    -0.9700920    -0.8840020
units angstrom
no_reorient  #important for SAPT in psi4, default
symmetry c1  #important for SAPT in psi4, default
}

set PROPERTIES_ORIGIN ["COM"]
properties('MP2/aug-cc-pvtz', properties = ['dipole'])
--------------------------------------------------------------------------

    Molecular point group: c1
  Charge       = 0
  Multiplicity = 1
  Basis Set: AUG-CC-PVTZ
    Blend: AUG-CC-PVTZ
  Basis Set: (AUG-CC-PVTZ AUX)
    Blend: AUG-CC-PVTZ-JKFIT

    Orbital Energies [Eh]
    ---------------------

    Doubly Occupied:

       1A    -11.216101     2A    -11.213991     3A    -11.211272
       4A    -11.208996     5A    -11.208529     6A     -1.076848
       7A     -1.012205     8A     -0.916619     9A     -0.816220
      10A     -0.786011    11A     -0.646258    12A     -0.595588
      13A     -0.590987    14A     -0.550327    15A     -0.545887
      16A     -0.527491    17A     -0.493455    18A     -0.474672
      19A     -0.465727    20A     -0.463494    21A     -0.435683

  @DF-RHF Final Energy:  -196.40186213305148

   => Energetics <=

    Nuclear Repulsion Energy =            184.8122925358817952
    One-Electron Energy =                -629.5155883718116456
    Two-Electron Energy =                 248.3014337028783700
    Total Energy =                       -196.4018621330514804
  Basis Set: (AUG-CC-PVTZ AUX)
    Blend: AUG-CC-PVTZ-RI
    Molecular point group: c1

    Geometry (in Angstrom), charge = 0, multiplicity = 1:

       Center              X                  Y                   Z               Mass
    ------------   -----------------  -----------------  -----------------  -----------------
         C            2.550370148625    -0.328220199625     0.000002063263    12.000000000000
         H            2.586874148625    -0.972402199625     0.884051063263     1.007825032230
         H            2.586842148625    -0.972473199625    -0.883996936737     1.007825032230
         H            3.450567148625     0.293465800375    -0.000038936737     1.007825032230
         C            1.282908148625     0.522356800375    -0.000011936737    12.000000000000
         H            1.280885148625     1.180443800375    -0.878028936737     1.007825032230
         H            1.280880148625     1.180464800375     0.877990063263     1.007825032230
         C           -0.034830251375    -0.343578899625    -0.000004736737    12.000000000000
         H            0.006949148625    -0.975580199625    -0.878734936737     1.007825032230
         H            0.006961148625    -0.975583199625     0.878723063263     1.007825032230
         C           -1.268997851375     0.522356800375     0.000003063263    12.000000000000
         H           -1.266978851375     1.180454800375    -0.878006936737     1.007825032230
         H           -1.266965851375     1.180453800375     0.878013063263     1.007825032230
         C           -2.536459851375    -0.328220199625     0.000011063263    12.000000000000
         H           -2.572954851375    -0.972422199625     0.884046063263     1.007825032230
         H           -3.436656851375     0.293465800375    -0.000008936737     1.007825032230
         H           -2.572939851375    -0.972455199625    -0.884001936737     1.007825032230

  Basis Set: AUG-CC-PVTZ
    Blend: AUG-CC-PVTZ
  Basis Set: (AUG-CC-PVTZ AUX)
    Blend: AUG-CC-PVTZ-JKFIT
	 Reference Energy          =    -196.4018621330514804 [Eh]
	 Singles Energy            =      -0.0000000000000000 [Eh]
	 Same-Spin Energy          =      -0.2076318129656403 [Eh]
	 Opposite-Spin Energy      =      -0.7933528996570366 [Eh]
	 Correlation Energy        =      -1.0009847126226770 [Eh]
	 Total Energy              =    -197.4028468456741621 [Eh]

	 ================> DF-SCS-MP2 Energies <==================
	-----------------------------------------------------------
	 SCS Same-Spin Scale       =       0.3333333333333333 [-]
	 SCS Opposite-Spin Scale   =       1.2000000000000000 [-]
	 SCS Same-Spin Energy      =      -0.0692106043218801 [Eh]
	 SCS Opposite-Spin Energy  =      -0.9520234795884439 [Eh]
	 SCS Correlation Energy    =      -1.0212340839103240 [Eh]
	 SCS Total Energy          =    -197.4230962169617953 [Eh]
	-----------------------------------------------------------

  Dipole Moment: [D]
     X:    -0.0017      Y:     0.0812      Z:    -0.0000     Total:     0.0812

*** Psi4 exiting successfully. Buy a developer a beer!
