                               Psi4 1.4a3.dev225

  ==> Input File <==

--------------------------------------------------------------------------
#psi4
#
memory 32 gb

molecule  {
0 1
  C        2.5434150    -0.3258570     0.0000020
  H        2.5799190    -0.9700390     0.8840510
  H        2.5798870    -0.9701100    -0.8839970
  H        3.4436120     0.2958290    -0.0000390
  C        1.3174706     0.4968581    -0.0000115
  H        1.2739300     1.1828070    -0.8780290
  H        1.2739250     1.1828280     0.8779900
  C        0.0000000    -0.3137570    -0.0000050
  H       -0.0000060    -0.9732170    -0.8787350
  H        0.0000060    -0.9732200     0.8787230
  C       -1.2759530     0.5247200     0.0000030
  H       -1.2739340     1.1828180    -0.8780070
  H       -1.2739210     1.1828170     0.8780130
  C       -2.5434150    -0.3258570     0.0000110
  H       -2.5799100    -0.9700590     0.8840460
  H       -3.4436120     0.2958290    -0.0000090
  H       -2.5798950    -0.9700920    -0.8840020
units angstrom
no_reorient  #important for SAPT in psi4, default
symmetry c1  #important for SAPT in psi4, default
}

set PROPERTIES_ORIGIN ["COM"]
properties('MP2/aug-cc-pvtz', properties = ['dipole'])
--------------------------------------------------------------------------

    Molecular point group: c1
  Charge       = 0
  Multiplicity = 1
  Basis Set: AUG-CC-PVTZ
    Blend: AUG-CC-PVTZ
  Basis Set: (AUG-CC-PVTZ AUX)
    Blend: AUG-CC-PVTZ-JKFIT

    Orbital Energies [Eh]
    ---------------------

    Doubly Occupied:

       1A    -11.216498     2A    -11.215571     3A    -11.213349
       4A    -11.209903     5A    -11.207958     6A     -1.079056
       7A     -1.019410     8A     -0.919007     9A     -0.816674
      10A     -0.780546    11A     -0.643713    12A     -0.598422
      13A     -0.592692    14A     -0.557144    15A     -0.548782
      16A     -0.525240    17A     -0.497314    18A     -0.471541
      19A     -0.460996    20A     -0.453525    21A     -0.444954

  @DF-RHF Final Energy:  -196.40097360486018

   => Energetics <=

    Nuclear Repulsion Energy =            185.0429003460285742
    One-Electron Energy =                -629.9431544462805732
    Two-Electron Energy =                 248.4992804953918437
    Total Energy =                       -196.4009736048601837
  Basis Set: (AUG-CC-PVTZ AUX)
    Blend: AUG-CC-PVTZ-RI
    Molecular point group: c1

    Geometry (in Angstrom), charge = 0, multiplicity = 1:

       Center              X                  Y                   Z               Mass
    ------------   -----------------  -----------------  -----------------  -----------------
         C            2.536504398616    -0.328153087151     0.000002013328    12.000000000000
         H            2.573008398616    -0.972335087151     0.884051013328     1.007825032230
         H            2.572976398616    -0.972406087151    -0.883996986672     1.007825032230
         H            3.436701398616     0.293532912849    -0.000038986672     1.007825032230
         C            1.310559998616     0.494562012849    -0.000011486672    12.000000000000
         H            1.267019398616     1.180510912849    -0.878028986672     1.007825032230
         H            1.267014398616     1.180531912849     0.877990013328     1.007825032230
         C           -0.006910601384    -0.316053087151    -0.000004986672    12.000000000000
         H           -0.006916601384    -0.975513087151    -0.878734986672     1.007825032230
         H           -0.006904601384    -0.975516087151     0.878723013328     1.007825032230
         C           -1.282863601384     0.522423912849     0.000003013328    12.000000000000
         H           -1.280844601384     1.180521912849    -0.878006986672     1.007825032230
         H           -1.280831601384     1.180520912849     0.878013013328     1.007825032230
         C           -2.550325601384    -0.328153087151     0.000011013328    12.000000000000
         H           -2.586820601384    -0.972355087151     0.884046013328     1.007825032230
         H           -3.450522601384     0.293532912849    -0.000008986672     1.007825032230
         H           -2.586805601384    -0.972388087151    -0.884001986672     1.007825032230

  Basis Set: AUG-CC-PVTZ
    Blend: AUG-CC-PVTZ
  Basis Set: (AUG-CC-PVTZ AUX)
    Blend: AUG-CC-PVTZ-JKFIT
	 Reference Energy          =    -196.4009736048601837 [Eh]
	 Singles Energy            =      -0.0000000000000000 [Eh]
	 Same-Spin Energy          =      -0.2079691574808247 [Eh]
	 Opposite-Spin Energy      =      -0.7936298023851165 [Eh]
	 Correlation Energy        =      -1.0015989598659412 [Eh]
	 Total Energy              =    -197.4025725647261140 [Eh]

	 ================> DF-SCS-MP2 Energies <==================
	-----------------------------------------------------------
	 SCS Same-Spin Scale       =       0.3333333333333333 [-]
	 SCS Opposite-Spin Scale   =       1.2000000000000000 [-]
	 SCS Same-Spin Energy      =      -0.0693230524936082 [Eh]
	 SCS Opposite-Spin Energy  =      -0.9523557628621397 [Eh]
	 SCS Correlation Energy    =      -1.0216788153557479 [Eh]
	 SCS Total Energy          =    -197.4226524202159396 [Eh]
	-----------------------------------------------------------

  Dipole Moment: [D]
     X:     0.0129      Y:     0.0704      Z:    -0.0000     Total:     0.0715

*** Psi4 exiting successfully. Buy a developer a beer!
