                               Psi4 1.3.2 release

  ==> Input File <==

--------------------------------------------------------------------------
#psi4
#
memory 32 gb

molecule  {
0 1
  C        2.5428260    -0.3261640     0.0004000
  H        2.5791480    -0.9696020     0.8850690
  H        2.5787950    -0.9712350    -0.8831070
  H        3.4433220     0.2951360    -0.0003880
  C        1.2758620     0.5250290    -0.0000810
  H        1.2744327     1.1203957    -0.9218301
  H        1.2734520     1.1829250     0.8781380
  C        0.0000050    -0.3135590    -0.0008010
  H       -0.0000170    -0.9720800    -0.8802820
  H        0.0000540    -0.9738100     0.8773920
  C       -1.2758600     0.5250110     0.0000320
  H       -1.2742070     1.1833710    -0.8778340
  H       -1.2734650     1.1827700     0.8783550
  C       -2.5428310    -0.3261580     0.0003500
  H       -2.5791270    -0.9698370     0.8848460
  H       -3.4433120     0.2951650    -0.0002120
  H       -2.5788740    -0.9709940    -0.8833260
units angstrom
no_reorient  #important for SAPT in psi4, default
symmetry c1  #important for SAPT in psi4, default
}

set PROPERTIES_ORIGIN ["COM"]
properties('MP2/aug-cc-pvtz', properties = ['dipole'])
--------------------------------------------------------------------------

    Molecular point group: c1
  Charge       = 0
  Multiplicity = 1
  Basis Set: AUG-CC-PVTZ
    Blend: AUG-CC-PVTZ
  Basis Set: (AUG-CC-PVTZ AUX)
    Blend: AUG-CC-PVTZ-JKFIT

    Orbital Energies [Eh]
    ---------------------

    Doubly Occupied:

       1A    -11.214975     2A    -11.214753     3A    -11.212093
       4A    -11.209373     5A    -11.209009     6A     -1.079186
       7A     -1.013815     8A     -0.917506     9A     -0.817873
      10A     -0.781633    11A     -0.647585    12A     -0.595624
      13A     -0.593342    14A     -0.552703    15A     -0.545963
      16A     -0.524954    17A     -0.491799    18A     -0.477344
      19A     -0.460279    20A     -0.457351    21A     -0.446533

  @DF-RHF Final Energy:  -196.40324275236489

   => Energetics <=

    Nuclear Repulsion Energy =            185.0576796481852284
    One-Electron Energy =                -629.9944602385875214
    Two-Electron Energy =                 248.5335378380374038
    Total Energy =                       -196.4032427523648892
  Basis Set: (AUG-CC-PVTZ AUX)
    Blend: AUG-CC-PVTZ-RI
    Molecular point group: c1

    Geometry (in Angstrom), charge = 0, multiplicity = 1:

       Center              X                  Y                   Z               Mass
    ------------   -----------------  -----------------  -----------------  -----------------
         C            2.542822847468    -0.332234828199     0.001020260211    12.000000000000
         H            2.579144847468    -0.975672828199     0.885689260211     1.007825032230
         H            2.578791847468    -0.977305828199    -0.882486739789     1.007825032230
         H            3.443318847468     0.289065171801     0.000232260211     1.007825032230
         C            1.275858847468     0.518958171801     0.000539260211    12.000000000000
         H            1.274429547468     1.114324871801    -0.921209839789     1.007825032230
         H            1.273448847468     1.176854171801     0.878758260211     1.007825032230
         C            0.000001847468    -0.319629828199    -0.000180739789    12.000000000000
         H           -0.000020152532    -0.978150828199    -0.879661739789     1.007825032230
         H            0.000050847468    -0.979880828199     0.878012260211     1.007825032230
         C           -1.275863152532     0.518940171801     0.000652260211    12.000000000000
         H           -1.274210152532     1.177300171801    -0.877213739789     1.007825032230
         H           -1.273468152532     1.176699171801     0.878975260211     1.007825032230
         C           -2.542834152532    -0.332228828199     0.000970260211    12.000000000000
         H           -2.579130152532    -0.975907828199     0.885466260211     1.007825032230
         H           -3.443315152532     0.289094171801     0.000408260211     1.007825032230
         H           -2.578877152532    -0.977064828199    -0.882705739789     1.007825032230

  Basis Set: AUG-CC-PVTZ
    Blend: AUG-CC-PVTZ
  Basis Set: (AUG-CC-PVTZ AUX)
    Blend: AUG-CC-PVTZ-JKFIT
	 Reference Energy          =    -196.4032427523648892 [Eh]
	 Singles Energy            =      -0.0000000000000000 [Eh]
	 Same-Spin Energy          =      -0.2077563747173277 [Eh]
	 Opposite-Spin Energy      =      -0.7934400006243674 [Eh]
	 Correlation Energy        =      -1.0011963753416950 [Eh]
	 Total Energy              =    -197.4044391277065813 [Eh]

	 ================> DF-SCS-MP2 Energies <==================
	-----------------------------------------------------------
	 SCS Same-Spin Scale       =       0.3333333333333333 [-]
	 SCS Opposite-Spin Scale   =       1.2000000000000000 [-]
	 SCS Same-Spin Energy      =      -0.0692521249057759 [Eh]
	 SCS Opposite-Spin Energy  =      -0.9521280007492408 [Eh]
	 SCS Correlation Energy    =      -1.0213801256550166 [Eh]
	 SCS Total Energy          =    -197.4246228780199033 [Eh]
	-----------------------------------------------------------

  Dipole Moment: [D]
     X:     0.0000      Y:     0.0764      Z:    -0.0080     Total:     0.0768

*** Psi4 exiting successfully. Buy a developer a beer!
