                               Psi4 1.3.2 release

  ==> Input File <==

--------------------------------------------------------------------------
#psi4
#
memory 32 gb

molecule  {
0 1
  C        2.5428260    -0.3261640     0.0004000
  H        2.5857851    -1.0871766     1.0467234
  H        2.5787950    -0.9712350    -0.8831070
  H        3.4433220     0.2951360    -0.0003880
  C        1.2758620     0.5250290    -0.0000810
  H        1.2742200     1.1832430    -0.8780540
  H        1.2734520     1.1829250     0.8781380
  C        0.0000050    -0.3135590    -0.0008010
  H       -0.0000170    -0.9720800    -0.8802820
  H        0.0000540    -0.9738100     0.8773920
  C       -1.2758600     0.5250110     0.0000320
  H       -1.2742070     1.1833710    -0.8778340
  H       -1.2734650     1.1827700     0.8783550
  C       -2.5428310    -0.3261580     0.0003500
  H       -2.5791270    -0.9698370     0.8848460
  H       -3.4433120     0.2951650    -0.0002120
  H       -2.5788740    -0.9709940    -0.8833260
units angstrom
no_reorient  #important for SAPT in psi4, default
symmetry c1  #important for SAPT in psi4, default
}

set PROPERTIES_ORIGIN ["COM"]
properties('MP2/aug-cc-pvtz', properties = ['dipole'])
--------------------------------------------------------------------------

    Molecular point group: c1
  Charge       = 0
  Multiplicity = 1
  Basis Set: AUG-CC-PVTZ
    Blend: AUG-CC-PVTZ
  Basis Set: (AUG-CC-PVTZ AUX)
    Blend: AUG-CC-PVTZ-JKFIT

    Orbital Energies [Eh]
    ---------------------

    Doubly Occupied:

       1A    -11.233401     2A    -11.217885     3A    -11.215321
       4A    -11.213063     5A    -11.209755     6A     -1.079019
       7A     -1.011537     8A     -0.912897     9A     -0.813982
      10A     -0.782032    11A     -0.644416    12A     -0.598122
      13A     -0.586179    14A     -0.552812    15A     -0.546388
      16A     -0.515629    17A     -0.491208    18A     -0.467513
      19A     -0.461033    20A     -0.453382    21A     -0.447948

  @DF-RHF Final Energy:  -196.38432183502772

   => Energetics <=

    Nuclear Repulsion Energy =            184.3334821896872029
    One-Electron Energy =                -628.5285617118545360
    Two-Electron Energy =                 247.8107576871396418
    Total Energy =                       -196.3843218350277198
  Basis Set: (AUG-CC-PVTZ AUX)
    Blend: AUG-CC-PVTZ-RI
    Molecular point group: c1

    Geometry (in Angstrom), charge = 0, multiplicity = 1:

       Center              X                  Y                   Z               Mass
    ------------   -----------------  -----------------  -----------------  -----------------
         C            2.542733038606    -0.331469776751    -0.001851522273    12.000000000000
         H            2.585692138606    -1.092482376751     1.044471877727     1.007825032230
         H            2.578702038606    -0.976540776751    -0.885358522273     1.007825032230
         H            3.443229038606     0.289830223249    -0.002639522273     1.007825032230
         C            1.275769038606     0.519723223249    -0.002332522273    12.000000000000
         H            1.274127038606     1.177937223249    -0.880305522273     1.007825032230
         H            1.273359038606     1.177619223249     0.875886477727     1.007825032230
         C           -0.000087961394    -0.318864776751    -0.003052522273    12.000000000000
         H           -0.000109961394    -0.977385776751    -0.882533522273     1.007825032230
         H           -0.000038961394    -0.979115776751     0.875140477727     1.007825032230
         C           -1.275952961394     0.519705223249    -0.002219522273    12.000000000000
         H           -1.274299961394     1.178065223249    -0.880085522273     1.007825032230
         H           -1.273557961394     1.177464223249     0.876103477727     1.007825032230
         C           -2.542923961394    -0.331463776751    -0.001901522273    12.000000000000
         H           -2.579219961394    -0.975142776751     0.882594477727     1.007825032230
         H           -3.443404961394     0.289859223249    -0.002463522273     1.007825032230
         H           -2.578966961394    -0.976299776751    -0.885577522273     1.007825032230

  Basis Set: AUG-CC-PVTZ
    Blend: AUG-CC-PVTZ
  Basis Set: (AUG-CC-PVTZ AUX)
    Blend: AUG-CC-PVTZ-JKFIT
	 Reference Energy          =    -196.3843218350277198 [Eh]
	 Singles Energy            =      -0.0000000000000000 [Eh]
	 Same-Spin Energy          =      -0.2075840927389859 [Eh]
	 Opposite-Spin Energy      =      -0.7947289628391230 [Eh]
	 Correlation Energy        =      -1.0023130555781088 [Eh]
	 Total Energy              =    -197.3866348906058192 [Eh]

	 ================> DF-SCS-MP2 Energies <==================
	-----------------------------------------------------------
	 SCS Same-Spin Scale       =       0.3333333333333333 [-]
	 SCS Opposite-Spin Scale   =       1.2000000000000000 [-]
	 SCS Same-Spin Energy      =      -0.0691946975796620 [Eh]
	 SCS Opposite-Spin Energy  =      -0.9536747554069476 [Eh]
	 SCS Correlation Energy    =      -1.0228694529866096 [Eh]
	 SCS Total Energy          =    -197.4071912880143316 [Eh]
	-----------------------------------------------------------

  Dipole Moment: [D]
     X:    -0.0490      Y:     0.1993      Z:    -0.1248     Total:     0.2402

*** Psi4 exiting successfully. Buy a developer a beer!
