                               Psi4 1.3.2 release

  ==> Input File <==

--------------------------------------------------------------------------
#psi4
#
memory 32 gb

molecule  {
0 1
  C        2.5428260    -0.3261640     0.0004000
  H        2.5791480    -0.9696020     0.8850690
  H        2.5787950    -0.9712350    -0.8831070
  H        3.4433220     0.2951360    -0.0003880
  C        1.1928556     0.5807958    -0.0001125
  H        1.2742200     1.1832430    -0.8780540
  H        1.2734520     1.1829250     0.8781380
  C        0.0000050    -0.3135590    -0.0008010
  H       -0.0000170    -0.9720800    -0.8802820
  H        0.0000540    -0.9738100     0.8773920
  C       -1.2758600     0.5250110     0.0000320
  H       -1.2742070     1.1833710    -0.8778340
  H       -1.2734650     1.1827700     0.8783550
  C       -2.5428310    -0.3261580     0.0003500
  H       -2.5791270    -0.9698370     0.8848460
  H       -3.4433120     0.2951650    -0.0002120
  H       -2.5788740    -0.9709940    -0.8833260
units angstrom
no_reorient  #important for SAPT in psi4, default
symmetry c1  #important for SAPT in psi4, default
}

set PROPERTIES_ORIGIN ["COM"]
properties('MP2/aug-cc-pvtz', properties = ['dipole'])
--------------------------------------------------------------------------

    Molecular point group: c1
  Charge       = 0
  Multiplicity = 1
  Basis Set: AUG-CC-PVTZ
    Blend: AUG-CC-PVTZ
  Basis Set: (AUG-CC-PVTZ AUX)
    Blend: AUG-CC-PVTZ-JKFIT

    Orbital Energies [Eh]
    ---------------------

    Doubly Occupied:

       1A    -11.213553     2A    -11.213445     3A    -11.211450
       4A    -11.211282     5A    -11.208456     6A     -1.080920
       7A     -1.004531     8A     -0.914053     9A     -0.821636
      10A     -0.787499    11A     -0.649551    12A     -0.594873
      13A     -0.590561    14A     -0.552752    15A     -0.539754
      16A     -0.524359    17A     -0.487687    18A     -0.484802
      19A     -0.471740    20A     -0.462688    21A     -0.427786

  @DF-RHF Final Energy:  -196.39573372778960

   => Energetics <=

    Nuclear Repulsion Energy =            184.9917108531168140
    One-Electron Energy =                -629.8681307522595034
    Two-Electron Energy =                 248.4806861713530566
    Total Energy =                       -196.3957337277896045
  Basis Set: (AUG-CC-PVTZ AUX)
    Blend: AUG-CC-PVTZ-RI
    Molecular point group: c1

    Geometry (in Angstrom), charge = 0, multiplicity = 1:

       Center              X                  Y                   Z               Mass
    ------------   -----------------  -----------------  -----------------  -----------------
         C            2.556642201936    -0.342395752747     0.000413542456    12.000000000000
         H            2.592964201936    -0.985833752747     0.885082542456     1.007825032230
         H            2.592611201936    -0.987466752747    -0.883093457544     1.007825032230
         H            3.457138201936     0.278904247253    -0.000374457544     1.007825032230
         C            1.206671801936     0.564564047253    -0.000098957544    12.000000000000
         H            1.288036201936     1.167011247253    -0.878040457544     1.007825032230
         H            1.287268201936     1.166693247253     0.878151542456     1.007825032230
         C            0.013821201936    -0.329790752747    -0.000787457544    12.000000000000
         H            0.013799201936    -0.988311752747    -0.880268457544     1.007825032230
         H            0.013870201936    -0.990041752747     0.877405542456     1.007825032230
         C           -1.262043798064     0.508779247253     0.000045542456    12.000000000000
         H           -1.260390798064     1.167139247253    -0.877820457544     1.007825032230
         H           -1.259648798064     1.166538247253     0.878368542456     1.007825032230
         C           -2.529014798064    -0.342389752747     0.000363542456    12.000000000000
         H           -2.565310798064    -0.986068752747     0.884859542456     1.007825032230
         H           -3.429495798064     0.278933247253    -0.000198457544     1.007825032230
         H           -2.565057798064    -0.987225752747    -0.883312457544     1.007825032230

  Basis Set: AUG-CC-PVTZ
    Blend: AUG-CC-PVTZ
  Basis Set: (AUG-CC-PVTZ AUX)
    Blend: AUG-CC-PVTZ-JKFIT
	 Reference Energy          =    -196.3957337277896045 [Eh]
	 Singles Energy            =      -0.0000000000000000 [Eh]
	 Same-Spin Energy          =      -0.2077755804363418 [Eh]
	 Opposite-Spin Energy      =      -0.7937609123600717 [Eh]
	 Correlation Energy        =      -1.0015364927964134 [Eh]
	 Total Energy              =    -197.3972702205860230 [Eh]

	 ================> DF-SCS-MP2 Energies <==================
	-----------------------------------------------------------
	 SCS Same-Spin Scale       =       0.3333333333333333 [-]
	 SCS Opposite-Spin Scale   =       1.2000000000000000 [-]
	 SCS Same-Spin Energy      =      -0.0692585268121139 [Eh]
	 SCS Opposite-Spin Energy  =      -0.9525130948320860 [Eh]
	 SCS Correlation Energy    =      -1.0217716216441999 [Eh]
	 SCS Total Energy          =    -197.4175053494338101 [Eh]
	-----------------------------------------------------------

  Dipole Moment: [D]
     X:    -0.0319      Y:     0.1127      Z:    -0.0001     Total:     0.1172

*** Psi4 exiting successfully. Buy a developer a beer!
