                               Psi4 1.4a3.dev225

  ==> Input File <==

--------------------------------------------------------------------------
#psi4
#
memory 32 gb

molecule  {
0 1
  C        2.5434150    -0.3258570     0.0000020
  H        2.5799190    -0.9700390     0.8840510
  H        2.5798870    -0.9701100    -0.8839970
  H        3.4436120     0.2958290    -0.0000390
  C        1.2759530     0.5247200    -0.0000120
  H        1.2739300     1.1828070    -0.8780290
  H        1.2739250     1.1828280     0.8779900
  C        0.0000000    -0.3137570    -0.0000050
  H       -0.0000057    -0.9432050    -0.8387440
  H        0.0000060    -0.9732200     0.8787230
  C       -1.2759530     0.5247200     0.0000030
  H       -1.2739340     1.1828180    -0.8780070
  H       -1.2739210     1.1828170     0.8780130
  C       -2.5434150    -0.3258570     0.0000110
  H       -2.5799100    -0.9700590     0.8840460
  H       -3.4436120     0.2958290    -0.0000090
  H       -2.5798950    -0.9700920    -0.8840020
units angstrom
no_reorient  #important for SAPT in psi4, default
symmetry c1  #important for SAPT in psi4, default
}

set PROPERTIES_ORIGIN ["COM"]
properties('MP2/aug-cc-pvtz', properties = ['dipole'])
--------------------------------------------------------------------------

    Molecular point group: c1
  Charge       = 0
  Multiplicity = 1
  Basis Set: AUG-CC-PVTZ
    Blend: AUG-CC-PVTZ
  Basis Set: (AUG-CC-PVTZ AUX)
    Blend: AUG-CC-PVTZ-JKFIT

    Orbital Energies [Eh]
    ---------------------

    Doubly Occupied:

       1A    -11.214186     2A    -11.214173     3A    -11.209327
       4A    -11.209326     5A    -11.206059     6A     -1.080089
       7A     -1.013320     8A     -0.919243     9A     -0.818064
      10A     -0.787065    11A     -0.647355    12A     -0.596436
      13A     -0.591319    14A     -0.553654    15A     -0.546633
      16A     -0.527241    17A     -0.493370    18A     -0.474962
      19A     -0.462717    20A     -0.459156    21A     -0.446164

  @DF-RHF Final Energy:  -196.40293905743621

   => Energetics <=

    Nuclear Repulsion Energy =            185.2319350302295220
    One-Electron Energy =                -630.3300258387317854
    Two-Electron Energy =                 248.6951517510660494
    Total Energy =                       -196.4029390574362139
  Basis Set: (AUG-CC-PVTZ AUX)
    Blend: AUG-CC-PVTZ-RI
    Molecular point group: c1

    Geometry (in Angstrom), charge = 0, multiplicity = 1:

       Center              X                  Y                   Z               Mass
    ------------   -----------------  -----------------  -----------------  -----------------
         C            2.543414981827    -0.333210236825    -0.000556951170    12.000000000000
         H            2.579918981827    -0.977392236825     0.883492048830     1.007825032230
         H            2.579886981827    -0.977463236825    -0.884555951170     1.007825032230
         H            3.443611981827     0.288475763175    -0.000597951170     1.007825032230
         C            1.275952981827     0.517366763175    -0.000570951170    12.000000000000
         H            1.273929981827     1.175453763175    -0.878587951170     1.007825032230
         H            1.273924981827     1.175474763175     0.877431048830     1.007825032230
         C           -0.000000018173    -0.321110236825    -0.000563951170    12.000000000000
         H           -0.000005718173    -0.950558236825    -0.839302951170     1.007825032230
         H            0.000005981827    -0.980573236825     0.878164048830     1.007825032230
         C           -1.275953018173     0.517366763175    -0.000555951170    12.000000000000
         H           -1.273934018173     1.175464763175    -0.878565951170     1.007825032230
         H           -1.273921018173     1.175463763175     0.877454048830     1.007825032230
         C           -2.543415018173    -0.333210236825    -0.000547951170    12.000000000000
         H           -2.579910018173    -0.977412236825     0.883487048830     1.007825032230
         H           -3.443612018173     0.288475763175    -0.000567951170     1.007825032230
         H           -2.579895018173    -0.977445236825    -0.884560951170     1.007825032230

  Basis Set: AUG-CC-PVTZ
    Blend: AUG-CC-PVTZ
  Basis Set: (AUG-CC-PVTZ AUX)
    Blend: AUG-CC-PVTZ-JKFIT
	 Reference Energy          =    -196.4029390574362139 [Eh]
	 Singles Energy            =      -0.0000000000000000 [Eh]
	 Same-Spin Energy          =      -0.2077050798783510 [Eh]
	 Opposite-Spin Energy      =      -0.7930440705541543 [Eh]
	 Correlation Energy        =      -1.0007491504325052 [Eh]
	 Total Energy              =    -197.4036882078687256 [Eh]

	 ================> DF-SCS-MP2 Energies <==================
	-----------------------------------------------------------
	 SCS Same-Spin Scale       =       0.3333333333333333 [-]
	 SCS Opposite-Spin Scale   =       1.2000000000000000 [-]
	 SCS Same-Spin Energy      =      -0.0692350266261170 [Eh]
	 SCS Opposite-Spin Energy  =      -0.9516528846649851 [Eh]
	 SCS Correlation Energy    =      -1.0208879112911020 [Eh]
	 SCS Total Energy          =    -197.4238269687273259 [Eh]
	-----------------------------------------------------------

  Dipole Moment: [D]
     X:     0.0000      Y:     0.0603      Z:    -0.0249     Total:     0.0652

*** Psi4 exiting successfully. Buy a developer a beer!
