                               Psi4 1.3.2 release

  ==> Input File <==

--------------------------------------------------------------------------
#psi4
#
memory 32 gb

molecule  {
0 1
  C        2.5428260    -0.3261640     0.0004000
  H        2.5756140    -0.9064195     0.9278694
  H        2.5787950    -0.9712350    -0.8831070
  H        3.4433220     0.2951360    -0.0003880
  C        1.2758620     0.5250290    -0.0000810
  H        1.2742200     1.1832430    -0.8780540
  H        1.2734520     1.1829250     0.8781380
  C        0.0000050    -0.3135590    -0.0008010
  H       -0.0000170    -0.9720800    -0.8802820
  H        0.0000540    -0.9738100     0.8773920
  C       -1.2758600     0.5250110     0.0000320
  H       -1.2742070     1.1833710    -0.8778340
  H       -1.2734650     1.1827700     0.8783550
  C       -2.5428310    -0.3261580     0.0003500
  H       -2.5791270    -0.9698370     0.8848460
  H       -3.4433120     0.2951650    -0.0002120
  H       -2.5788740    -0.9709940    -0.8833260
units angstrom
no_reorient  #important for SAPT in psi4, default
symmetry c1  #important for SAPT in psi4, default
}

set PROPERTIES_ORIGIN ["COM"]
properties('MP2/aug-cc-pvtz', properties = ['dipole'])
--------------------------------------------------------------------------

    Molecular point group: c1
  Charge       = 0
  Multiplicity = 1
  Basis Set: AUG-CC-PVTZ
    Blend: AUG-CC-PVTZ
  Basis Set: (AUG-CC-PVTZ AUX)
    Blend: AUG-CC-PVTZ-JKFIT

    Orbital Energies [Eh]
    ---------------------

    Doubly Occupied:

       1A    -11.214736     2A    -11.214304     3A    -11.212365
       4A    -11.209510     5A    -11.209339     6A     -1.078907
       7A     -1.013775     8A     -0.917548     9A     -0.817687
      10A     -0.782578    11A     -0.646093    12A     -0.596025
      13A     -0.593778    14A     -0.551474    15A     -0.545066
      16A     -0.527604    17A     -0.491046    18A     -0.476404
      19A     -0.459849    20A     -0.458290    21A     -0.446566

  @DF-RHF Final Energy:  -196.40325986752913

   => Energetics <=

    Nuclear Repulsion Energy =            185.0427808736607460
    One-Electron Energy =                -629.9661933522872914
    Two-Electron Energy =                 248.5201526110974442
    Total Energy =                       -196.4032598675291297
  Basis Set: (AUG-CC-PVTZ AUX)
    Blend: AUG-CC-PVTZ-RI
    Molecular point group: c1

    Geometry (in Angstrom), charge = 0, multiplicity = 1:

       Center              X                  Y                   Z               Mass
    ------------   -----------------  -----------------  -----------------  -----------------
         C            2.542875223856    -0.333996641426    -0.000190021983    12.000000000000
         H            2.575663223856    -0.914252141426     0.927279378017     1.007825032230
         H            2.578844223856    -0.979067641426    -0.883697021983     1.007825032230
         H            3.443371223856     0.287303358574    -0.000978021983     1.007825032230
         C            1.275911223856     0.517196358574    -0.000671021983    12.000000000000
         H            1.274269223856     1.175410358574    -0.878644021983     1.007825032230
         H            1.273501223856     1.175092358574     0.877547978017     1.007825032230
         C            0.000054223856    -0.321391641426    -0.001391021983    12.000000000000
         H            0.000032223856    -0.979912641426    -0.880872021983     1.007825032230
         H            0.000103223856    -0.981642641426     0.876801978017     1.007825032230
         C           -1.275810776144     0.517178358574    -0.000558021983    12.000000000000
         H           -1.274157776144     1.175538358574    -0.878424021983     1.007825032230
         H           -1.273415776144     1.174937358574     0.877764978017     1.007825032230
         C           -2.542781776144    -0.333990641426    -0.000240021983    12.000000000000
         H           -2.579077776144    -0.977669641426     0.884255978017     1.007825032230
         H           -3.443262776144     0.287332358574    -0.000802021983     1.007825032230
         H           -2.578824776144    -0.978826641426    -0.883916021983     1.007825032230

  Basis Set: AUG-CC-PVTZ
    Blend: AUG-CC-PVTZ
  Basis Set: (AUG-CC-PVTZ AUX)
    Blend: AUG-CC-PVTZ-JKFIT
	 Reference Energy          =    -196.4032598675291297 [Eh]
	 Singles Energy            =      -0.0000000000000000 [Eh]
	 Same-Spin Energy          =      -0.2077505729627092 [Eh]
	 Opposite-Spin Energy      =      -0.7934063998892456 [Eh]
	 Correlation Energy        =      -1.0011569728519547 [Eh]
	 Total Energy              =    -197.4044168403810886 [Eh]

	 ================> DF-SCS-MP2 Energies <==================
	-----------------------------------------------------------
	 SCS Same-Spin Scale       =       0.3333333333333333 [-]
	 SCS Opposite-Spin Scale   =       1.2000000000000000 [-]
	 SCS Same-Spin Energy      =      -0.0692501909875697 [Eh]
	 SCS Opposite-Spin Energy  =      -0.9520876798670946 [Eh]
	 SCS Correlation Energy    =      -1.0213378708546643 [Eh]
	 SCS Total Energy          =    -197.4245977383837953 [Eh]
	-----------------------------------------------------------

  Dipole Moment: [D]
     X:     0.0074      Y:     0.1032      Z:     0.0065     Total:     0.1037

*** Psi4 exiting successfully. Buy a developer a beer!
