                               Psi4 1.3.2 release

  ==> Input File <==

--------------------------------------------------------------------------
#psi4
#
memory 32 gb

molecule  {
0 1
  C        2.5428260    -0.3261640     0.0004000
  H        2.5791480    -0.9696020     0.8850690
  H        2.5787950    -0.9712350    -0.8831070
  H        3.4433220     0.2951360    -0.0003880
  C        1.2758620     0.5250290    -0.0000810
  H        1.2742200     1.1832430    -0.8780540
  H        1.2734520     1.1829250     0.8781380
  C        0.0000050    -0.3135590    -0.0008010
  H       -0.0000190    -1.0320165    -0.9603296
  H        0.0000540    -0.9738100     0.8773920
  C       -1.2758600     0.5250110     0.0000320
  H       -1.2742070     1.1833710    -0.8778340
  H       -1.2734650     1.1827700     0.8783550
  C       -2.5428310    -0.3261580     0.0003500
  H       -2.5791270    -0.9698370     0.8848460
  H       -3.4433120     0.2951650    -0.0002120
  H       -2.5788740    -0.9709940    -0.8833260
units angstrom
no_reorient  #important for SAPT in psi4, default
symmetry c1  #important for SAPT in psi4, default
}

set PROPERTIES_ORIGIN ["COM"]
properties('MP2/aug-cc-pvtz', properties = ['dipole'])
--------------------------------------------------------------------------

    Molecular point group: c1
  Charge       = 0
  Multiplicity = 1
  Basis Set: AUG-CC-PVTZ
    Blend: AUG-CC-PVTZ
  Basis Set: (AUG-CC-PVTZ AUX)
    Blend: AUG-CC-PVTZ-JKFIT

    Orbital Energies [Eh]
    ---------------------

    Doubly Occupied:

       1A    -11.225017     2A    -11.216118     3A    -11.216085
       4A    -11.209538     5A    -11.209537     6A     -1.077339
       7A     -1.014133     8A     -0.915295     9A     -0.819091
      10A     -0.776964    11A     -0.641676    12A     -0.597349
      13A     -0.591953    14A     -0.552283    15A     -0.545417
      16A     -0.520054    17A     -0.494125    18A     -0.475735
      19A     -0.461493    20A     -0.450599    21A     -0.447968

  @DF-RHF Final Energy:  -196.39759602855833

   => Energetics <=

    Nuclear Repulsion Energy =            184.6033390604980298
    One-Electron Energy =                -629.0863353335115562
    Two-Electron Energy =                 248.0854002444552293
    Total Energy =                       -196.3975960285583255
  Basis Set: (AUG-CC-PVTZ AUX)
    Blend: AUG-CC-PVTZ-RI
    Molecular point group: c1

    Geometry (in Angstrom), charge = 0, multiplicity = 1:

       Center              X                  Y                   Z               Mass
    ------------   -----------------  -----------------  -----------------  -----------------
         C            2.542825848832    -0.332275519258     0.001527311785    12.000000000000
         H            2.579147848832    -0.975713519258     0.886196311785     1.007825032230
         H            2.578794848832    -0.977346519258    -0.881979688215     1.007825032230
         H            3.443321848832     0.289024480742     0.000739311785     1.007825032230
         C            1.275861848832     0.518917480742     0.001046311785    12.000000000000
         H            1.274219848832     1.177131480742    -0.876926688215     1.007825032230
         H            1.273451848832     1.176813480742     0.879265311785     1.007825032230
         C            0.000004848832    -0.319670519258     0.000326311785    12.000000000000
         H           -0.000019151168    -1.038128019258    -0.959202288215     1.007825032230
         H            0.000053848832    -0.979921519258     0.878519311785     1.007825032230
         C           -1.275860151168     0.518899480742     0.001159311785    12.000000000000
         H           -1.274207151168     1.177259480742    -0.876706688215     1.007825032230
         H           -1.273465151168     1.176658480742     0.879482311785     1.007825032230
         C           -2.542831151168    -0.332269519258     0.001477311785    12.000000000000
         H           -2.579127151168    -0.975948519258     0.885973311785     1.007825032230
         H           -3.443312151168     0.289053480742     0.000915311785     1.007825032230
         H           -2.578874151168    -0.977105519258    -0.882198688215     1.007825032230

  Basis Set: AUG-CC-PVTZ
    Blend: AUG-CC-PVTZ
  Basis Set: (AUG-CC-PVTZ AUX)
    Blend: AUG-CC-PVTZ-JKFIT
	 Reference Energy          =    -196.3975960285583255 [Eh]
	 Singles Energy            =      -0.0000000000000000 [Eh]
	 Same-Spin Energy          =      -0.2077408953589811 [Eh]
	 Opposite-Spin Energy      =      -0.7940374631356915 [Eh]
	 Correlation Energy        =      -1.0017783584946724 [Eh]
	 Total Energy              =    -197.3993743870530011 [Eh]

	 ================> DF-SCS-MP2 Energies <==================
	-----------------------------------------------------------
	 SCS Same-Spin Scale       =       0.3333333333333333 [-]
	 SCS Opposite-Spin Scale   =       1.2000000000000000 [-]
	 SCS Same-Spin Energy      =      -0.0692469651196604 [Eh]
	 SCS Opposite-Spin Energy  =      -0.9528449557628297 [Eh]
	 SCS Correlation Energy    =      -1.0220919208824901 [Eh]
	 SCS Total Energy          =    -197.4196879494408279 [Eh]
	-----------------------------------------------------------

  Dipole Moment: [D]
     X:    -0.0000      Y:     0.1521      Z:     0.0606     Total:     0.1638

*** Psi4 exiting successfully. Buy a developer a beer!
