                               Psi4 1.3.2 release

  ==> Input File <==

--------------------------------------------------------------------------
#psi4
#
memory 32 gb

molecule  {
0 1
  C        2.5428260    -0.3261640     0.0004000
  H        2.5958662    -0.9766287     0.8790657
  H        2.5787950    -0.9712350    -0.8831070
  H        3.4433220     0.2951360    -0.0003880
  C        1.2758620     0.5250290    -0.0000810
  H        1.2742200     1.1832430    -0.8780540
  H        1.2734520     1.1829250     0.8781380
  C        0.0000050    -0.3135590    -0.0008010
  H       -0.0000170    -0.9720800    -0.8802820
  H        0.0000540    -0.9738100     0.8773920
  C       -1.2758600     0.5250110     0.0000320
  H       -1.2742070     1.1833710    -0.8778340
  H       -1.2734650     1.1827700     0.8783550
  C       -2.5428310    -0.3261580     0.0003500
  H       -2.5791270    -0.9698370     0.8848460
  H       -3.4433120     0.2951650    -0.0002120
  H       -2.5788740    -0.9709940    -0.8833260
units angstrom
no_reorient  #important for SAPT in psi4, default
symmetry c1  #important for SAPT in psi4, default
}

set PROPERTIES_ORIGIN ["COM"]
properties('MP2/aug-cc-pvtz', properties = ['dipole'])
--------------------------------------------------------------------------

    Molecular point group: c1
  Charge       = 0
  Multiplicity = 1
  Basis Set: AUG-CC-PVTZ
    Blend: AUG-CC-PVTZ
  Basis Set: (AUG-CC-PVTZ AUX)
    Blend: AUG-CC-PVTZ-JKFIT

    Orbital Energies [Eh]
    ---------------------

    Doubly Occupied:

       1A    -11.215026     2A    -11.214777     3A    -11.212450
       4A    -11.209382     5A    -11.209336     6A     -1.078810
       7A     -1.013461     8A     -0.917604     9A     -0.818648
      10A     -0.783204    11A     -0.645128    12A     -0.596530
      13A     -0.591119    14A     -0.553265    15A     -0.545841
      16A     -0.524594    17A     -0.494123    18A     -0.475082
      19A     -0.460999    20A     -0.458292    21A     -0.446542

  @DF-RHF Final Energy:  -196.40384729505081

   => Energetics <=

    Nuclear Repulsion Energy =            184.9950010027518772
    One-Electron Energy =                -629.8692679993599768
    Two-Electron Energy =                 248.4704197015572618
    Total Energy =                       -196.4038472950508094
  Basis Set: (AUG-CC-PVTZ AUX)
    Blend: AUG-CC-PVTZ-RI
    Molecular point group: c1

    Geometry (in Angstrom), charge = 0, multiplicity = 1:

       Center              X                  Y                   Z               Mass
    ------------   -----------------  -----------------  -----------------  -----------------
         C            2.542592111498    -0.333015163258     0.000492221456    12.000000000000
         H            2.595632311498    -0.983479863258     0.879157921456     1.007825032230
         H            2.578561111498    -0.978086163258    -0.883014778544     1.007825032230
         H            3.443088111498     0.288284836742    -0.000295778544     1.007825032230
         C            1.275628111498     0.518177836742     0.000011221456    12.000000000000
         H            1.273986111498     1.176391836742    -0.877961778544     1.007825032230
         H            1.273218111498     1.176073836742     0.878230221456     1.007825032230
         C           -0.000228888502    -0.320410163258    -0.000708778544    12.000000000000
         H           -0.000250888502    -0.978931163258    -0.880189778544     1.007825032230
         H           -0.000179888502    -0.980661163258     0.877484221456     1.007825032230
         C           -1.276093888502     0.518159836742     0.000124221456    12.000000000000
         H           -1.274440888502     1.176519836742    -0.877741778544     1.007825032230
         H           -1.273698888502     1.175918836742     0.878447221456     1.007825032230
         C           -2.543064888502    -0.333009163258     0.000442221456    12.000000000000
         H           -2.579360888502    -0.976688163258     0.884938221456     1.007825032230
         H           -3.443545888502     0.288313836742    -0.000119778544     1.007825032230
         H           -2.579107888502    -0.977845163258    -0.883233778544     1.007825032230

  Basis Set: AUG-CC-PVTZ
    Blend: AUG-CC-PVTZ
  Basis Set: (AUG-CC-PVTZ AUX)
    Blend: AUG-CC-PVTZ-JKFIT
	 Reference Energy          =    -196.4038472950508094 [Eh]
	 Singles Energy            =      -0.0000000000000000 [Eh]
	 Same-Spin Energy          =      -0.2077085936816277 [Eh]
	 Opposite-Spin Energy      =      -0.7933062041086829 [Eh]
	 Correlation Energy        =      -1.0010147977903106 [Eh]
	 Total Energy              =    -197.4048620928411140 [Eh]

	 ================> DF-SCS-MP2 Energies <==================
	-----------------------------------------------------------
	 SCS Same-Spin Scale       =       0.3333333333333333 [-]
	 SCS Opposite-Spin Scale   =       1.2000000000000000 [-]
	 SCS Same-Spin Energy      =      -0.0692361978938759 [Eh]
	 SCS Opposite-Spin Energy  =      -0.9519674449304194 [Eh]
	 SCS Correlation Energy    =      -1.0212036428242952 [Eh]
	 SCS Total Energy          =    -197.4250509378751133 [Eh]
	-----------------------------------------------------------

  Dipole Moment: [D]
     X:     0.0019      Y:     0.0853      Z:     0.0013     Total:     0.0854

*** Psi4 exiting successfully. Buy a developer a beer!
