                               Psi4 1.4a3.dev225

  ==> Input File <==

--------------------------------------------------------------------------
#psi4
#
memory 32 gb

molecule  {
0 1
  C        2.5434150    -0.3258570     0.0000020
  H        2.5815867    -0.9994682     0.9244384
  H        2.5798870    -0.9701100    -0.8839970
  H        3.4436120     0.2958290    -0.0000390
  C        1.2759530     0.5247200    -0.0000120
  H        1.2739300     1.1828070    -0.8780290
  H        1.2739250     1.1828280     0.8779900
  C        0.0000000    -0.3137570    -0.0000050
  H       -0.0000060    -0.9732170    -0.8787350
  H        0.0000060    -0.9732200     0.8787230
  C       -1.2759530     0.5247200     0.0000030
  H       -1.2739340     1.1828180    -0.8780070
  H       -1.2739210     1.1828170     0.8780130
  C       -2.5434150    -0.3258570     0.0000110
  H       -2.5799100    -0.9700590     0.8840460
  H       -3.4436120     0.2958290    -0.0000090
  H       -2.5798950    -0.9700920    -0.8840020
units angstrom
no_reorient  #important for SAPT in psi4, default
symmetry c1  #important for SAPT in psi4, default
}

set PROPERTIES_ORIGIN ["COM"]
properties('MP2/aug-cc-pvtz', properties = ['dipole'])
--------------------------------------------------------------------------

    Molecular point group: c1
  Charge       = 0
  Multiplicity = 1
  Basis Set: AUG-CC-PVTZ
    Blend: AUG-CC-PVTZ
  Basis Set: (AUG-CC-PVTZ AUX)
    Blend: AUG-CC-PVTZ-JKFIT

    Orbital Energies [Eh]
    ---------------------

    Doubly Occupied:

       1A    -11.215868     2A    -11.215223     3A    -11.214886
       4A    -11.212578     5A    -11.209450     6A     -1.078721
       7A     -1.012667     8A     -0.915912     9A     -0.816845
      10A     -0.782732    11A     -0.644871    12A     -0.596781
      13A     -0.589714    14A     -0.552349    15A     -0.546093
      16A     -0.522239    17A     -0.492826    18A     -0.473503
      19A     -0.460801    20A     -0.458031    21A     -0.447097

  @DF-RHF Final Energy:  -196.40187290253127

   => Energetics <=

    Nuclear Repulsion Energy =            184.8198079509244849
    One-Electron Energy =                -629.5249862122676632
    Two-Electron Energy =                 248.3033053588119117
    Total Energy =                       -196.4018729025312666
  Basis Set: (AUG-CC-PVTZ AUX)
    Blend: AUG-CC-PVTZ-RI
    Molecular point group: c1

    Geometry (in Angstrom), charge = 0, multiplicity = 1:

       Center              X                  Y                   Z               Mass
    ------------   -----------------  -----------------  -----------------  -----------------
         C            2.543391672678    -0.332379288174    -0.000562492580    12.000000000000
         H            2.581563372678    -1.005990488174     0.923873907420     1.007825032230
         H            2.579863672678    -0.976632288174    -0.884561492580     1.007825032230
         H            3.443588672678     0.289306711826    -0.000603492580     1.007825032230
         C            1.275929672678     0.518197711826    -0.000576492580    12.000000000000
         H            1.273906672678     1.176284711826    -0.878593492580     1.007825032230
         H            1.273901672678     1.176305711826     0.877425507420     1.007825032230
         C           -0.000023327322    -0.320279288174    -0.000569492580    12.000000000000
         H           -0.000029327322    -0.979739288174    -0.879299492580     1.007825032230
         H           -0.000017327322    -0.979742288174     0.878158507420     1.007825032230
         C           -1.275976327322     0.518197711826    -0.000561492580    12.000000000000
         H           -1.273957327322     1.176295711826    -0.878571492580     1.007825032230
         H           -1.273944327322     1.176294711826     0.877448507420     1.007825032230
         C           -2.543438327322    -0.332379288174    -0.000553492580    12.000000000000
         H           -2.579933327322    -0.976581288174     0.883481507420     1.007825032230
         H           -3.443635327322     0.289306711826    -0.000573492580     1.007825032230
         H           -2.579918327322    -0.976614288174    -0.884566492580     1.007825032230

  Basis Set: AUG-CC-PVTZ
    Blend: AUG-CC-PVTZ
  Basis Set: (AUG-CC-PVTZ AUX)
    Blend: AUG-CC-PVTZ-JKFIT
	 Reference Energy          =    -196.4018729025312666 [Eh]
	 Singles Energy            =      -0.0000000000000000 [Eh]
	 Same-Spin Energy          =      -0.2076826008490007 [Eh]
	 Opposite-Spin Energy      =      -0.7936164674400321 [Eh]
	 Correlation Energy        =      -1.0012990682890328 [Eh]
	 Total Energy              =    -197.4031719708202957 [Eh]

	 ================> DF-SCS-MP2 Energies <==================
	-----------------------------------------------------------
	 SCS Same-Spin Scale       =       0.3333333333333333 [-]
	 SCS Opposite-Spin Scale   =       1.2000000000000000 [-]
	 SCS Same-Spin Energy      =      -0.0692275336163336 [Eh]
	 SCS Opposite-Spin Energy  =      -0.9523397609280385 [Eh]
	 SCS Correlation Energy    =      -1.0215672945443721 [Eh]
	 SCS Total Energy          =    -197.4234401970756494 [Eh]
	-----------------------------------------------------------

  Dipole Moment: [D]
     X:    -0.0106      Y:     0.1118      Z:    -0.0267     Total:     0.1154

*** Psi4 exiting successfully. Buy a developer a beer!
