                               Psi4 1.3.2 release

  ==> Input File <==

--------------------------------------------------------------------------
#psi4
#
memory 32 gb

molecule  {
0 1
  C        2.5428260    -0.3261640     0.0004000
  H        2.5791480    -0.9696020     0.8850690
  H        2.5787950    -0.9712350    -0.8831070
  H        3.4433220     0.2951360    -0.0003880
  C        1.2758620     0.5250290    -0.0000810
  H        1.2742200     1.1832430    -0.8780540
  H        1.2734520     1.1829250     0.8781380
  C        0.0000050    -0.3135590    -0.0008010
  H       -0.0000154    -1.0023723    -0.8567642
  H        0.0000540    -0.9738100     0.8773920
  C       -1.2758600     0.5250110     0.0000320
  H       -1.2742070     1.1833710    -0.8778340
  H       -1.2734650     1.1827700     0.8783550
  C       -2.5428310    -0.3261580     0.0003500
  H       -2.5791270    -0.9698370     0.8848460
  H       -3.4433120     0.2951650    -0.0002120
  H       -2.5788740    -0.9709940    -0.8833260
units angstrom
no_reorient  #important for SAPT in psi4, default
symmetry c1  #important for SAPT in psi4, default
}

set PROPERTIES_ORIGIN ["COM"]
properties('MP2/aug-cc-pvtz', properties = ['dipole'])
--------------------------------------------------------------------------

    Molecular point group: c1
  Charge       = 0
  Multiplicity = 1
  Basis Set: AUG-CC-PVTZ
    Blend: AUG-CC-PVTZ
  Basis Set: (AUG-CC-PVTZ AUX)
    Blend: AUG-CC-PVTZ-JKFIT

    Orbital Energies [Eh]
    ---------------------

    Doubly Occupied:

       1A    -11.215009     2A    -11.214946     3A    -11.212355
       4A    -11.209397     5A    -11.209396     6A     -1.078679
       7A     -1.013567     8A     -0.917476     9A     -0.818371
      10A     -0.784179    11A     -0.643870    12A     -0.596705
      13A     -0.591489    14A     -0.553828    15A     -0.546274
      16A     -0.523643    17A     -0.493655    18A     -0.475194
      19A     -0.462697    20A     -0.456813    21A     -0.446623

  @DF-RHF Final Energy:  -196.40372993644630

   => Energetics <=

    Nuclear Repulsion Energy =            185.0013098505712321
    One-Electron Energy =                -629.8817521567495987
    Two-Electron Energy =                 248.4767123697320415
    Total Energy =                       -196.4037299364462967
  Basis Set: (AUG-CC-PVTZ AUX)
    Blend: AUG-CC-PVTZ-RI
    Molecular point group: c1

    Geometry (in Angstrom), charge = 0, multiplicity = 1:

       Center              X                  Y                   Z               Mass
    ------------   -----------------  -----------------  -----------------  -----------------
         C            2.542825798507    -0.332689925562     0.000079536008    12.000000000000
         H            2.579147798507    -0.976127925562     0.884748536008     1.007825032230
         H            2.578794798507    -0.977760925562    -0.883427463992     1.007825032230
         H            3.443321798507     0.288610074438    -0.000708463992     1.007825032230
         C            1.275861798507     0.518503074438    -0.000401463992    12.000000000000
         H            1.274219798507     1.176717074438    -0.878374463992     1.007825032230
         H            1.273451798507     1.176399074438     0.877817536008     1.007825032230
         C            0.000004798507    -0.320084925562    -0.001121463992    12.000000000000
         H           -0.000015601493    -1.008898225562    -0.857084663992     1.007825032230
         H            0.000053798507    -0.980335925562     0.877071536008     1.007825032230
         C           -1.275860201493     0.518485074438    -0.000288463992    12.000000000000
         H           -1.274207201493     1.176845074438    -0.878154463992     1.007825032230
         H           -1.273465201493     1.176244074438     0.878034536008     1.007825032230
         C           -2.542831201493    -0.332683925562     0.000029536008    12.000000000000
         H           -2.579127201493    -0.976362925562     0.884525536008     1.007825032230
         H           -3.443312201493     0.288639074438    -0.000532463992     1.007825032230
         H           -2.578874201493    -0.977519925562    -0.883646463992     1.007825032230

  Basis Set: AUG-CC-PVTZ
    Blend: AUG-CC-PVTZ
  Basis Set: (AUG-CC-PVTZ AUX)
    Blend: AUG-CC-PVTZ-JKFIT
	 Reference Energy          =    -196.4037299364462967 [Eh]
	 Singles Energy            =      -0.0000000000000000 [Eh]
	 Same-Spin Energy          =      -0.2077157697383192 [Eh]
	 Opposite-Spin Energy      =      -0.7933041509239589 [Eh]
	 Correlation Energy        =      -1.0010199206622781 [Eh]
	 Total Energy              =    -197.4047498571085839 [Eh]

	 ================> DF-SCS-MP2 Energies <==================
	-----------------------------------------------------------
	 SCS Same-Spin Scale       =       0.3333333333333333 [-]
	 SCS Opposite-Spin Scale   =       1.2000000000000000 [-]
	 SCS Same-Spin Energy      =      -0.0692385899127731 [Eh]
	 SCS Opposite-Spin Energy  =      -0.9519649811087506 [Eh]
	 SCS Correlation Energy    =      -1.0212035710215237 [Eh]
	 SCS Total Energy          =    -197.4249335074678129 [Eh]
	-----------------------------------------------------------

  Dipole Moment: [D]
     X:    -0.0000      Y:     0.0819      Z:     0.0042     Total:     0.0820

*** Psi4 exiting successfully. Buy a developer a beer!
