                               Psi4 1.3.2 release

  ==> Input File <==

--------------------------------------------------------------------------
#psi4
#
memory 32 gb

molecule  {
0 1
  C        2.5428260    -0.3261640     0.0004000
  H        2.5791480    -0.9696020     0.8850690
  H        2.5787950    -0.9712350    -0.8831070
  H        3.4433220     0.2951360    -0.0003880
  C        1.2758620     0.5250290    -0.0000810
  H        1.2741680     1.1984654    -0.8664328
  H        1.2734520     1.1829250     0.8781380
  C        0.0000050    -0.3135590    -0.0008010
  H       -0.0000170    -0.9720800    -0.8802820
  H        0.0000540    -0.9738100     0.8773920
  C       -1.2758600     0.5250110     0.0000320
  H       -1.2742070     1.1833710    -0.8778340
  H       -1.2734650     1.1827700     0.8783550
  C       -2.5428310    -0.3261580     0.0003500
  H       -2.5791270    -0.9698370     0.8848460
  H       -3.4433120     0.2951650    -0.0002120
  H       -2.5788740    -0.9709940    -0.8833260
units angstrom
no_reorient  #important for SAPT in psi4, default
symmetry c1  #important for SAPT in psi4, default
}

set PROPERTIES_ORIGIN ["COM"]
properties('MP2/aug-cc-pvtz', properties = ['dipole'])
--------------------------------------------------------------------------

    Molecular point group: c1
  Charge       = 0
  Multiplicity = 1
  Basis Set: AUG-CC-PVTZ
    Blend: AUG-CC-PVTZ
  Basis Set: (AUG-CC-PVTZ AUX)
    Blend: AUG-CC-PVTZ-JKFIT

    Orbital Energies [Eh]
    ---------------------

    Doubly Occupied:

       1A    -11.214811     2A    -11.214717     3A    -11.212552
       4A    -11.209482     5A    -11.209384     6A     -1.078792
       7A     -1.013503     8A     -0.917544     9A     -0.818472
      10A     -0.783486    11A     -0.644746    12A     -0.597008
      13A     -0.591000    14A     -0.552767    15A     -0.546219
      16A     -0.524924    17A     -0.494120    18A     -0.474642
      19A     -0.461465    20A     -0.457866    21A     -0.446641

  @DF-RHF Final Energy:  -196.40383103831127

   => Energetics <=

    Nuclear Repulsion Energy =            185.0080642120498453
    One-Electron Energy =                -629.8955115929841213
    Two-Electron Energy =                 248.4836163426230371
    Total Energy =                       -196.4038310383112673
  Basis Set: (AUG-CC-PVTZ AUX)
    Blend: AUG-CC-PVTZ-RI
    Molecular point group: c1

    Geometry (in Angstrom), charge = 0, multiplicity = 1:

       Center              X                  Y                   Z               Mass
    ------------   -----------------  -----------------  -----------------  -----------------
         C            2.542826547799    -0.333326190957     0.000245842606    12.000000000000
         H            2.579148547799    -0.976764190957     0.884914842606     1.007825032230
         H            2.578795547799    -0.978397190957    -0.883261157394     1.007825032230
         H            3.443322547799     0.287973809043    -0.000542157394     1.007825032230
         C            1.275862547799     0.517866809043    -0.000235157394    12.000000000000
         H            1.274168547799     1.191303209043    -0.866586957394     1.007825032230
         H            1.273452547799     1.175762809043     0.877983842606     1.007825032230
         C            0.000005547799    -0.320721190957    -0.000955157394    12.000000000000
         H           -0.000016452201    -0.979242190957    -0.880436157394     1.007825032230
         H            0.000054547799    -0.980972190957     0.877237842606     1.007825032230
         C           -1.275859452201     0.517848809043    -0.000122157394    12.000000000000
         H           -1.274206452201     1.176208809043    -0.877988157394     1.007825032230
         H           -1.273464452201     1.175607809043     0.878200842606     1.007825032230
         C           -2.542830452201    -0.333320190957     0.000195842606    12.000000000000
         H           -2.579126452201    -0.976999190957     0.884691842606     1.007825032230
         H           -3.443311452201     0.288002809043    -0.000366157394     1.007825032230
         H           -2.578873452201    -0.978156190957    -0.883480157394     1.007825032230

  Basis Set: AUG-CC-PVTZ
    Blend: AUG-CC-PVTZ
  Basis Set: (AUG-CC-PVTZ AUX)
    Blend: AUG-CC-PVTZ-JKFIT
	 Reference Energy          =    -196.4038310383112673 [Eh]
	 Singles Energy            =      -0.0000000000000000 [Eh]
	 Same-Spin Energy          =      -0.2077155631757254 [Eh]
	 Opposite-Spin Energy      =      -0.7933146544254792 [Eh]
	 Correlation Energy        =      -1.0010302176012047 [Eh]
	 Total Energy              =    -197.4048612559124649 [Eh]

	 ================> DF-SCS-MP2 Energies <==================
	-----------------------------------------------------------
	 SCS Same-Spin Scale       =       0.3333333333333333 [-]
	 SCS Opposite-Spin Scale   =       1.2000000000000000 [-]
	 SCS Same-Spin Energy      =      -0.0692385210585751 [Eh]
	 SCS Opposite-Spin Energy  =      -0.9519775853105750 [Eh]
	 SCS Correlation Energy    =      -1.0212161063691501 [Eh]
	 SCS Total Energy          =    -197.4250471446804056 [Eh]
	-----------------------------------------------------------

  Dipole Moment: [D]
     X:    -0.0000      Y:     0.0905      Z:     0.0024     Total:     0.0906

*** Psi4 exiting successfully. Buy a developer a beer!
