                               Psi4 1.4a3.dev225

  ==> Input File <==

--------------------------------------------------------------------------
#psi4
#
memory 32 gb

molecule  {
0 1
  C        2.5434150    -0.3258570     0.0000020
  H        2.5805861    -0.9818107     0.9002060
  H        2.5798870    -0.9701100    -0.8839970
  H        3.4436120     0.2958290    -0.0000390
  C        1.2759530     0.5247200    -0.0000120
  H        1.2739300     1.1828070    -0.8780290
  H        1.2739250     1.1828280     0.8779900
  C        0.0000000    -0.3137570    -0.0000050
  H       -0.0000060    -0.9732170    -0.8787350
  H        0.0000060    -0.9732200     0.8787230
  C       -1.2759530     0.5247200     0.0000030
  H       -1.2739340     1.1828180    -0.8780070
  H       -1.2739210     1.1828170     0.8780130
  C       -2.5434150    -0.3258570     0.0000110
  H       -2.5799100    -0.9700590     0.8840460
  H       -3.4436120     0.2958290    -0.0000090
  H       -2.5798950    -0.9700920    -0.8840020
units angstrom
no_reorient  #important for SAPT in psi4, default
symmetry c1  #important for SAPT in psi4, default
}

set PROPERTIES_ORIGIN ["COM"]
properties('MP2/aug-cc-pvtz', properties = ['dipole'])
--------------------------------------------------------------------------

    Molecular point group: c1
  Charge       = 0
  Multiplicity = 1
  Basis Set: AUG-CC-PVTZ
    Blend: AUG-CC-PVTZ
  Basis Set: (AUG-CC-PVTZ AUX)
    Blend: AUG-CC-PVTZ-JKFIT

    Orbital Energies [Eh]
    ---------------------

    Doubly Occupied:

       1A    -11.215060     2A    -11.214820     3A    -11.212510
       4A    -11.211885     5A    -11.209405     6A     -1.078774
       7A     -1.013160     8A     -0.916867     9A     -0.817725
      10A     -0.782957    11A     -0.645088    12A     -0.596682
      13A     -0.590761    14A     -0.552553    15A     -0.546148
      16A     -0.523875    17A     -0.493273    18A     -0.474567
      19A     -0.460791    20A     -0.458218    21A     -0.446865

  @DF-RHF Final Energy:  -196.40339295698635

   => Energetics <=

    Nuclear Repulsion Energy =            184.9303929192192015
    One-Electron Energy =                -629.7436031347953076
    Two-Electron Energy =                 248.4098172585897260
    Total Energy =                       -196.4033929569863517
  Basis Set: (AUG-CC-PVTZ AUX)
    Blend: AUG-CC-PVTZ-RI
    Molecular point group: c1

    Geometry (in Angstrom), charge = 0, multiplicity = 1:

       Center              X                  Y                   Z               Mass
    ------------   -----------------  -----------------  -----------------  -----------------
         C            2.543405660404    -0.332626128342    -0.000223739659    12.000000000000
         H            2.580576760404    -0.988579828342     0.899980260341     1.007825032230
         H            2.579877660404    -0.976879128342    -0.884222739659     1.007825032230
         H            3.443602660404     0.289059871658    -0.000264739659     1.007825032230
         C            1.275943660404     0.517950871658    -0.000237739659    12.000000000000
         H            1.273920660404     1.176037871658    -0.878254739659     1.007825032230
         H            1.273915660404     1.176058871658     0.877764260341     1.007825032230
         C           -0.000009339596    -0.320526128342    -0.000230739659    12.000000000000
         H           -0.000015339596    -0.979986128342    -0.878960739659     1.007825032230
         H           -0.000003339596    -0.979989128342     0.878497260341     1.007825032230
         C           -1.275962339596     0.517950871658    -0.000222739659    12.000000000000
         H           -1.273943339596     1.176048871658    -0.878232739659     1.007825032230
         H           -1.273930339596     1.176047871658     0.877787260341     1.007825032230
         C           -2.543424339596    -0.332626128342    -0.000214739659    12.000000000000
         H           -2.579919339596    -0.976828128342     0.883820260341     1.007825032230
         H           -3.443621339596     0.289059871658    -0.000234739659     1.007825032230
         H           -2.579904339596    -0.976861128342    -0.884227739659     1.007825032230

  Basis Set: AUG-CC-PVTZ
    Blend: AUG-CC-PVTZ
  Basis Set: (AUG-CC-PVTZ AUX)
    Blend: AUG-CC-PVTZ-JKFIT
	 Reference Energy          =    -196.4033929569863517 [Eh]
	 Singles Energy            =      -0.0000000000000000 [Eh]
	 Same-Spin Energy          =      -0.2077005949161228 [Eh]
	 Opposite-Spin Energy      =      -0.7934334389411883 [Eh]
	 Correlation Energy        =      -1.0011340338573111 [Eh]
	 Total Energy              =    -197.4045269908436637 [Eh]

	 ================> DF-SCS-MP2 Energies <==================
	-----------------------------------------------------------
	 SCS Same-Spin Scale       =       0.3333333333333333 [-]
	 SCS Opposite-Spin Scale   =       1.2000000000000000 [-]
	 SCS Same-Spin Energy      =      -0.0692335316387076 [Eh]
	 SCS Opposite-Spin Energy  =      -0.9521201267294259 [Eh]
	 SCS Correlation Energy    =      -1.0213536583681335 [Eh]
	 SCS Total Energy          =    -197.4247466153544792 [Eh]
	-----------------------------------------------------------

  Dipole Moment: [D]
     X:    -0.0041      Y:     0.0969      Z:    -0.0103     Total:     0.0976

*** Psi4 exiting successfully. Buy a developer a beer!
