                               Psi4 1.3.2 release

  ==> Input File <==

--------------------------------------------------------------------------
#psi4
#
memory 32 gb

molecule  {
0 1
  C        2.5428260    -0.3261640     0.0004000
  H        2.5808497    -1.0000364     0.8620387
  H        2.5787950    -0.9712350    -0.8831070
  H        3.4433220     0.2951360    -0.0003880
  C        1.2758620     0.5250290    -0.0000810
  H        1.2742200     1.1832430    -0.8780540
  H        1.2734520     1.1829250     0.8781380
  C        0.0000050    -0.3135590    -0.0008010
  H       -0.0000170    -0.9720800    -0.8802820
  H        0.0000540    -0.9738100     0.8773920
  C       -1.2758600     0.5250110     0.0000320
  H       -1.2742070     1.1833710    -0.8778340
  H       -1.2734650     1.1827700     0.8783550
  C       -2.5428310    -0.3261580     0.0003500
  H       -2.5791270    -0.9698370     0.8848460
  H       -3.4433120     0.2951650    -0.0002120
  H       -2.5788740    -0.9709940    -0.8833260
units angstrom
no_reorient  #important for SAPT in psi4, default
symmetry c1  #important for SAPT in psi4, default
}

set PROPERTIES_ORIGIN ["COM"]
properties('MP2/aug-cc-pvtz', properties = ['dipole'])
--------------------------------------------------------------------------

    Molecular point group: c1
  Charge       = 0
  Multiplicity = 1
  Basis Set: AUG-CC-PVTZ
    Blend: AUG-CC-PVTZ
  Basis Set: (AUG-CC-PVTZ AUX)
    Blend: AUG-CC-PVTZ-JKFIT

    Orbital Energies [Eh]
    ---------------------

    Doubly Occupied:

       1A    -11.215041     2A    -11.214804     3A    -11.212505
       4A    -11.209404     5A    -11.209325     6A     -1.078851
       7A     -1.013477     8A     -0.917562     9A     -0.818692
      10A     -0.783380    11A     -0.644926    12A     -0.597144
      13A     -0.590359    14A     -0.553609    15A     -0.546611
      16A     -0.523487    17A     -0.494895    18A     -0.474364
      19A     -0.461311    20A     -0.458173    21A     -0.446656

  @DF-RHF Final Energy:  -196.40374084526024

   => Energetics <=

    Nuclear Repulsion Energy =            185.0059605577398827
    One-Electron Energy =                -629.8902490433714547
    Two-Electron Energy =                 248.4805476403713556
    Total Energy =                       -196.4037408452602449
  Basis Set: (AUG-CC-PVTZ AUX)
    Blend: AUG-CC-PVTZ-RI
    Molecular point group: c1

    Geometry (in Angstrom), charge = 0, multiplicity = 1:

       Center              X                  Y                   Z               Mass
    ------------   -----------------  -----------------  -----------------  -----------------
         C            2.542802032233    -0.332687939098     0.000730247652    12.000000000000
         H            2.580825732233    -1.006560339098     0.862368947652     1.007825032230
         H            2.578771032233    -0.977758939098    -0.882776752348     1.007825032230
         H            3.443298032233     0.288612060902    -0.000057752348     1.007825032230
         C            1.275838032233     0.518505060902     0.000249247652    12.000000000000
         H            1.274196032233     1.176719060902    -0.877723752348     1.007825032230
         H            1.273428032233     1.176401060902     0.878468247652     1.007825032230
         C           -0.000018967767    -0.320082939098    -0.000470752348    12.000000000000
         H           -0.000040967767    -0.978603939098    -0.879951752348     1.007825032230
         H            0.000030032233    -0.980333939098     0.877722247652     1.007825032230
         C           -1.275883967767     0.518487060902     0.000362247652    12.000000000000
         H           -1.274230967767     1.176847060902    -0.877503752348     1.007825032230
         H           -1.273488967767     1.176246060902     0.878685247652     1.007825032230
         C           -2.542854967767    -0.332681939098     0.000680247652    12.000000000000
         H           -2.579150967767    -0.976360939098     0.885176247652     1.007825032230
         H           -3.443335967767     0.288641060902     0.000118247652     1.007825032230
         H           -2.578897967767    -0.977517939098    -0.882995752348     1.007825032230

  Basis Set: AUG-CC-PVTZ
    Blend: AUG-CC-PVTZ
  Basis Set: (AUG-CC-PVTZ AUX)
    Blend: AUG-CC-PVTZ-JKFIT
	 Reference Energy          =    -196.4037408452602449 [Eh]
	 Singles Energy            =      -0.0000000000000000 [Eh]
	 Same-Spin Energy          =      -0.2077189466174458 [Eh]
	 Opposite-Spin Energy      =      -0.7933180319200761 [Eh]
	 Correlation Energy        =      -1.0010369785375219 [Eh]
	 Total Energy              =    -197.4047778237977582 [Eh]

	 ================> DF-SCS-MP2 Energies <==================
	-----------------------------------------------------------
	 SCS Same-Spin Scale       =       0.3333333333333333 [-]
	 SCS Opposite-Spin Scale   =       1.2000000000000000 [-]
	 SCS Same-Spin Energy      =      -0.0692396488724819 [Eh]
	 SCS Opposite-Spin Energy  =      -0.9519816383040913 [Eh]
	 SCS Correlation Energy    =      -1.0212212871765733 [Eh]
	 SCS Total Energy          =    -197.4249621324368320 [Eh]
	-----------------------------------------------------------

  Dipole Moment: [D]
     X:    -0.0038      Y:     0.0797      Z:    -0.0044     Total:     0.0799

*** Psi4 exiting successfully. Buy a developer a beer!
