                               Psi4 1.3.2 release

  ==> Input File <==

--------------------------------------------------------------------------
#psi4
#
memory 32 gb

molecule  {
0 1
  C        2.5428260    -0.3261640     0.0004000
  H        2.5774020    -0.9383837     0.9070215
  H        2.5787950    -0.9712350    -0.8831070
  H        3.4433220     0.2951360    -0.0003880
  C        1.2758620     0.5250290    -0.0000810
  H        1.2742200     1.1832430    -0.8780540
  H        1.2734520     1.1829250     0.8781380
  C        0.0000050    -0.3135590    -0.0008010
  H       -0.0000170    -0.9720800    -0.8802820
  H        0.0000540    -0.9738100     0.8773920
  C       -1.2758600     0.5250110     0.0000320
  H       -1.2742070     1.1833710    -0.8778340
  H       -1.2734650     1.1827700     0.8783550
  C       -2.5428310    -0.3261580     0.0003500
  H       -2.5791270    -0.9698370     0.8848460
  H       -3.4433120     0.2951650    -0.0002120
  H       -2.5788740    -0.9709940    -0.8833260
units angstrom
no_reorient  #important for SAPT in psi4, default
symmetry c1  #important for SAPT in psi4, default
}

set PROPERTIES_ORIGIN ["COM"]
properties('MP2/aug-cc-pvtz', properties = ['dipole'])
--------------------------------------------------------------------------

    Molecular point group: c1
  Charge       = 0
  Multiplicity = 1
  Basis Set: AUG-CC-PVTZ
    Blend: AUG-CC-PVTZ
  Basis Set: (AUG-CC-PVTZ AUX)
    Blend: AUG-CC-PVTZ-JKFIT

    Orbital Energies [Eh]
    ---------------------

    Doubly Occupied:

       1A    -11.214763     2A    -11.214532     3A    -11.212409
       4A    -11.209443     5A    -11.209360     6A     -1.078879
       7A     -1.013656     8A     -0.917530     9A     -0.818002
      10A     -0.782844    11A     -0.645671    12A     -0.596303
      13A     -0.592661    14A     -0.552041    15A     -0.545643
      16A     -0.526307    17A     -0.492310    18A     -0.475864
      19A     -0.460323    20A     -0.458379    21A     -0.446592

  @DF-RHF Final Energy:  -196.40370261224942

   => Energetics <=

    Nuclear Repulsion Energy =            185.0296761371525349
    One-Electron Energy =                -629.9397373954479917
    Two-Electron Energy =                 248.5063586460460385
    Total Energy =                       -196.4037026122494183
  Basis Set: (AUG-CC-PVTZ AUX)
    Blend: AUG-CC-PVTZ-RI
    Molecular point group: c1

    Geometry (in Angstrom), charge = 0, multiplicity = 1:

       Center              X                  Y                   Z               Mass
    ------------   -----------------  -----------------  -----------------  -----------------
         C            2.542850228798    -0.333549803056     0.000101417867    12.000000000000
         H            2.577426228798    -0.945769503056     0.906722917867     1.007825032230
         H            2.578819228798    -0.978620803056    -0.883405582133     1.007825032230
         H            3.443346228798     0.287750196944    -0.000686582133     1.007825032230
         C            1.275886228798     0.517643196944    -0.000379582133    12.000000000000
         H            1.274244228798     1.175857196944    -0.878352582133     1.007825032230
         H            1.273476228798     1.175539196944     0.877839417867     1.007825032230
         C            0.000029228798    -0.320944803056    -0.001099582133    12.000000000000
         H            0.000007228798    -0.979465803056    -0.880580582133     1.007825032230
         H            0.000078228798    -0.981195803056     0.877093417867     1.007825032230
         C           -1.275835771202     0.517625196944    -0.000266582133    12.000000000000
         H           -1.274182771202     1.175985196944    -0.878132582133     1.007825032230
         H           -1.273440771202     1.175384196944     0.878056417867     1.007825032230
         C           -2.542806771202    -0.333543803056     0.000051417867    12.000000000000
         H           -2.579102771202    -0.977222803056     0.884547417867     1.007825032230
         H           -3.443287771202     0.287779196944    -0.000510582133     1.007825032230
         H           -2.578849771202    -0.978379803056    -0.883624582133     1.007825032230

  Basis Set: AUG-CC-PVTZ
    Blend: AUG-CC-PVTZ
  Basis Set: (AUG-CC-PVTZ AUX)
    Blend: AUG-CC-PVTZ-JKFIT
	 Reference Energy          =    -196.4037026122494183 [Eh]
	 Singles Energy            =      -0.0000000000000000 [Eh]
	 Same-Spin Energy          =      -0.2077275459336423 [Eh]
	 Opposite-Spin Energy      =      -0.7933579999332674 [Eh]
	 Correlation Energy        =      -1.0010855458669097 [Eh]
	 Total Energy              =    -197.4047881581163324 [Eh]

	 ================> DF-SCS-MP2 Energies <==================
	-----------------------------------------------------------
	 SCS Same-Spin Scale       =       0.3333333333333333 [-]
	 SCS Opposite-Spin Scale   =       1.2000000000000000 [-]
	 SCS Same-Spin Energy      =      -0.0692425153112141 [Eh]
	 SCS Opposite-Spin Energy  =      -0.9520295999199209 [Eh]
	 SCS Correlation Energy    =      -1.0212721152311350 [Eh]
	 SCS Total Energy          =    -197.4249747274805600 [Eh]
	-----------------------------------------------------------

  Dipole Moment: [D]
     X:     0.0037      Y:     0.0954      Z:     0.0036     Total:     0.0956

*** Psi4 exiting successfully. Buy a developer a beer!
