                               Psi4 1.3.2 release

  ==> Input File <==

--------------------------------------------------------------------------
#psi4
#
memory 32 gb

molecule  {
0 1
  C        2.5428260    -0.3261640     0.0004000
  H        2.5791480    -0.9696020     0.8850690
  H        2.5787950    -0.9712350    -0.8831070
  H        3.4433220     0.2951360    -0.0003880
  C        1.2758620     0.5250290    -0.0000810
  H        1.2742200     1.1832430    -0.8780540
  H        1.2734520     1.1829250     0.8781380
  C        0.0000050    -0.3135590    -0.0008010
  H       -0.0000162    -0.9873288    -0.8686553
  H        0.0000540    -0.9738100     0.8773920
  C       -1.2758600     0.5250110     0.0000320
  H       -1.2742070     1.1833710    -0.8778340
  H       -1.2734650     1.1827700     0.8783550
  C       -2.5428310    -0.3261580     0.0003500
  H       -2.5791270    -0.9698370     0.8848460
  H       -3.4433120     0.2951650    -0.0002120
  H       -2.5788740    -0.9709940    -0.8833260
units angstrom
no_reorient  #important for SAPT in psi4, default
symmetry c1  #important for SAPT in psi4, default
}

set PROPERTIES_ORIGIN ["COM"]
properties('MP2/aug-cc-pvtz', properties = ['dipole'])
--------------------------------------------------------------------------

    Molecular point group: c1
  Charge       = 0
  Multiplicity = 1
  Basis Set: AUG-CC-PVTZ
    Blend: AUG-CC-PVTZ
  Basis Set: (AUG-CC-PVTZ AUX)
    Blend: AUG-CC-PVTZ-JKFIT

    Orbital Energies [Eh]
    ---------------------

    Doubly Occupied:

       1A    -11.214912     2A    -11.214845     3A    -11.212405
       4A    -11.209389     5A    -11.209388     6A     -1.078767
       7A     -1.013561     8A     -0.917502     9A     -0.818353
      10A     -0.783641    11A     -0.644570    12A     -0.596699
      13A     -0.591494    14A     -0.553278    15A     -0.546223
      16A     -0.524286    17A     -0.493628    18A     -0.475186
      19A     -0.461751    20A     -0.457609    21A     -0.446622

  @DF-RHF Final Energy:  -196.40383357130884

   => Energetics <=

    Nuclear Repulsion Energy =            185.0092199256695551
    One-Electron Energy =                -629.8978848607738428
    Two-Electron Energy =                 248.4848313637954789
    Total Energy =                       -196.4038335713088372
  Basis Set: (AUG-CC-PVTZ AUX)
    Blend: AUG-CC-PVTZ-RI
    Molecular point group: c1

    Geometry (in Angstrom), charge = 0, multiplicity = 1:

       Center              X                  Y                   Z               Mass
    ------------   -----------------  -----------------  -----------------  -----------------
         C            2.542825809690    -0.332900223740     0.000245765720    12.000000000000
         H            2.579147809690    -0.976338223740     0.884914765720     1.007825032230
         H            2.578794809690    -0.977971223740    -0.883261234280     1.007825032230
         H            3.443321809690     0.288399776260    -0.000542234280     1.007825032230
         C            1.275861809690     0.518292776260    -0.000235234280    12.000000000000
         H            1.274219809690     1.176506776260    -0.878208234280     1.007825032230
         H            1.273451809690     1.176188776260     0.877983765720     1.007825032230
         C            0.000004809690    -0.320295223740    -0.000955234280    12.000000000000
         H           -0.000016390310    -0.994065023740    -0.868809534280     1.007825032230
         H            0.000053809690    -0.980546223740     0.877237765720     1.007825032230
         C           -1.275860190310     0.518274776260    -0.000122234280    12.000000000000
         H           -1.274207190310     1.176634776260    -0.877988234280     1.007825032230
         H           -1.273465190310     1.176033776260     0.878200765720     1.007825032230
         C           -2.542831190310    -0.332894223740     0.000195765720    12.000000000000
         H           -2.579127190310    -0.976573223740     0.884691765720     1.007825032230
         H           -3.443312190310     0.288428776260    -0.000366234280     1.007825032230
         H           -2.578874190310    -0.977730223740    -0.883480234280     1.007825032230

  Basis Set: AUG-CC-PVTZ
    Blend: AUG-CC-PVTZ
  Basis Set: (AUG-CC-PVTZ AUX)
    Blend: AUG-CC-PVTZ-JKFIT
	 Reference Energy          =    -196.4038335713088372 [Eh]
	 Singles Energy            =      -0.0000000000000000 [Eh]
	 Same-Spin Energy          =      -0.2077146423413811 [Eh]
	 Opposite-Spin Energy      =      -0.7933132087298090 [Eh]
	 Correlation Energy        =      -1.0010278510711901 [Eh]
	 Total Energy              =    -197.4048614223800371 [Eh]

	 ================> DF-SCS-MP2 Energies <==================
	-----------------------------------------------------------
	 SCS Same-Spin Scale       =       0.3333333333333333 [-]
	 SCS Opposite-Spin Scale   =       1.2000000000000000 [-]
	 SCS Same-Spin Energy      =      -0.0692382141137937 [Eh]
	 SCS Opposite-Spin Energy  =      -0.9519758504757708 [Eh]
	 SCS Correlation Energy    =      -1.0212140645895644 [Eh]
	 SCS Total Energy          =    -197.4250476358984088 [Eh]
	-----------------------------------------------------------

  Dipole Moment: [D]
     X:    -0.0000      Y:     0.0848      Z:     0.0020     Total:     0.0848

*** Psi4 exiting successfully. Buy a developer a beer!
