                               Psi4 1.3.2 release

  ==> Input File <==

--------------------------------------------------------------------------
#psi4
#
memory 32 gb

molecule  {
0 1
  C        2.5428260    -0.3261640     0.0004000
  H        2.5791480    -0.9696020     0.8850690
  H        2.5787950    -0.9712350    -0.8831070
  H        3.4433220     0.2951360    -0.0003880
  C        1.2758620     0.5250290    -0.0000810
  H        1.2745417     1.0878646    -0.9420467
  H        1.2734520     1.1829250     0.8781380
  C        0.0000050    -0.3135590    -0.0008010
  H       -0.0000170    -0.9720800    -0.8802820
  H        0.0000540    -0.9738100     0.8773920
  C       -1.2758600     0.5250110     0.0000320
  H       -1.2742070     1.1833710    -0.8778340
  H       -1.2734650     1.1827700     0.8783550
  C       -2.5428310    -0.3261580     0.0003500
  H       -2.5791270    -0.9698370     0.8848460
  H       -3.4433120     0.2951650    -0.0002120
  H       -2.5788740    -0.9709940    -0.8833260
units angstrom
no_reorient  #important for SAPT in psi4, default
symmetry c1  #important for SAPT in psi4, default
}

set PROPERTIES_ORIGIN ["COM"]
properties('MP2/aug-cc-pvtz', properties = ['dipole'])
--------------------------------------------------------------------------

    Molecular point group: c1
  Charge       = 0
  Multiplicity = 1
  Basis Set: AUG-CC-PVTZ
    Blend: AUG-CC-PVTZ
  Basis Set: (AUG-CC-PVTZ AUX)
    Blend: AUG-CC-PVTZ-JKFIT

    Orbital Energies [Eh]
    ---------------------

    Doubly Occupied:

       1A    -11.215071     2A    -11.214748     3A    -11.211928
       4A    -11.209372     5A    -11.208841     6A     -1.079381
       7A     -1.013971     8A     -0.917501     9A     -0.817684
      10A     -0.780906    11A     -0.648829    12A     -0.595503
      13A     -0.593855    14A     -0.552687    15A     -0.545876
      16A     -0.524976    17A     -0.491095    18A     -0.478353
      19A     -0.460797    20A     -0.455658    21A     -0.446470

  @DF-RHF Final Energy:  -196.40248283933801

   => Energetics <=

    Nuclear Repulsion Energy =            185.0795797754667547
    One-Electron Energy =                -630.0371219156879761
    Two-Electron Energy =                 248.5550593008832152
    Total Energy =                       -196.4024828393380062
  Basis Set: (AUG-CC-PVTZ AUX)
    Blend: AUG-CC-PVTZ-RI
    Molecular point group: c1

    Geometry (in Angstrom), charge = 0, multiplicity = 1:

       Center              X                  Y                   Z               Mass
    ------------   -----------------  -----------------  -----------------  -----------------
         C            2.542821323720    -0.331780064943     0.001302874904    12.000000000000
         H            2.579143323720    -0.975218064943     0.885971874904     1.007825032230
         H            2.578790323720    -0.976851064943    -0.882204125096     1.007825032230
         H            3.443317323720     0.289519935057     0.000514874904     1.007825032230
         C            1.275857323720     0.519412935057     0.000821874904    12.000000000000
         H            1.274537023720     1.082248535057    -0.941143825096     1.007825032230
         H            1.273447323720     1.177308935057     0.879040874904     1.007825032230
         C            0.000000323720    -0.319175064943     0.000101874904    12.000000000000
         H           -0.000021676280    -0.977696064943    -0.879379125096     1.007825032230
         H            0.000049323720    -0.979426064943     0.878294874904     1.007825032230
         C           -1.275864676280     0.519394935057     0.000934874904    12.000000000000
         H           -1.274211676280     1.177754935057    -0.876931125096     1.007825032230
         H           -1.273469676280     1.177153935057     0.879257874904     1.007825032230
         C           -2.542835676280    -0.331774064943     0.001252874904    12.000000000000
         H           -2.579131676280    -0.975453064943     0.885748874904     1.007825032230
         H           -3.443316676280     0.289548935057     0.000690874904     1.007825032230
         H           -2.578878676280    -0.976610064943    -0.882423125096     1.007825032230

  Basis Set: AUG-CC-PVTZ
    Blend: AUG-CC-PVTZ
  Basis Set: (AUG-CC-PVTZ AUX)
    Blend: AUG-CC-PVTZ-JKFIT
	 Reference Energy          =    -196.4024828393380062 [Eh]
	 Singles Energy            =      -0.0000000000000000 [Eh]
	 Same-Spin Energy          =      -0.2077962893792682 [Eh]
	 Opposite-Spin Energy      =      -0.7935283955364596 [Eh]
	 Correlation Energy        =      -1.0013246849157278 [Eh]
	 Total Energy              =    -197.4038075242537218 [Eh]

	 ================> DF-SCS-MP2 Energies <==================
	-----------------------------------------------------------
	 SCS Same-Spin Scale       =       0.3333333333333333 [-]
	 SCS Opposite-Spin Scale   =       1.2000000000000000 [-]
	 SCS Same-Spin Energy      =      -0.0692654297930894 [Eh]
	 SCS Opposite-Spin Energy  =      -0.9522340746437514 [Eh]
	 SCS Correlation Energy    =      -1.0214995044368409 [Eh]
	 SCS Total Energy          =    -197.4239823437748385 [Eh]
	-----------------------------------------------------------

  Dipole Moment: [D]
     X:    -0.0001      Y:     0.0709      Z:    -0.0109     Total:     0.0718

*** Psi4 exiting successfully. Buy a developer a beer!
