                               Psi4 1.3.2 release

  ==> Input File <==

--------------------------------------------------------------------------
#psi4
#
memory 32 gb

molecule  {
0 1
  C        2.5428260    -0.3261640     0.0004000
  H        2.5791480    -0.9696020     0.8850690
  H        2.5787950    -0.9712350    -0.8831070
  H        3.4433220     0.2951360    -0.0003880
  C        1.2758620     0.5250290    -0.0000810
  H        1.2742200     1.1832430    -0.8780540
  H        1.2734520     1.1829250     0.8781380
  C        0.0000050    -0.3135590    -0.0008010
  H       -0.0000138    -1.0318254    -0.8322035
  H        0.0000540    -0.9738100     0.8773920
  C       -1.2758600     0.5250110     0.0000320
  H       -1.2742070     1.1833710    -0.8778340
  H       -1.2734650     1.1827700     0.8783550
  C       -2.5428310    -0.3261580     0.0003500
  H       -2.5791270    -0.9698370     0.8848460
  H       -3.4433120     0.2951650    -0.0002120
  H       -2.5788740    -0.9709940    -0.8833260
units angstrom
no_reorient  #important for SAPT in psi4, default
symmetry c1  #important for SAPT in psi4, default
}

set PROPERTIES_ORIGIN ["COM"]
properties('MP2/aug-cc-pvtz', properties = ['dipole'])
--------------------------------------------------------------------------

    Molecular point group: c1
  Charge       = 0
  Multiplicity = 1
  Basis Set: AUG-CC-PVTZ
    Blend: AUG-CC-PVTZ
  Basis Set: (AUG-CC-PVTZ AUX)
    Blend: AUG-CC-PVTZ-JKFIT

    Orbital Energies [Eh]
    ---------------------

    Doubly Occupied:

       1A    -11.215210     2A    -11.215155     3A    -11.212255
       4A    -11.209416     5A    -11.209415     6A     -1.078523
       7A     -1.013580     8A     -0.917440     9A     -0.818409
      10A     -0.785274    11A     -0.642503    12A     -0.596717
      13A     -0.591483    14A     -0.554987    15A     -0.546359
      16A     -0.522356    17A     -0.493710    18A     -0.475211
      19A     -0.464561    20A     -0.455067    21A     -0.446628

  @DF-RHF Final Energy:  -196.40329985190897

   => Energetics <=

    Nuclear Repulsion Energy =            184.9863034519644316
    One-Electron Energy =                -629.8506879173338575
    Two-Electron Energy =                 248.4610846134604571
    Total Energy =                       -196.4032998519089688
  Basis Set: (AUG-CC-PVTZ AUX)
    Blend: AUG-CC-PVTZ-RI
    Molecular point group: c1

    Geometry (in Angstrom), charge = 0, multiplicity = 1:

       Center              X                  Y                   Z               Mass
    ------------   -----------------  -----------------  -----------------  -----------------
         C            2.542825776140    -0.332278190709    -0.000263806329    12.000000000000
         H            2.579147776140    -0.975716190709     0.884405193671     1.007825032230
         H            2.578794776140    -0.977349190709    -0.883770806329     1.007825032230
         H            3.443321776140     0.289021809291    -0.001051806329     1.007825032230
         C            1.275861776140     0.518914809291    -0.000744806329    12.000000000000
         H            1.274219776140     1.177128809291    -0.878717806329     1.007825032230
         H            1.273451776140     1.176810809291     0.877474193671     1.007825032230
         C            0.000004776140    -0.319673190709    -0.001464806329    12.000000000000
         H           -0.000014023860    -1.037939590709    -0.832867306329     1.007825032230
         H            0.000053776140    -0.979924190709     0.876728193671     1.007825032230
         C           -1.275860223860     0.518896809291    -0.000631806329    12.000000000000
         H           -1.274207223860     1.177256809291    -0.878497806329     1.007825032230
         H           -1.273465223860     1.176655809291     0.877691193671     1.007825032230
         C           -2.542831223860    -0.332272190709    -0.000313806329    12.000000000000
         H           -2.579127223860    -0.975951190709     0.884182193671     1.007825032230
         H           -3.443312223860     0.289050809291    -0.000875806329     1.007825032230
         H           -2.578874223860    -0.977108190709    -0.883989806329     1.007825032230

  Basis Set: AUG-CC-PVTZ
    Blend: AUG-CC-PVTZ
  Basis Set: (AUG-CC-PVTZ AUX)
    Blend: AUG-CC-PVTZ-JKFIT
	 Reference Energy          =    -196.4032998519089688 [Eh]
	 Singles Energy            =      -0.0000000000000000 [Eh]
	 Same-Spin Energy          =      -0.2077284485779978 [Eh]
	 Opposite-Spin Energy      =      -0.7933047359679588 [Eh]
	 Correlation Energy        =      -1.0010331845459566 [Eh]
	 Total Energy              =    -197.4043330364549149 [Eh]

	 ================> DF-SCS-MP2 Energies <==================
	-----------------------------------------------------------
	 SCS Same-Spin Scale       =       0.3333333333333333 [-]
	 SCS Opposite-Spin Scale   =       1.2000000000000000 [-]
	 SCS Same-Spin Energy      =      -0.0692428161926659 [Eh]
	 SCS Opposite-Spin Energy  =      -0.9519656831615505 [Eh]
	 SCS Correlation Energy    =      -1.0212084993542163 [Eh]
	 SCS Total Energy          =    -197.4245083512631709 [Eh]
	-----------------------------------------------------------

  Dipole Moment: [D]
     X:    -0.0000      Y:     0.0759      Z:     0.0091     Total:     0.0764

*** Psi4 exiting successfully. Buy a developer a beer!
