                               Psi4 1.3.2 release

  ==> Input File <==

--------------------------------------------------------------------------
#psi4
#
memory 32 gb

molecule  {
0 1
  C        2.5428260    -0.3261640     0.0004000
  H        2.5122154    -0.9395576     0.9063704
  H        2.5787950    -0.9712350    -0.8831070
  H        3.4433220     0.2951360    -0.0003880
  C        1.2758620     0.5250290    -0.0000810
  H        1.2742200     1.1832430    -0.8780540
  H        1.2734520     1.1829250     0.8781380
  C        0.0000050    -0.3135590    -0.0008010
  H       -0.0000170    -0.9720800    -0.8802820
  H        0.0000540    -0.9738100     0.8773920
  C       -1.2758600     0.5250110     0.0000320
  H       -1.2742070     1.1833710    -0.8778340
  H       -1.2734650     1.1827700     0.8783550
  C       -2.5428310    -0.3261580     0.0003500
  H       -2.5791270    -0.9698370     0.8848460
  H       -3.4433120     0.2951650    -0.0002120
  H       -2.5788740    -0.9709940    -0.8833260
units angstrom
no_reorient  #important for SAPT in psi4, default
symmetry c1  #important for SAPT in psi4, default
}

set PROPERTIES_ORIGIN ["COM"]
properties('MP2/aug-cc-pvtz', properties = ['dipole'])
--------------------------------------------------------------------------

    Molecular point group: c1
  Charge       = 0
  Multiplicity = 1
  Basis Set: AUG-CC-PVTZ
    Blend: AUG-CC-PVTZ
  Basis Set: (AUG-CC-PVTZ AUX)
    Blend: AUG-CC-PVTZ-JKFIT

    Orbital Energies [Eh]
    ---------------------

    Doubly Occupied:

       1A    -11.214816     2A    -11.213949     3A    -11.212505
       4A    -11.209552     5A    -11.209399     6A     -1.079145
       7A     -1.014027     8A     -0.917309     9A     -0.817139
      10A     -0.782763    11A     -0.646033    12A     -0.597768
      13A     -0.592836    14A     -0.550945    15A     -0.547553
      16A     -0.525906    17A     -0.491534    18A     -0.475361
      19A     -0.460136    20A     -0.458381    21A     -0.446744

  @DF-RHF Final Energy:  -196.40316027058341

   => Energetics <=

    Nuclear Repulsion Energy =            185.1119751766933064
    One-Electron Energy =                -630.1026641793583849
    Two-Electron Energy =                 248.5875287320816653
    Total Energy =                       -196.4031602705834132
  Basis Set: (AUG-CC-PVTZ AUX)
    Blend: AUG-CC-PVTZ-RI
    Molecular point group: c1

    Geometry (in Angstrom), charge = 0, multiplicity = 1:

       Center              X                  Y                   Z               Mass
    ------------   -----------------  -----------------  -----------------  -----------------
         C            2.543761494341    -0.333533392711     0.000110519814    12.000000000000
         H            2.513150894341    -0.946926992711     0.906080919814     1.007825032230
         H            2.579730494341    -0.978604392711    -0.883396480186     1.007825032230
         H            3.444257494341     0.287766607289    -0.000677480186     1.007825032230
         C            1.276797494341     0.517659607289    -0.000370480186    12.000000000000
         H            1.275155494341     1.175873607289    -0.878343480186     1.007825032230
         H            1.274387494341     1.175555607289     0.877848519814     1.007825032230
         C            0.000940494341    -0.320928392711    -0.001090480186    12.000000000000
         H            0.000918494341    -0.979449392711    -0.880571480186     1.007825032230
         H            0.000989494341    -0.981179392711     0.877102519814     1.007825032230
         C           -1.274924505659     0.517641607289    -0.000257480186    12.000000000000
         H           -1.273271505659     1.176001607289    -0.878123480186     1.007825032230
         H           -1.272529505659     1.175400607289     0.878065519814     1.007825032230
         C           -2.541895505659    -0.333527392711     0.000060519814    12.000000000000
         H           -2.578191505659    -0.977206392711     0.884556519814     1.007825032230
         H           -3.442376505659     0.287795607289    -0.000501480186     1.007825032230
         H           -2.577938505659    -0.978363392711    -0.883615480186     1.007825032230

  Basis Set: AUG-CC-PVTZ
    Blend: AUG-CC-PVTZ
  Basis Set: (AUG-CC-PVTZ AUX)
    Blend: AUG-CC-PVTZ-JKFIT
	 Reference Energy          =    -196.4031602705834132 [Eh]
	 Singles Energy            =      -0.0000000000000000 [Eh]
	 Same-Spin Energy          =      -0.2077859275071057 [Eh]
	 Opposite-Spin Energy      =      -0.7934700570413560 [Eh]
	 Correlation Energy        =      -1.0012559845484617 [Eh]
	 Total Energy              =    -197.4044162551318777 [Eh]

	 ================> DF-SCS-MP2 Energies <==================
	-----------------------------------------------------------
	 SCS Same-Spin Scale       =       0.3333333333333333 [-]
	 SCS Opposite-Spin Scale   =       1.2000000000000000 [-]
	 SCS Same-Spin Energy      =      -0.0692619758357019 [Eh]
	 SCS Opposite-Spin Energy  =      -0.9521640684496271 [Eh]
	 SCS Correlation Energy    =      -1.0214260442853289 [Eh]
	 SCS Total Energy          =    -197.4245863148687476 [Eh]
	-----------------------------------------------------------

  Dipole Moment: [D]
     X:    -0.0095      Y:     0.0983      Z:    -0.0071     Total:     0.0990

*** Psi4 exiting successfully. Buy a developer a beer!
