                               Psi4 1.3.2 release

  ==> Input File <==

--------------------------------------------------------------------------
#psi4
#
memory 32 gb

molecule  {
0 1
  C        2.6248593    -0.1890673     0.0004579
  H        2.5791480    -0.9696020     0.8850690
  H        2.5787950    -0.9712350    -0.8831070
  H        3.4433220     0.2951360    -0.0003880
  C        1.2758620     0.5250290    -0.0000810
  H        1.2742200     1.1832430    -0.8780540
  H        1.2734520     1.1829250     0.8781380
  C        0.0000050    -0.3135590    -0.0008010
  H       -0.0000170    -0.9720800    -0.8802820
  H        0.0000540    -0.9738100     0.8773920
  C       -1.2758600     0.5250110     0.0000320
  H       -1.2742070     1.1833710    -0.8778340
  H       -1.2734650     1.1827700     0.8783550
  C       -2.5428310    -0.3261580     0.0003500
  H       -2.5791270    -0.9698370     0.8848460
  H       -3.4433120     0.2951650    -0.0002120
  H       -2.5788740    -0.9709940    -0.8833260
units angstrom
no_reorient  #important for SAPT in psi4, default
symmetry c1  #important for SAPT in psi4, default
}

set PROPERTIES_ORIGIN ["COM"]
properties('MP2/aug-cc-pvtz', properties = ['dipole'])
--------------------------------------------------------------------------

    Molecular point group: c1
  Charge       = 0
  Multiplicity = 1
  Basis Set: AUG-CC-PVTZ
    Blend: AUG-CC-PVTZ
  Basis Set: (AUG-CC-PVTZ AUX)
    Blend: AUG-CC-PVTZ-JKFIT

    Orbital Energies [Eh]
    ---------------------

    Doubly Occupied:

       1A    -11.217138     2A    -11.216861     3A    -11.216088
       4A    -11.214184     5A    -11.210790     6A     -1.079429
       7A     -1.015462     8A     -0.923553     9A     -0.822432
      10A     -0.783268    11A     -0.644105    12A     -0.616901
      13A     -0.584262    14A     -0.571858    15A     -0.549843
      16A     -0.512962    17A     -0.486166    18A     -0.465878
      19A     -0.465023    20A     -0.452680    21A     -0.445276

  @DF-RHF Final Energy:  -196.37234317804146

   => Energetics <=

    Nuclear Repulsion Energy =            184.5944322631970635
    One-Electron Energy =                -628.9452356398691109
    Two-Electron Energy =                 247.9784601986305859
    Total Energy =                       -196.3723431780414614
  Basis Set: (AUG-CC-PVTZ AUX)
    Blend: AUG-CC-PVTZ-RI
    Molecular point group: c1

    Geometry (in Angstrom), charge = 0, multiplicity = 1:

       Center              X                  Y                   Z               Mass
    ------------   -----------------  -----------------  -----------------  -----------------
         C            2.611204711905    -0.218836381075     0.000456561863    12.000000000000
         H            2.565493411905    -0.999371081075     0.885067661863     1.007825032230
         H            2.565140411905    -1.001004081075    -0.883108338137     1.007825032230
         H            3.429667411905     0.265366918925    -0.000389338137     1.007825032230
         C            1.262207411905     0.495259918925    -0.000082338137    12.000000000000
         H            1.260565411905     1.153473918925    -0.878055338137     1.007825032230
         H            1.259797411905     1.153155918925     0.878136661863     1.007825032230
         C           -0.013649588095    -0.343328081075    -0.000802338137    12.000000000000
         H           -0.013671588095    -1.001849081075    -0.880283338137     1.007825032230
         H           -0.013600588095    -1.003579081075     0.877390661863     1.007825032230
         C           -1.289514588095     0.495241918925     0.000030661863    12.000000000000
         H           -1.287861588095     1.153601918925    -0.877835338137     1.007825032230
         H           -1.287119588095     1.153000918925     0.878353661863     1.007825032230
         C           -2.556485588095    -0.355927081075     0.000348661863    12.000000000000
         H           -2.592781588095    -0.999606081075     0.884844661863     1.007825032230
         H           -3.456966588095     0.265395918925    -0.000213338137     1.007825032230
         H           -2.592528588095    -1.000763081075    -0.883327338137     1.007825032230

  Basis Set: AUG-CC-PVTZ
    Blend: AUG-CC-PVTZ
  Basis Set: (AUG-CC-PVTZ AUX)
    Blend: AUG-CC-PVTZ-JKFIT
	 Reference Energy          =    -196.3723431780414614 [Eh]
	 Singles Energy            =      -0.0000000000000000 [Eh]
	 Same-Spin Energy          =      -0.2080751178974382 [Eh]
	 Opposite-Spin Energy      =      -0.7945948099219837 [Eh]
	 Correlation Energy        =      -1.0026699278194218 [Eh]
	 Total Energy              =    -197.3750131058608872 [Eh]

	 ================> DF-SCS-MP2 Energies <==================
	-----------------------------------------------------------
	 SCS Same-Spin Scale       =       0.3333333333333333 [-]
	 SCS Opposite-Spin Scale   =       1.2000000000000000 [-]
	 SCS Same-Spin Energy      =      -0.0693583726324794 [Eh]
	 SCS Opposite-Spin Energy  =      -0.9535137719063804 [Eh]
	 SCS Correlation Energy    =      -1.0228721445388598 [Eh]
	 SCS Total Energy          =    -197.3952153225803272 [Eh]
	-----------------------------------------------------------

  Dipole Moment: [D]
     X:    -0.0752      Y:     0.1502      Z:     0.0000     Total:     0.1679

*** Psi4 exiting successfully. Buy a developer a beer!
