                               Psi4 1.4a3.dev225

  ==> Input File <==

--------------------------------------------------------------------------
#psi4
#
memory 32 gb

molecule  {
0 1
  C        2.5434150    -0.3258570     0.0000020
  H        2.5799190    -0.9700390     0.8840510
  H        2.5798870    -0.9701100    -0.8839970
  H        3.4436120     0.2958290    -0.0000390
  C        1.2759530     0.5247200    -0.0000120
  H        1.2739300     1.1828070    -0.8780290
  H        1.2739250     1.1828280     0.8779900
  C        0.0000000    -0.3137570    -0.0000050
  H       -0.0000059    -0.9612122    -0.8627386
  H        0.0000060    -0.9732200     0.8787230
  C       -1.2759530     0.5247200     0.0000030
  H       -1.2739340     1.1828180    -0.8780070
  H       -1.2739210     1.1828170     0.8780130
  C       -2.5434150    -0.3258570     0.0000110
  H       -2.5799100    -0.9700590     0.8840460
  H       -3.4436120     0.2958290    -0.0000090
  H       -2.5798950    -0.9700920    -0.8840020
units angstrom
no_reorient  #important for SAPT in psi4, default
symmetry c1  #important for SAPT in psi4, default
}

set PROPERTIES_ORIGIN ["COM"]
properties('MP2/aug-cc-pvtz', properties = ['dipole'])
--------------------------------------------------------------------------

    Molecular point group: c1
  Charge       = 0
  Multiplicity = 1
  Basis Set: AUG-CC-PVTZ
    Blend: AUG-CC-PVTZ
  Basis Set: (AUG-CC-PVTZ AUX)
    Blend: AUG-CC-PVTZ-JKFIT

    Orbital Energies [Eh]
    ---------------------

    Doubly Occupied:

       1A    -11.214541     2A    -11.214510     3A    -11.209938
       4A    -11.209355     5A    -11.209353     6A     -1.079291
       7A     -1.013453     8A     -0.918198     9A     -0.818246
      10A     -0.784627    11A     -0.646077    12A     -0.596577
      13A     -0.591426    14A     -0.553056    15A     -0.546376
      16A     -0.525902    17A     -0.493487    18A     -0.475093
      19A     -0.461281    20A     -0.458968    21A     -0.446487

  @DF-RHF Final Energy:  -196.40390353685495

   => Energetics <=

    Nuclear Repulsion Energy =            185.0950716380441179
    One-Electron Energy =                -630.0654685803775692
    Two-Electron Energy =                 248.5664934054784680
    Total Energy =                       -196.4039035368549548
  Basis Set: (AUG-CC-PVTZ AUX)
    Blend: AUG-CC-PVTZ-RI
    Molecular point group: c1

    Geometry (in Angstrom), charge = 0, multiplicity = 1:

       Center              X                  Y                   Z               Mass
    ------------   -----------------  -----------------  -----------------  -----------------
         C            2.543414984623    -0.332958508082    -0.000221522536    12.000000000000
         H            2.579918984623    -0.977140508082     0.883827477464     1.007825032230
         H            2.579886984623    -0.977211508082    -0.884220522536     1.007825032230
         H            3.443611984623     0.288727491918    -0.000262522536     1.007825032230
         C            1.275952984623     0.517618491918    -0.000235522536    12.000000000000
         H            1.273929984623     1.175705491918    -0.878252522536     1.007825032230
         H            1.273924984623     1.175726491918     0.877766477464     1.007825032230
         C           -0.000000015377    -0.320858508082    -0.000228522536    12.000000000000
         H           -0.000005915377    -0.968313708082    -0.862962122536     1.007825032230
         H            0.000005984623    -0.980321508082     0.878499477464     1.007825032230
         C           -1.275953015377     0.517618491918    -0.000220522536    12.000000000000
         H           -1.273934015377     1.175716491918    -0.878230522536     1.007825032230
         H           -1.273921015377     1.175715491918     0.877789477464     1.007825032230
         C           -2.543415015377    -0.332958508082    -0.000212522536    12.000000000000
         H           -2.579910015377    -0.977160508082     0.883822477464     1.007825032230
         H           -3.443612015377     0.288727491918    -0.000232522536     1.007825032230
         H           -2.579895015377    -0.977193508082    -0.884225522536     1.007825032230

  Basis Set: AUG-CC-PVTZ
    Blend: AUG-CC-PVTZ
  Basis Set: (AUG-CC-PVTZ AUX)
    Blend: AUG-CC-PVTZ-JKFIT
	 Reference Energy          =    -196.4039035368549548 [Eh]
	 Singles Energy            =      -0.0000000000000000 [Eh]
	 Same-Spin Energy          =      -0.2077090749792830 [Eh]
	 Opposite-Spin Energy      =      -0.7932025558585710 [Eh]
	 Correlation Energy        =      -1.0009116308378541 [Eh]
	 Total Energy              =    -197.4048151676928171 [Eh]

	 ================> DF-SCS-MP2 Energies <==================
	-----------------------------------------------------------
	 SCS Same-Spin Scale       =       0.3333333333333333 [-]
	 SCS Opposite-Spin Scale   =       1.2000000000000000 [-]
	 SCS Same-Spin Energy      =      -0.0692363583264276 [Eh]
	 SCS Opposite-Spin Energy  =      -0.9518430670302852 [Eh]
	 SCS Correlation Energy    =      -1.0210794253567128 [Eh]
	 SCS Total Energy          =    -197.4249829622116579 [Eh]
	-----------------------------------------------------------

  Dipole Moment: [D]
     X:     0.0000      Y:     0.0762      Z:    -0.0104     Total:     0.0769

*** Psi4 exiting successfully. Buy a developer a beer!
