                               Psi4 1.3.2 release

  ==> Input File <==

--------------------------------------------------------------------------
#psi4
#
memory 32 gb

molecule  {
0 1
  C        2.5428260    -0.3261640     0.0004000
  H        2.5791480    -0.9696020     0.8850690
  H        2.5787950    -0.9712350    -0.8831070
  H        3.4433220     0.2951360    -0.0003880
  C        1.2758620     0.5250290    -0.0000810
  H        1.2739163     1.2714099    -0.8044421
  H        1.2734520     1.1829250     0.8781380
  C        0.0000050    -0.3135590    -0.0008010
  H       -0.0000170    -0.9720800    -0.8802820
  H        0.0000540    -0.9738100     0.8773920
  C       -1.2758600     0.5250110     0.0000320
  H       -1.2742070     1.1833710    -0.8778340
  H       -1.2734650     1.1827700     0.8783550
  C       -2.5428310    -0.3261580     0.0003500
  H       -2.5791270    -0.9698370     0.8848460
  H       -3.4433120     0.2951650    -0.0002120
  H       -2.5788740    -0.9709940    -0.8833260
units angstrom
no_reorient  #important for SAPT in psi4, default
symmetry c1  #important for SAPT in psi4, default
}

set PROPERTIES_ORIGIN ["COM"]
properties('MP2/aug-cc-pvtz', properties = ['dipole'])
--------------------------------------------------------------------------

    Molecular point group: c1
  Charge       = 0
  Multiplicity = 1
  Basis Set: AUG-CC-PVTZ
    Blend: AUG-CC-PVTZ
  Basis Set: (AUG-CC-PVTZ AUX)
    Blend: AUG-CC-PVTZ-JKFIT

    Orbital Energies [Eh]
    ---------------------

    Doubly Occupied:

       1A    -11.214858     2A    -11.214526     3A    -11.213054
       4A    -11.210016     5A    -11.209403     6A     -1.078521
       7A     -1.013300     8A     -0.917607     9A     -0.819286
      10A     -0.785383    11A     -0.642287    12A     -0.598668
      13A     -0.588457    14A     -0.552863    15A     -0.546519
      16A     -0.524920    17A     -0.497007    18A     -0.472214
      19A     -0.464411    20A     -0.454468    21A     -0.446722

  @DF-RHF Final Energy:  -196.40255598853867

   => Energetics <=

    Nuclear Repulsion Energy =            184.9657492770893441
    One-Electron Energy =                -629.8076278577625544
    Two-Electron Energy =                 248.4393225921345447
    Total Energy =                       -196.4025559885386656
  Basis Set: (AUG-CC-PVTZ AUX)
    Blend: AUG-CC-PVTZ-RI
    Molecular point group: c1

    Geometry (in Angstrom), charge = 0, multiplicity = 1:

       Center              X                  Y                   Z               Mass
    ------------   -----------------  -----------------  -----------------  -----------------
         C            2.542830066399    -0.334345906809    -0.000620746369    12.000000000000
         H            2.579152066399    -0.977783906809     0.884048253631     1.007825032230
         H            2.578799066399    -0.979416906809    -0.884127746369     1.007825032230
         H            3.443326066399     0.286954093191    -0.001408746369     1.007825032230
         C            1.275866066399     0.516847093191    -0.001101746369    12.000000000000
         H            1.273920366399     1.263227993191    -0.805462846369     1.007825032230
         H            1.273456066399     1.174743093191     0.877117253631     1.007825032230
         C            0.000009066399    -0.321740906809    -0.001821746369    12.000000000000
         H           -0.000012933601    -0.980261906809    -0.881302746369     1.007825032230
         H            0.000058066399    -0.981991906809     0.876371253631     1.007825032230
         C           -1.275855933601     0.516829093191    -0.000988746369    12.000000000000
         H           -1.274202933601     1.175189093191    -0.878854746369     1.007825032230
         H           -1.273460933601     1.174588093191     0.877334253631     1.007825032230
         C           -2.542826933601    -0.334339906809    -0.000670746369    12.000000000000
         H           -2.579122933601    -0.978018906809     0.883825253631     1.007825032230
         H           -3.443307933601     0.286983093191    -0.001232746369     1.007825032230
         H           -2.578869933601    -0.979175906809    -0.884346746369     1.007825032230

  Basis Set: AUG-CC-PVTZ
    Blend: AUG-CC-PVTZ
  Basis Set: (AUG-CC-PVTZ AUX)
    Blend: AUG-CC-PVTZ-JKFIT
	 Reference Energy          =    -196.4025559885386656 [Eh]
	 Singles Energy            =      -0.0000000000000000 [Eh]
	 Same-Spin Energy          =      -0.2077596952176193 [Eh]
	 Opposite-Spin Energy      =      -0.7933365498269487 [Eh]
	 Correlation Energy        =      -1.0010962450445680 [Eh]
	 Total Energy              =    -197.4036522335832444 [Eh]

	 ================> DF-SCS-MP2 Energies <==================
	-----------------------------------------------------------
	 SCS Same-Spin Scale       =       0.3333333333333333 [-]
	 SCS Opposite-Spin Scale   =       1.2000000000000000 [-]
	 SCS Same-Spin Energy      =      -0.0692532317392064 [Eh]
	 SCS Opposite-Spin Energy  =      -0.9520038597923384 [Eh]
	 SCS Correlation Energy    =      -1.0212570915315449 [Eh]
	 SCS Total Energy          =    -197.4238130800702038 [Eh]
	-----------------------------------------------------------

  Dipole Moment: [D]
     X:    -0.0004      Y:     0.1061      Z:     0.0172     Total:     0.1075

*** Psi4 exiting successfully. Buy a developer a beer!
