                               Psi4 1.3.2 release

  ==> Input File <==

--------------------------------------------------------------------------
#psi4
#
memory 32 gb

molecule  {
0 1
  C        2.5428260    -0.3261640     0.0004000
  H        2.5800045    -0.9849195     0.8736868
  H        2.5787950    -0.9712350    -0.8831070
  H        3.4433220     0.2951360    -0.0003880
  C        1.2758620     0.5250290    -0.0000810
  H        1.2742200     1.1832430    -0.8780540
  H        1.2734520     1.1829250     0.8781380
  C        0.0000050    -0.3135590    -0.0008010
  H       -0.0000170    -0.9720800    -0.8802820
  H        0.0000540    -0.9738100     0.8773920
  C       -1.2758600     0.5250110     0.0000320
  H       -1.2742070     1.1833710    -0.8778340
  H       -1.2734650     1.1827700     0.8783550
  C       -2.5428310    -0.3261580     0.0003500
  H       -2.5791270    -0.9698370     0.8848460
  H       -3.4433120     0.2951650    -0.0002120
  H       -2.5788740    -0.9709940    -0.8833260
units angstrom
no_reorient  #important for SAPT in psi4, default
symmetry c1  #important for SAPT in psi4, default
}

set PROPERTIES_ORIGIN ["COM"]
properties('MP2/aug-cc-pvtz', properties = ['dipole'])
--------------------------------------------------------------------------

    Molecular point group: c1
  Charge       = 0
  Multiplicity = 1
  Basis Set: AUG-CC-PVTZ
    Blend: AUG-CC-PVTZ
  Basis Set: (AUG-CC-PVTZ AUX)
    Blend: AUG-CC-PVTZ-JKFIT

    Orbital Energies [Eh]
    ---------------------

    Doubly Occupied:

       1A    -11.214918     2A    -11.214785     3A    -11.212480
       4A    -11.209393     5A    -11.209353     6A     -1.078854
       7A     -1.013515     8A     -0.917545     9A     -0.818512
      10A     -0.783245    11A     -0.645101    12A     -0.596914
      13A     -0.590925    14A     -0.553162    15A     -0.546397
      16A     -0.524214    17A     -0.494250    18A     -0.474787
      19A     -0.461074    20A     -0.458257    21A     -0.446639

  @DF-RHF Final Energy:  -196.40383708998769

   => Energetics <=

    Nuclear Repulsion Energy =            185.0115773974684430
    One-Electron Energy =                -629.9021897575059938
    Two-Electron Energy =                 248.4867752700498613
    Total Energy =                       -196.4038370899876895
  Basis Set: (AUG-CC-PVTZ AUX)
    Blend: AUG-CC-PVTZ-RI
    Molecular point group: c1

    Geometry (in Angstrom), charge = 0, multiplicity = 1:

       Center              X                  Y                   Z               Mass
    ------------   -----------------  -----------------  -----------------  -----------------
         C            2.542813847570    -0.332899263359     0.000567414920    12.000000000000
         H            2.579992347570    -0.991654763359     0.873854214920     1.007825032230
         H            2.578782847570    -0.977970263359    -0.882939585080     1.007825032230
         H            3.443309847570     0.288400736641    -0.000220585080     1.007825032230
         C            1.275849847570     0.518293736641     0.000086414920    12.000000000000
         H            1.274207847570     1.176507736641    -0.877886585080     1.007825032230
         H            1.273439847570     1.176189736641     0.878305414920     1.007825032230
         C           -0.000007152430    -0.320294263359    -0.000633585080    12.000000000000
         H           -0.000029152430    -0.978815263359    -0.880114585080     1.007825032230
         H            0.000041847570    -0.980545263359     0.877559414920     1.007825032230
         C           -1.275872152430     0.518275736641     0.000199414920    12.000000000000
         H           -1.274219152430     1.176635736641    -0.877666585080     1.007825032230
         H           -1.273477152430     1.176034736641     0.878522414920     1.007825032230
         C           -2.542843152430    -0.332893263359     0.000517414920    12.000000000000
         H           -2.579139152430    -0.976572263359     0.885013414920     1.007825032230
         H           -3.443324152430     0.288429736641    -0.000044585080     1.007825032230
         H           -2.578886152430    -0.977729263359    -0.883158585080     1.007825032230

  Basis Set: AUG-CC-PVTZ
    Blend: AUG-CC-PVTZ
  Basis Set: (AUG-CC-PVTZ AUX)
    Blend: AUG-CC-PVTZ-JKFIT
	 Reference Energy          =    -196.4038370899876895 [Eh]
	 Singles Energy            =      -0.0000000000000000 [Eh]
	 Same-Spin Energy          =      -0.2077163846309651 [Eh]
	 Opposite-Spin Energy      =      -0.7933207475352740 [Eh]
	 Correlation Energy        =      -1.0010371321662392 [Eh]
	 Total Energy              =    -197.4048742221539214 [Eh]

	 ================> DF-SCS-MP2 Energies <==================
	-----------------------------------------------------------
	 SCS Same-Spin Scale       =       0.3333333333333333 [-]
	 SCS Opposite-Spin Scale   =       1.2000000000000000 [-]
	 SCS Same-Spin Energy      =      -0.0692387948769884 [Eh]
	 SCS Opposite-Spin Energy  =      -0.9519848970423288 [Eh]
	 SCS Correlation Energy    =      -1.0212236919193172 [Eh]
	 SCS Total Energy          =    -197.4250607819070069 [Eh]
	-----------------------------------------------------------

  Dipole Moment: [D]
     X:    -0.0019      Y:     0.0837      Z:    -0.0021     Total:     0.0837

*** Psi4 exiting successfully. Buy a developer a beer!
