                               Psi4 1.4a3.dev225

  ==> Input File <==

--------------------------------------------------------------------------
#psi4
#
memory 32 gb

molecule  {
0 1
  C        2.5434150    -0.3258570     0.0000020
  H        2.5792519    -0.9582673     0.8678960
  H        2.5798870    -0.9701100    -0.8839970
  H        3.4436120     0.2958290    -0.0000390
  C        1.2759530     0.5247200    -0.0000120
  H        1.2739300     1.1828070    -0.8780290
  H        1.2739250     1.1828280     0.8779900
  C        0.0000000    -0.3137570    -0.0000050
  H       -0.0000060    -0.9732170    -0.8787350
  H        0.0000060    -0.9732200     0.8787230
  C       -1.2759530     0.5247200     0.0000030
  H       -1.2739340     1.1828180    -0.8780070
  H       -1.2739210     1.1828170     0.8780130
  C       -2.5434150    -0.3258570     0.0000110
  H       -2.5799100    -0.9700590     0.8840460
  H       -3.4436120     0.2958290    -0.0000090
  H       -2.5798950    -0.9700920    -0.8840020
units angstrom
no_reorient  #important for SAPT in psi4, default
symmetry c1  #important for SAPT in psi4, default
}

set PROPERTIES_ORIGIN ["COM"]
properties('MP2/aug-cc-pvtz', properties = ['dipole'])
--------------------------------------------------------------------------

    Molecular point group: c1
  Charge       = 0
  Multiplicity = 1
  Basis Set: AUG-CC-PVTZ
    Blend: AUG-CC-PVTZ
  Basis Set: (AUG-CC-PVTZ AUX)
    Blend: AUG-CC-PVTZ-JKFIT

    Orbital Energies [Eh]
    ---------------------

    Doubly Occupied:

       1A    -11.214757     2A    -11.214530     3A    -11.212424
       4A    -11.209352     5A    -11.206839     6A     -1.078910
       7A     -1.013989     8A     -0.918363     9A     -0.819077
      10A     -0.783288    11A     -0.645455    12A     -0.596766
      13A     -0.592249    14A     -0.553049    15A     -0.546251
      16A     -0.526025    17A     -0.493867    18A     -0.475738
      19A     -0.460775    20A     -0.458340    21A     -0.446578

  @DF-RHF Final Energy:  -196.40386760008727

   => Energetics <=

    Nuclear Repulsion Energy =            185.0847058788156971
    One-Electron Energy =                -630.0439087792321970
    Two-Electron Energy =                 248.5553353003292045
    Total Energy =                       -196.4038676000872670
  Basis Set: (AUG-CC-PVTZ AUX)
    Blend: AUG-CC-PVTZ-RI
    Molecular point group: c1

    Geometry (in Angstrom), charge = 0, multiplicity = 1:

       Center              X                  Y                   Z               Mass
    ------------   -----------------  -----------------  -----------------  -----------------
         C            2.543424311637    -0.332955249499     0.000227932765    12.000000000000
         H            2.579261211637    -0.965365549499     0.868121932765     1.007825032230
         H            2.579896311637    -0.977208249499    -0.883771067235     1.007825032230
         H            3.443621311637     0.288730750501     0.000186932765     1.007825032230
         C            1.275962311637     0.517621750501     0.000213932765    12.000000000000
         H            1.273939311637     1.175708750501    -0.877803067235     1.007825032230
         H            1.273934311637     1.175729750501     0.878215932765     1.007825032230
         C            0.000009311637    -0.320855249499     0.000220932765    12.000000000000
         H            0.000003311637    -0.980315249499    -0.878509067235     1.007825032230
         H            0.000015311637    -0.980318249499     0.878948932765     1.007825032230
         C           -1.275943688363     0.517621750501     0.000228932765    12.000000000000
         H           -1.273924688363     1.175719750501    -0.877781067235     1.007825032230
         H           -1.273911688363     1.175718750501     0.878238932765     1.007825032230
         C           -2.543405688363    -0.332955249499     0.000236932765    12.000000000000
         H           -2.579900688363    -0.977157249499     0.884271932765     1.007825032230
         H           -3.443602688363     0.288730750501     0.000216932765     1.007825032230
         H           -2.579885688363    -0.977190249499    -0.883776067235     1.007825032230

  Basis Set: AUG-CC-PVTZ
    Blend: AUG-CC-PVTZ
  Basis Set: (AUG-CC-PVTZ AUX)
    Blend: AUG-CC-PVTZ-JKFIT
	 Reference Energy          =    -196.4038676000872670 [Eh]
	 Singles Energy            =      -0.0000000000000000 [Eh]
	 Same-Spin Energy          =      -0.2077260021080871 [Eh]
	 Opposite-Spin Energy      =      -0.7932179492837166 [Eh]
	 Correlation Energy        =      -1.0009439513918037 [Eh]
	 Total Energy              =    -197.4048115514790709 [Eh]

	 ================> DF-SCS-MP2 Energies <==================
	-----------------------------------------------------------
	 SCS Same-Spin Scale       =       0.3333333333333333 [-]
	 SCS Opposite-Spin Scale   =       1.2000000000000000 [-]
	 SCS Same-Spin Energy      =      -0.0692420007026957 [Eh]
	 SCS Opposite-Spin Energy  =      -0.9518615391404599 [Eh]
	 SCS Correlation Energy    =      -1.0211035398431556 [Eh]
	 SCS Total Energy          =    -197.4249711399304203 [Eh]
	-----------------------------------------------------------

  Dipole Moment: [D]
     X:     0.0039      Y:     0.0786      Z:     0.0098     Total:     0.0793

*** Psi4 exiting successfully. Buy a developer a beer!
