                               Psi4 1.3.2 release

  ==> Input File <==

--------------------------------------------------------------------------
#psi4
#
memory 32 gb

molecule  {
0 1
  C        2.5428260    -0.3261640     0.0004000
  H        2.5791480    -0.9696020     0.8850690
  H        2.5787950    -0.9712350    -0.8831070
  H        3.4433220     0.2951360    -0.0003880
  C        1.2758620     0.5250290    -0.0000810
  H        1.2742200     1.1832430    -0.8780540
  H        1.2734520     1.1829250     0.8781380
  C        0.0000050    -0.3135590    -0.0008010
  H       -0.0000150    -0.9121435    -0.8002344
  H        0.0000540    -0.9738100     0.8773920
  C       -1.2758600     0.5250110     0.0000320
  H       -1.2742070     1.1833710    -0.8778340
  H       -1.2734650     1.1827700     0.8783550
  C       -2.5428310    -0.3261580     0.0003500
  H       -2.5791270    -0.9698370     0.8848460
  H       -3.4433120     0.2951650    -0.0002120
  H       -2.5788740    -0.9709940    -0.8833260
units angstrom
no_reorient  #important for SAPT in psi4, default
symmetry c1  #important for SAPT in psi4, default
}

set PROPERTIES_ORIGIN ["COM"]
properties('MP2/aug-cc-pvtz', properties = ['dipole'])
--------------------------------------------------------------------------

    Molecular point group: c1
  Charge       = 0
  Multiplicity = 1
  Basis Set: AUG-CC-PVTZ
    Blend: AUG-CC-PVTZ
  Basis Set: (AUG-CC-PVTZ AUX)
    Blend: AUG-CC-PVTZ-JKFIT

    Orbital Energies [Eh]
    ---------------------

    Doubly Occupied:

       1A    -11.213670     2A    -11.213667     3A    -11.209295
       4A    -11.209295     5A    -11.199503     6A     -1.081772
       7A     -1.013137     8A     -0.921295     9A     -0.817755
      10A     -0.791576    11A     -0.649630    12A     -0.596256
      13A     -0.591157    14A     -0.555104    15A     -0.546960
      16A     -0.529197    17A     -0.493234    18A     -0.474761
      19A     -0.465371    20A     -0.458948    21A     -0.445597

  @DF-RHF Final Energy:  -196.39807185799850

   => Energetics <=

    Nuclear Repulsion Energy =            185.4827062917299259
    One-Electron Energy =                -630.8072011455890333
    Two-Electron Energy =                 248.9264229958606052
    Total Energy =                       -196.3980718579985023
  Basis Set: (AUG-CC-PVTZ AUX)
    Blend: AUG-CC-PVTZ-RI
    Molecular point group: c1

    Geometry (in Angstrom), charge = 0, multiplicity = 1:

       Center              X                  Y                   Z               Mass
    ------------   -----------------  -----------------  -----------------  -----------------
         C            2.542825792915    -0.333951264493    -0.000710713197    12.000000000000
         H            2.579147792915    -0.977389264493     0.883958286803     1.007825032230
         H            2.578794792915    -0.979022264493    -0.884217713197     1.007825032230
         H            3.443321792915     0.287348735507    -0.001498713197     1.007825032230
         C            1.275861792915     0.517241735507    -0.001191713197    12.000000000000
         H            1.274219792915     1.175455735507    -0.879164713197     1.007825032230
         H            1.273451792915     1.175137735507     0.877027286803     1.007825032230
         C            0.000004792915    -0.321346264493    -0.001911713197    12.000000000000
         H           -0.000015207085    -0.919930764493    -0.801345113197     1.007825032230
         H            0.000053792915    -0.981597264493     0.876281286803     1.007825032230
         C           -1.275860207085     0.517223735507    -0.001078713197    12.000000000000
         H           -1.274207207085     1.175583735507    -0.878944713197     1.007825032230
         H           -1.273465207085     1.174982735507     0.877244286803     1.007825032230
         C           -2.542831207085    -0.333945264493    -0.000760713197    12.000000000000
         H           -2.579127207085    -0.977624264493     0.883735286803     1.007825032230
         H           -3.443312207085     0.287377735507    -0.001322713197     1.007825032230
         H           -2.578874207085    -0.978781264493    -0.884436713197     1.007825032230

  Basis Set: AUG-CC-PVTZ
    Blend: AUG-CC-PVTZ
  Basis Set: (AUG-CC-PVTZ AUX)
    Blend: AUG-CC-PVTZ-JKFIT
	 Reference Energy          =    -196.3980718579985023 [Eh]
	 Singles Energy            =      -0.0000000000000000 [Eh]
	 Same-Spin Energy          =      -0.2077097964457519 [Eh]
	 Opposite-Spin Energy      =      -0.7928483975364216 [Eh]
	 Correlation Energy        =      -1.0005581939821735 [Eh]
	 Total Energy              =    -197.3986300519806889 [Eh]

	 ================> DF-SCS-MP2 Energies <==================
	-----------------------------------------------------------
	 SCS Same-Spin Scale       =       0.3333333333333333 [-]
	 SCS Opposite-Spin Scale   =       1.2000000000000000 [-]
	 SCS Same-Spin Energy      =      -0.0692365988152506 [Eh]
	 SCS Opposite-Spin Energy  =      -0.9514180770437058 [Eh]
	 SCS Correlation Energy    =      -1.0206546758589565 [Eh]
	 SCS Total Energy          =    -197.4187265338574662 [Eh]
	-----------------------------------------------------------

  Dipole Moment: [D]
     X:    -0.0000      Y:     0.0365      Z:    -0.0463     Total:     0.0590

*** Psi4 exiting successfully. Buy a developer a beer!
