                               Psi4 1.3.2 release

  ==> Input File <==

--------------------------------------------------------------------------
#psi4
#
memory 32 gb

molecule  {
0 1
  C        2.5428260    -0.3261640     0.0004000
  H        2.5825051    -1.0296497     0.8379586
  H        2.5787950    -0.9712350    -0.8831070
  H        3.4433220     0.2951360    -0.0003880
  C        1.2758620     0.5250290    -0.0000810
  H        1.2742200     1.1832430    -0.8780540
  H        1.2734520     1.1829250     0.8781380
  C        0.0000050    -0.3135590    -0.0008010
  H       -0.0000170    -0.9720800    -0.8802820
  H        0.0000540    -0.9738100     0.8773920
  C       -1.2758600     0.5250110     0.0000320
  H       -1.2742070     1.1833710    -0.8778340
  H       -1.2734650     1.1827700     0.8783550
  C       -2.5428310    -0.3261580     0.0003500
  H       -2.5791270    -0.9698370     0.8848460
  H       -3.4433120     0.2951650    -0.0002120
  H       -2.5788740    -0.9709940    -0.8833260
units angstrom
no_reorient  #important for SAPT in psi4, default
symmetry c1  #important for SAPT in psi4, default
}

set PROPERTIES_ORIGIN ["COM"]
properties('MP2/aug-cc-pvtz', properties = ['dipole'])
--------------------------------------------------------------------------

    Molecular point group: c1
  Charge       = 0
  Multiplicity = 1
  Basis Set: AUG-CC-PVTZ
    Blend: AUG-CC-PVTZ
  Basis Set: (AUG-CC-PVTZ AUX)
    Blend: AUG-CC-PVTZ-JKFIT

    Orbital Energies [Eh]
    ---------------------

    Doubly Occupied:

       1A    -11.215301     2A    -11.214835     3A    -11.212558
       4A    -11.209428     5A    -11.209274     6A     -1.078850
       7A     -1.013418     8A     -0.917615     9A     -0.819070
      10A     -0.783650    11A     -0.644597    12A     -0.597635
      13A     -0.589259    14A     -0.554600    15A     -0.546981
      16A     -0.522007    17A     -0.496170    18A     -0.473427
      19A     -0.461756    20A     -0.457948    21A     -0.446692

  @DF-RHF Final Energy:  -196.40333697846134

   => Energetics <=

    Nuclear Repulsion Energy =            184.9953544813446058
    One-Electron Energy =                -629.8672427283534034
    Two-Electron Energy =                 248.4685512685474293
    Total Energy =                       -196.4033369784613399
  Basis Set: (AUG-CC-PVTZ AUX)
    Blend: AUG-CC-PVTZ-RI
    Molecular point group: c1

    Geometry (in Angstrom), charge = 0, multiplicity = 1:

       Center              X                  Y                   Z               Mass
    ------------   -----------------  -----------------  -----------------  -----------------
         C            2.542778890837    -0.332273964755     0.001066871519    12.000000000000
         H            2.582457990837    -1.035759664755     0.838625471519     1.007825032230
         H            2.578747890837    -0.977344964755    -0.882440128481     1.007825032230
         H            3.443274890837     0.289026035245     0.000278871519     1.007825032230
         C            1.275814890837     0.518919035245     0.000585871519    12.000000000000
         H            1.274172890837     1.177133035245    -0.877387128481     1.007825032230
         H            1.273404890837     1.176815035245     0.878804871519     1.007825032230
         C           -0.000042109163    -0.319668964755    -0.000134128481    12.000000000000
         H           -0.000064109163    -0.978189964755    -0.879615128481     1.007825032230
         H            0.000006890837    -0.979919964755     0.878058871519     1.007825032230
         C           -1.275907109163     0.518901035245     0.000698871519    12.000000000000
         H           -1.274254109163     1.177261035245    -0.877167128481     1.007825032230
         H           -1.273512109163     1.176660035245     0.879021871519     1.007825032230
         C           -2.542878109163    -0.332267964755     0.001016871519    12.000000000000
         H           -2.579174109163    -0.975946964755     0.885512871519     1.007825032230
         H           -3.443359109163     0.289055035245     0.000454871519     1.007825032230
         H           -2.578921109163    -0.977103964755    -0.882659128481     1.007825032230

  Basis Set: AUG-CC-PVTZ
    Blend: AUG-CC-PVTZ
  Basis Set: (AUG-CC-PVTZ AUX)
    Blend: AUG-CC-PVTZ-JKFIT
	 Reference Energy          =    -196.4033369784613399 [Eh]
	 Singles Energy            =      -0.0000000000000000 [Eh]
	 Same-Spin Energy          =      -0.2077335876224962 [Eh]
	 Opposite-Spin Energy      =      -0.7933275960016469 [Eh]
	 Correlation Energy        =      -1.0010611836241432 [Eh]
	 Total Energy              =    -197.4043981620854709 [Eh]

	 ================> DF-SCS-MP2 Energies <==================
	-----------------------------------------------------------
	 SCS Same-Spin Scale       =       0.3333333333333333 [-]
	 SCS Opposite-Spin Scale   =       1.2000000000000000 [-]
	 SCS Same-Spin Energy      =      -0.0692445292074987 [Eh]
	 SCS Opposite-Spin Energy  =      -0.9519931152019763 [Eh]
	 SCS Correlation Energy    =      -1.0212376444094751 [Eh]
	 SCS Total Energy          =    -197.4245746228708072 [Eh]
	-----------------------------------------------------------

  Dipole Moment: [D]
     X:    -0.0078      Y:     0.0717      Z:    -0.0095     Total:     0.0727

*** Psi4 exiting successfully. Buy a developer a beer!
