                               Psi4 1.3.2 release

  ==> Input File <==

--------------------------------------------------------------------------
#psi4
#
memory 32 gb

molecule  {
0 1
  C        2.5428260    -0.3261640     0.0004000
  H        2.5791480    -0.9696020     0.8850690
  H        2.5787950    -0.9712350    -0.8831070
  H        3.4433220     0.2951360    -0.0003880
  C        1.2610323     0.5471680    -0.0000598
  H        1.2742200     1.1832430    -0.8780540
  H        1.2734520     1.1829250     0.8781380
  C        0.0000050    -0.3135590    -0.0008010
  H       -0.0000170    -0.9720800    -0.8802820
  H        0.0000540    -0.9738100     0.8773920
  C       -1.2758600     0.5250110     0.0000320
  H       -1.2742070     1.1833710    -0.8778340
  H       -1.2734650     1.1827700     0.8783550
  C       -2.5428310    -0.3261580     0.0003500
  H       -2.5791270    -0.9698370     0.8848460
  H       -3.4433120     0.2951650    -0.0002120
  H       -2.5788740    -0.9709940    -0.8833260
units angstrom
no_reorient  #important for SAPT in psi4, default
symmetry c1  #important for SAPT in psi4, default
}

set PROPERTIES_ORIGIN ["COM"]
properties('MP2/aug-cc-pvtz', properties = ['dipole'])
--------------------------------------------------------------------------

    Molecular point group: c1
  Charge       = 0
  Multiplicity = 1
  Basis Set: AUG-CC-PVTZ
    Blend: AUG-CC-PVTZ
  Basis Set: (AUG-CC-PVTZ AUX)
    Blend: AUG-CC-PVTZ-JKFIT

    Orbital Energies [Eh]
    ---------------------

    Doubly Occupied:

       1A    -11.214288     2A    -11.213781     3A    -11.212362
       4A    -11.209905     5A    -11.209039     6A     -1.078072
       7A     -1.010876     8A     -0.916106     9A     -0.819388
      10A     -0.784652    11A     -0.646215    12A     -0.595284
      13A     -0.591672    14A     -0.551311    15A     -0.544019
      16A     -0.524597    17A     -0.492340    18A     -0.478732
      19A     -0.462749    20A     -0.460656    21A     -0.442328

  @DF-RHF Final Energy:  -196.40340314524207

   => Energetics <=

    Nuclear Repulsion Energy =            184.9104869617015368
    One-Electron Energy =                -629.7110350246820190
    Two-Electron Energy =                 248.3971449177384443
    Total Energy =                       -196.4034031452420663
  Basis Set: (AUG-CC-PVTZ AUX)
    Blend: AUG-CC-PVTZ-RI
    Molecular point group: c1

    Geometry (in Angstrom), charge = 0, multiplicity = 1:

       Center              X                  Y                   Z               Mass
    ------------   -----------------  -----------------  -----------------  -----------------
         C            2.545294218325    -0.336798419299     0.000404770562    12.000000000000
         H            2.581616218325    -0.980236419299     0.885073770562     1.007825032230
         H            2.581263218325    -0.981869419299    -0.883102229438     1.007825032230
         H            3.445790218325     0.284501580701    -0.000383229438     1.007825032230
         C            1.263500518325     0.536533580701    -0.000055029438    12.000000000000
         H            1.276688218325     1.172608580701    -0.878049229438     1.007825032230
         H            1.275920218325     1.172290580701     0.878142770562     1.007825032230
         C            0.002473218325    -0.324193419299    -0.000796229438    12.000000000000
         H            0.002451218325    -0.982714419299    -0.880277229438     1.007825032230
         H            0.002522218325    -0.984444419299     0.877396770562     1.007825032230
         C           -1.273391781675     0.514376580701     0.000036770562    12.000000000000
         H           -1.271738781675     1.172736580701    -0.877829229438     1.007825032230
         H           -1.270996781675     1.172135580701     0.878359770562     1.007825032230
         C           -2.540362781675    -0.336792419299     0.000354770562    12.000000000000
         H           -2.576658781675    -0.980471419299     0.884850770562     1.007825032230
         H           -3.440843781675     0.284530580701    -0.000207229438     1.007825032230
         H           -2.576405781675    -0.981628419299    -0.883321229438     1.007825032230

  Basis Set: AUG-CC-PVTZ
    Blend: AUG-CC-PVTZ
  Basis Set: (AUG-CC-PVTZ AUX)
    Blend: AUG-CC-PVTZ-JKFIT
	 Reference Energy          =    -196.4034031452420663 [Eh]
	 Singles Energy            =      -0.0000000000000000 [Eh]
	 Same-Spin Energy          =      -0.2076073346742900 [Eh]
	 Opposite-Spin Energy      =      -0.7932617879070933 [Eh]
	 Correlation Energy        =      -1.0008691225813835 [Eh]
	 Total Energy              =    -197.4042722678234441 [Eh]

	 ================> DF-SCS-MP2 Energies <==================
	-----------------------------------------------------------
	 SCS Same-Spin Scale       =       0.3333333333333333 [-]
	 SCS Opposite-Spin Scale   =       1.2000000000000000 [-]
	 SCS Same-Spin Energy      =      -0.0692024448914300 [Eh]
	 SCS Opposite-Spin Energy  =      -0.9519141454885119 [Eh]
	 SCS Correlation Energy    =      -1.0211165903799420 [Eh]
	 SCS Total Energy          =    -197.4245197356219990 [Eh]
	-----------------------------------------------------------

  Dipole Moment: [D]
     X:    -0.0040      Y:     0.0981      Z:    -0.0001     Total:     0.0981

*** Psi4 exiting successfully. Buy a developer a beer!
