                               Psi4 1.3.2 release

  ==> Input File <==

--------------------------------------------------------------------------
#psi4
#
memory 32 gb

molecule  {
0 1
  C        2.5428260    -0.3261640     0.0004000
  H        2.5791480    -0.9696020     0.8850690
  H        2.5787950    -0.9712350    -0.8831070
  H        3.4433220     0.2951360    -0.0003880
  C        1.4418748     0.4134955    -0.0000180
  H        1.2742200     1.1832430    -0.8780540
  H        1.2734520     1.1829250     0.8781380
  C        0.0000050    -0.3135590    -0.0008010
  H       -0.0000170    -0.9720800    -0.8802820
  H        0.0000540    -0.9738100     0.8773920
  C       -1.2758600     0.5250110     0.0000320
  H       -1.2742070     1.1833710    -0.8778340
  H       -1.2734650     1.1827700     0.8783550
  C       -2.5428310    -0.3261580     0.0003500
  H       -2.5791270    -0.9698370     0.8848460
  H       -3.4433120     0.2951650    -0.0002120
  H       -2.5788740    -0.9709940    -0.8833260
units angstrom
no_reorient  #important for SAPT in psi4, default
symmetry c1  #important for SAPT in psi4, default
}

set PROPERTIES_ORIGIN ["COM"]
properties('MP2/aug-cc-pvtz', properties = ['dipole'])
--------------------------------------------------------------------------

    Molecular point group: c1
  Charge       = 0
  Multiplicity = 1
  Basis Set: AUG-CC-PVTZ
    Blend: AUG-CC-PVTZ
  Basis Set: (AUG-CC-PVTZ AUX)
    Blend: AUG-CC-PVTZ-JKFIT

    Orbital Energies [Eh]
    ---------------------

    Doubly Occupied:

       1A    -11.224893     2A    -11.218241     3A    -11.217024
       4A    -11.211591     5A    -11.202360     6A     -1.090929
       7A     -1.038800     8A     -0.921254     9A     -0.811554
      10A     -0.770919    11A     -0.642132    12A     -0.608842
      13A     -0.600095    14A     -0.583824    15A     -0.553884
      16A     -0.526114    17A     -0.506921    18A     -0.469328
      19A     -0.467453    20A     -0.426934    21A     -0.415146

  @DF-RHF Final Energy:  -196.35405902214333

   => Energetics <=

    Nuclear Repulsion Energy =            185.3248684678053735
    One-Electron Energy =                -630.3413753928027745
    Two-Electron Energy =                 248.6624479028540975
    Total Energy =                       -196.3540590221433320
  Basis Set: (AUG-CC-PVTZ AUX)
    Blend: AUG-CC-PVTZ-RI
    Molecular point group: c1

    Geometry (in Angstrom), charge = 0, multiplicity = 1:

       Center              X                  Y                   Z               Mass
    ------------   -----------------  -----------------  -----------------  -----------------
         C            2.515193058749    -0.314548686778     0.000397812970    12.000000000000
         H            2.551515058749    -0.957986686778     0.885066812970     1.007825032230
         H            2.551162058749    -0.959619686778    -0.883109187030     1.007825032230
         H            3.415689058749     0.306751313222    -0.000390187030     1.007825032230
         C            1.414241858749     0.425110813222    -0.000020187030    12.000000000000
         H            1.246587058749     1.194858313222    -0.878056187030     1.007825032230
         H            1.245819058749     1.194540313222     0.878135812970     1.007825032230
         C           -0.027627941251    -0.301943686778    -0.000803187030    12.000000000000
         H           -0.027649941251    -0.960464686778    -0.880284187030     1.007825032230
         H           -0.027578941251    -0.962194686778     0.877389812970     1.007825032230
         C           -1.303492941251     0.536626313222     0.000029812970    12.000000000000
         H           -1.301839941251     1.194986313222    -0.877836187030     1.007825032230
         H           -1.301097941251     1.194385313222     0.878352812970     1.007825032230
         C           -2.570463941251    -0.314542686778     0.000347812970    12.000000000000
         H           -2.606759941251    -0.958221686778     0.884843812970     1.007825032230
         H           -3.470944941251     0.306780313222    -0.000214187030     1.007825032230
         H           -2.606506941251    -0.959378686778    -0.883328187030     1.007825032230

  Basis Set: AUG-CC-PVTZ
    Blend: AUG-CC-PVTZ
  Basis Set: (AUG-CC-PVTZ AUX)
    Blend: AUG-CC-PVTZ-JKFIT
	 Reference Energy          =    -196.3540590221433320 [Eh]
	 Singles Energy            =      -0.0000000000000000 [Eh]
	 Same-Spin Energy          =      -0.2100533753495295 [Eh]
	 Opposite-Spin Energy      =      -0.7967956254872903 [Eh]
	 Correlation Energy        =      -1.0068490008368198 [Eh]
	 Total Energy              =    -197.3609080229801407 [Eh]

	 ================> DF-SCS-MP2 Energies <==================
	-----------------------------------------------------------
	 SCS Same-Spin Scale       =       0.3333333333333333 [-]
	 SCS Opposite-Spin Scale   =       1.2000000000000000 [-]
	 SCS Same-Spin Energy      =      -0.0700177917831765 [Eh]
	 SCS Opposite-Spin Energy  =      -0.9561547505847483 [Eh]
	 SCS Correlation Energy    =      -1.0261725423679249 [Eh]
	 SCS Total Energy          =    -197.3802315645112628 [Eh]
	-----------------------------------------------------------

  Dipole Moment: [D]
     X:     0.0598      Y:    -0.0108      Z:     0.0001     Total:     0.0608

*** Psi4 exiting successfully. Buy a developer a beer!
