                               Psi4 1.3.2 release

  ==> Input File <==

--------------------------------------------------------------------------
#psi4
#
memory 32 gb

molecule  {
0 1
  C        2.5428260    -0.3261640     0.0004000
  H        2.6125683    -0.9834572     0.8727947
  H        2.5787950    -0.9712350    -0.8831070
  H        3.4433220     0.2951360    -0.0003880
  C        1.2758620     0.5250290    -0.0000810
  H        1.2742200     1.1832430    -0.8780540
  H        1.2734520     1.1829250     0.8781380
  C        0.0000050    -0.3135590    -0.0008010
  H       -0.0000170    -0.9720800    -0.8802820
  H        0.0000540    -0.9738100     0.8773920
  C       -1.2758600     0.5250110     0.0000320
  H       -1.2742070     1.1833710    -0.8778340
  H       -1.2734650     1.1827700     0.8783550
  C       -2.5428310    -0.3261580     0.0003500
  H       -2.5791270    -0.9698370     0.8848460
  H       -3.4433120     0.2951650    -0.0002120
  H       -2.5788740    -0.9709940    -0.8833260
units angstrom
no_reorient  #important for SAPT in psi4, default
symmetry c1  #important for SAPT in psi4, default
}

set PROPERTIES_ORIGIN ["COM"]
properties('MP2/aug-cc-pvtz', properties = ['dipole'])
--------------------------------------------------------------------------

    Molecular point group: c1
  Charge       = 0
  Multiplicity = 1
  Basis Set: AUG-CC-PVTZ
    Blend: AUG-CC-PVTZ
  Basis Set: (AUG-CC-PVTZ AUX)
    Blend: AUG-CC-PVTZ-JKFIT

    Orbital Energies [Eh]
    ---------------------

    Doubly Occupied:

       1A    -11.215274     2A    -11.214781     3A    -11.212448
       4A    -11.209384     5A    -11.209289     6A     -1.078766
       7A     -1.013374     8A     -0.917679     9A     -0.818965
      10A     -0.783300    11A     -0.644985    12A     -0.596397
      13A     -0.590731    14A     -0.553800    15A     -0.545533
      16A     -0.524225    17A     -0.494641    18A     -0.474965
      19A     -0.461165    20A     -0.458262    21A     -0.446441

  @DF-RHF Final Energy:  -196.40375614349247

   => Energetics <=

    Nuclear Repulsion Energy =            184.9730862733056540
    One-Electron Energy =                -629.8248724088072095
    Two-Electron Energy =                 248.4480299920091113
    Total Energy =                       -196.4037561434924726
  Basis Set: (AUG-CC-PVTZ AUX)
    Blend: AUG-CC-PVTZ-RI
    Molecular point group: c1

    Geometry (in Angstrom), charge = 0, multiplicity = 1:

       Center              X                  Y                   Z               Mass
    ------------   -----------------  -----------------  -----------------  -----------------
         C            2.542358627189    -0.332919705346     0.000579885887    12.000000000000
         H            2.612100927189    -0.990212905346     0.872974585887     1.007825032230
         H            2.578327627189    -0.977990705346    -0.882927114113     1.007825032230
         H            3.442854627189     0.288380294654    -0.000208114113     1.007825032230
         C            1.275394627189     0.518273294654     0.000098885887    12.000000000000
         H            1.273752627189     1.176487294654    -0.877874114113     1.007825032230
         H            1.272984627189     1.176169294654     0.878317885887     1.007825032230
         C           -0.000462372811    -0.320314705346    -0.000621114113    12.000000000000
         H           -0.000484372811    -0.978835705346    -0.880102114113     1.007825032230
         H           -0.000413372811    -0.980565705346     0.877571885887     1.007825032230
         C           -1.276327372811     0.518255294654     0.000211885887    12.000000000000
         H           -1.274674372811     1.176615294654    -0.877654114113     1.007825032230
         H           -1.273932372811     1.176014294654     0.878534885887     1.007825032230
         C           -2.543298372811    -0.332913705346     0.000529885887    12.000000000000
         H           -2.579594372811    -0.976592705346     0.885025885887     1.007825032230
         H           -3.443779372811     0.288409294654    -0.000032114113     1.007825032230
         H           -2.579341372811    -0.977749705346    -0.883146114113     1.007825032230

  Basis Set: AUG-CC-PVTZ
    Blend: AUG-CC-PVTZ
  Basis Set: (AUG-CC-PVTZ AUX)
    Blend: AUG-CC-PVTZ-JKFIT
	 Reference Energy          =    -196.4037561434924726 [Eh]
	 Singles Energy            =      -0.0000000000000000 [Eh]
	 Same-Spin Energy          =      -0.2077036696934976 [Eh]
	 Opposite-Spin Energy      =      -0.7932893635805126 [Eh]
	 Correlation Energy        =      -1.0009930332740102 [Eh]
	 Total Energy              =    -197.4047491767664724 [Eh]

	 ================> DF-SCS-MP2 Energies <==================
	-----------------------------------------------------------
	 SCS Same-Spin Scale       =       0.3333333333333333 [-]
	 SCS Opposite-Spin Scale   =       1.2000000000000000 [-]
	 SCS Same-Spin Energy      =      -0.0692345565644992 [Eh]
	 SCS Opposite-Spin Energy  =      -0.9519472362966150 [Eh]
	 SCS Correlation Energy    =      -1.0211817928611142 [Eh]
	 SCS Total Energy          =    -197.4249379363535866 [Eh]
	-----------------------------------------------------------

  Dipole Moment: [D]
     X:     0.0036      Y:     0.0832      Z:     0.0026     Total:     0.0833

*** Psi4 exiting successfully. Buy a developer a beer!
