                               Psi4 1.3.2 release

  ==> Input File <==

--------------------------------------------------------------------------
#psi4
#
memory 32 gb

molecule  {
0 1
  C        2.5428260    -0.3261640     0.0004000
  H        2.5791480    -0.9696020     0.8850690
  H        2.5787950    -0.9712350    -0.8831070
  H        3.4433220     0.2951360    -0.0003880
  C        1.1812164     0.6537984     0.0000424
  H        1.2742200     1.1832430    -0.8780540
  H        1.2734520     1.1829250     0.8781380
  C        0.0000050    -0.3135590    -0.0008010
  H       -0.0000170    -0.9720800    -0.8802820
  H        0.0000540    -0.9738100     0.8773920
  C       -1.2758600     0.5250110     0.0000320
  H       -1.2742070     1.1833710    -0.8778340
  H       -1.2734650     1.1827700     0.8783550
  C       -2.5428310    -0.3261580     0.0003500
  H       -2.5791270    -0.9698370     0.8848460
  H       -3.4433120     0.2951650    -0.0002120
  H       -2.5788740    -0.9709940    -0.8833260
units angstrom
no_reorient  #important for SAPT in psi4, default
symmetry c1  #important for SAPT in psi4, default
}

set PROPERTIES_ORIGIN ["COM"]
properties('MP2/aug-cc-pvtz', properties = ['dipole'])
--------------------------------------------------------------------------

    Molecular point group: c1
  Charge       = 0
  Multiplicity = 1
  Basis Set: AUG-CC-PVTZ
    Blend: AUG-CC-PVTZ
  Basis Set: (AUG-CC-PVTZ AUX)
    Blend: AUG-CC-PVTZ-JKFIT

    Orbital Energies [Eh]
    ---------------------

    Doubly Occupied:

       1A    -11.213729     2A    -11.212248     3A    -11.212075
       4A    -11.211711     5A    -11.207584     6A     -1.076714
       7A     -1.000280     8A     -0.909600     9A     -0.826460
      10A     -0.789675    11A     -0.653911    12A     -0.595023
      13A     -0.589820    14A     -0.550952    15A     -0.535023
      16A     -0.523291    17A     -0.498783    18A     -0.484632
      19A     -0.471581    20A     -0.464289    21A     -0.412945

  @DF-RHF Final Energy:  -196.38259997535761

   => Energetics <=

    Nuclear Repulsion Energy =            184.4460658894034566
    One-Electron Energy =                -628.7766802941468995
    Two-Electron Energy =                 247.9480144293858075
    Total Energy =                       -196.3825999753576070
  Basis Set: (AUG-CC-PVTZ AUX)
    Blend: AUG-CC-PVTZ-RI
    Molecular point group: c1

    Geometry (in Angstrom), charge = 0, multiplicity = 1:

       Center              X                  Y                   Z               Mass
    ------------   -----------------  -----------------  -----------------  -----------------
         C            2.558579541978    -0.354547005423     0.000387759415    12.000000000000
         H            2.594901541978    -0.997985005423     0.885056759415     1.007825032230
         H            2.594548541978    -0.999618005423    -0.883119240585     1.007825032230
         H            3.459075541978     0.266752994577    -0.000400240585     1.007825032230
         C            1.196969941978     0.625415394577     0.000030159415    12.000000000000
         H            1.289973541978     1.154859994577    -0.878066240585     1.007825032230
         H            1.289205541978     1.154541994577     0.878125759415     1.007825032230
         C            0.015758541978    -0.341942005423    -0.000813240585    12.000000000000
         H            0.015736541978    -1.000463005423    -0.880294240585     1.007825032230
         H            0.015807541978    -1.002193005423     0.877379759415     1.007825032230
         C           -1.260106458022     0.496627994577     0.000019759415    12.000000000000
         H           -1.258453458022     1.154987994577    -0.877846240585     1.007825032230
         H           -1.257711458022     1.154386994577     0.878342759415     1.007825032230
         C           -2.527077458022    -0.354541005423     0.000337759415    12.000000000000
         H           -2.563373458022    -0.998220005423     0.884833759415     1.007825032230
         H           -3.427558458022     0.266781994577    -0.000224240585     1.007825032230
         H           -2.563120458022    -0.999377005423    -0.883338240585     1.007825032230

  Basis Set: AUG-CC-PVTZ
    Blend: AUG-CC-PVTZ
  Basis Set: (AUG-CC-PVTZ AUX)
    Blend: AUG-CC-PVTZ-JKFIT
	 Reference Energy          =    -196.3825999753576070 [Eh]
	 Singles Energy            =      -0.0000000000000000 [Eh]
	 Same-Spin Energy          =      -0.2077340537336251 [Eh]
	 Opposite-Spin Energy      =      -0.7943461670740916 [Eh]
	 Correlation Energy        =      -1.0020802208077166 [Eh]
	 Total Energy              =    -197.3846801961653341 [Eh]

	 ================> DF-SCS-MP2 Energies <==================
	-----------------------------------------------------------
	 SCS Same-Spin Scale       =       0.3333333333333333 [-]
	 SCS Opposite-Spin Scale   =       1.2000000000000000 [-]
	 SCS Same-Spin Energy      =      -0.0692446845778750 [Eh]
	 SCS Opposite-Spin Energy  =      -0.9532154004889098 [Eh]
	 SCS Correlation Energy    =      -1.0224600850667849 [Eh]
	 SCS Total Energy          =    -197.4050600604244039 [Eh]
	-----------------------------------------------------------

  Dipole Moment: [D]
     X:    -0.0324      Y:     0.1305      Z:    -0.0001     Total:     0.1345

*** Psi4 exiting successfully. Buy a developer a beer!
