                               Psi4 1.3.2 release

  ==> Input File <==

--------------------------------------------------------------------------
#psi4
#
memory 32 gb

molecule  {
0 1
  C        2.5428260    -0.3261640     0.0004000
  H        2.5782804    -0.9540885     0.8961817
  H        2.5787950    -0.9712350    -0.8831070
  H        3.4433220     0.2951360    -0.0003880
  C        1.2758620     0.5250290    -0.0000810
  H        1.2742200     1.1832430    -0.8780540
  H        1.2734520     1.1829250     0.8781380
  C        0.0000050    -0.3135590    -0.0008010
  H       -0.0000170    -0.9720800    -0.8802820
  H        0.0000540    -0.9738100     0.8773920
  C       -1.2758600     0.5250110     0.0000320
  H       -1.2742070     1.1833710    -0.8778340
  H       -1.2734650     1.1827700     0.8783550
  C       -2.5428310    -0.3261580     0.0003500
  H       -2.5791270    -0.9698370     0.8848460
  H       -3.4433120     0.2951650    -0.0002120
  H       -2.5788740    -0.9709940    -0.8833260
units angstrom
no_reorient  #important for SAPT in psi4, default
symmetry c1  #important for SAPT in psi4, default
}

set PROPERTIES_ORIGIN ["COM"]
properties('MP2/aug-cc-pvtz', properties = ['dipole'])
--------------------------------------------------------------------------

    Molecular point group: c1
  Charge       = 0
  Multiplicity = 1
  Basis Set: AUG-CC-PVTZ
    Blend: AUG-CC-PVTZ
  Basis Set: (AUG-CC-PVTZ AUX)
    Blend: AUG-CC-PVTZ-JKFIT

    Orbital Energies [Eh]
    ---------------------

    Doubly Occupied:

       1A    -11.214780     2A    -11.214648     3A    -11.212432
       4A    -11.209412     5A    -11.209370     6A     -1.078868
       7A     -1.013604     8A     -0.917529     9A     -0.818167
      10A     -0.782977    11A     -0.645473    12A     -0.596490
      13A     -0.592079    14A     -0.552378    15A     -0.545912
      16A     -0.525626    17A     -0.492955    18A     -0.475539
      19A     -0.460576    20A     -0.458363    21A     -0.446607

  @DF-RHF Final Energy:  -196.40381801281680

   => Energetics <=

    Nuclear Repulsion Energy =            185.0234351149389340
    One-Electron Energy =                -629.9269348434144149
    Two-Electron Energy =                 248.4996817156586815
    Total Energy =                       -196.4038180128167994
  Basis Set: (AUG-CC-PVTZ AUX)
    Blend: AUG-CC-PVTZ-RI
    Molecular point group: c1

    Geometry (in Angstrom), charge = 0, multiplicity = 1:

       Center              X                  Y                   Z               Mass
    ------------   -----------------  -----------------  -----------------  -----------------
         C            2.542837949348    -0.333330260342     0.000252951100    12.000000000000
         H            2.578292349348    -0.961254760342     0.896034651100     1.007825032230
         H            2.578806949348    -0.978401260342    -0.883254048900     1.007825032230
         H            3.443333949348     0.287969739658    -0.000535048900     1.007825032230
         C            1.275873949348     0.517862739658    -0.000228048900    12.000000000000
         H            1.274231949348     1.176076739658    -0.878201048900     1.007825032230
         H            1.273463949348     1.175758739658     0.877990951100     1.007825032230
         C            0.000016949348    -0.320725260342    -0.000948048900    12.000000000000
         H           -0.000005050652    -0.979246260342    -0.880429048900     1.007825032230
         H            0.000065949348    -0.980976260342     0.877244951100     1.007825032230
         C           -1.275848050652     0.517844739658    -0.000115048900    12.000000000000
         H           -1.274195050652     1.176204739658    -0.877981048900     1.007825032230
         H           -1.273453050652     1.175603739658     0.878207951100     1.007825032230
         C           -2.542819050652    -0.333324260342     0.000202951100    12.000000000000
         H           -2.579115050652    -0.977003260342     0.884698951100     1.007825032230
         H           -3.443300050652     0.287998739658    -0.000359048900     1.007825032230
         H           -2.578862050652    -0.978160260342    -0.883473048900     1.007825032230

  Basis Set: AUG-CC-PVTZ
    Blend: AUG-CC-PVTZ
  Basis Set: (AUG-CC-PVTZ AUX)
    Blend: AUG-CC-PVTZ-JKFIT
	 Reference Energy          =    -196.4038180128167994 [Eh]
	 Singles Energy            =      -0.0000000000000000 [Eh]
	 Same-Spin Energy          =      -0.2077206976366167 [Eh]
	 Opposite-Spin Energy      =      -0.7933408031495879 [Eh]
	 Correlation Energy        =      -1.0010615007862045 [Eh]
	 Total Energy              =    -197.4048795136029923 [Eh]

	 ================> DF-SCS-MP2 Energies <==================
	-----------------------------------------------------------
	 SCS Same-Spin Scale       =       0.3333333333333333 [-]
	 SCS Opposite-Spin Scale   =       1.2000000000000000 [-]
	 SCS Same-Spin Energy      =      -0.0692402325455389 [Eh]
	 SCS Opposite-Spin Energy  =      -0.9520089637795054 [Eh]
	 SCS Correlation Energy    =      -1.0212491963250443 [Eh]
	 SCS Total Energy          =    -197.4250672091418437 [Eh]
	-----------------------------------------------------------

  Dipole Moment: [D]
     X:     0.0019      Y:     0.0915      Z:     0.0018     Total:     0.0916

*** Psi4 exiting successfully. Buy a developer a beer!
