                               Psi4 1.3.2 release

  ==> Input File <==

--------------------------------------------------------------------------
#psi4
#
memory 32 gb

molecule  {
0 1
  C        2.5428260    -0.3261640     0.0004000
  H        2.5791480    -0.9696020     0.8850690
  H        2.5787950    -0.9712350    -0.8831070
  H        3.4433220     0.2951360    -0.0003880
  C        1.2903031     0.5026345    -0.0001024
  H        1.2742200     1.1832430    -0.8780540
  H        1.2734520     1.1829250     0.8781380
  C        0.0000050    -0.3135590    -0.0008010
  H       -0.0000170    -0.9720800    -0.8802820
  H        0.0000540    -0.9738100     0.8773920
  C       -1.2758600     0.5250110     0.0000320
  H       -1.2742070     1.1833710    -0.8778340
  H       -1.2734650     1.1827700     0.8783550
  C       -2.5428310    -0.3261580     0.0003500
  H       -2.5791270    -0.9698370     0.8848460
  H       -3.4433120     0.2951650    -0.0002120
  H       -2.5788740    -0.9709940    -0.8833260
units angstrom
no_reorient  #important for SAPT in psi4, default
symmetry c1  #important for SAPT in psi4, default
}

set PROPERTIES_ORIGIN ["COM"]
properties('MP2/aug-cc-pvtz', properties = ['dipole'])
--------------------------------------------------------------------------

    Molecular point group: c1
  Charge       = 0
  Multiplicity = 1
  Basis Set: AUG-CC-PVTZ
    Blend: AUG-CC-PVTZ
  Basis Set: (AUG-CC-PVTZ AUX)
    Blend: AUG-CC-PVTZ-JKFIT

    Orbital Energies [Eh]
    ---------------------

    Doubly Occupied:

       1A    -11.216008     2A    -11.215322     3A    -11.212631
       4A    -11.209740     5A    -11.208820     6A     -1.079873
       7A     -1.016413     8A     -0.918994     9A     -0.817459
      10A     -0.781363    11A     -0.644550    12A     -0.598231
      13A     -0.591538    14A     -0.555223    15A     -0.547821
      16A     -0.525285    17A     -0.494758    18A     -0.472586
      19A     -0.459522    20A     -0.454703    21A     -0.449662

  @DF-RHF Final Energy:  -196.40287555471988

   => Energetics <=

    Nuclear Repulsion Energy =            185.1296300514584914
    One-Electron Energy =                -630.1240079658813329
    Two-Electron Energy =                 248.5915023597029574
    Total Energy =                       -196.4028755547198841
  Basis Set: (AUG-CC-PVTZ AUX)
    Blend: AUG-CC-PVTZ-RI
    Molecular point group: c1

    Geometry (in Angstrom), charge = 0, multiplicity = 1:

       Center              X                  Y                   Z               Mass
    ------------   -----------------  -----------------  -----------------  -----------------
         C            2.540422105732    -0.329385836582     0.000411861315    12.000000000000
         H            2.576744105732    -0.972823836582     0.885080861315     1.007825032230
         H            2.576391105732    -0.974456836582    -0.883095138685     1.007825032230
         H            3.440918105732     0.291914163418    -0.000376138685     1.007825032230
         C            1.287899205732     0.499412663418    -0.000090538685    12.000000000000
         H            1.271816105732     1.180021163418    -0.878042138685     1.007825032230
         H            1.271048105732     1.179703163418     0.878149861315     1.007825032230
         C           -0.002398894268    -0.316780836582    -0.000789138685    12.000000000000
         H           -0.002420894268    -0.975301836582    -0.880270138685     1.007825032230
         H           -0.002349894268    -0.977031836582     0.877403861315     1.007825032230
         C           -1.278263894268     0.521789163418     0.000043861315    12.000000000000
         H           -1.276610894268     1.180149163418    -0.877822138685     1.007825032230
         H           -1.275868894268     1.179548163418     0.878366861315     1.007825032230
         C           -2.545234894268    -0.329379836582     0.000361861315    12.000000000000
         H           -2.581530894268    -0.973058836582     0.884857861315     1.007825032230
         H           -3.445715894268     0.291943163418    -0.000200138685     1.007825032230
         H           -2.581277894268    -0.974215836582    -0.883314138685     1.007825032230

  Basis Set: AUG-CC-PVTZ
    Blend: AUG-CC-PVTZ
  Basis Set: (AUG-CC-PVTZ AUX)
    Blend: AUG-CC-PVTZ-JKFIT
	 Reference Energy          =    -196.4028755547198841 [Eh]
	 Singles Energy            =      -0.0000000000000000 [Eh]
	 Same-Spin Energy          =      -0.2078729718644295 [Eh]
	 Opposite-Spin Energy      =      -0.7934901777018517 [Eh]
	 Correlation Energy        =      -1.0013631495662811 [Eh]
	 Total Energy              =    -197.4042387042861719 [Eh]

	 ================> DF-SCS-MP2 Energies <==================
	-----------------------------------------------------------
	 SCS Same-Spin Scale       =       0.3333333333333333 [-]
	 SCS Opposite-Spin Scale   =       1.2000000000000000 [-]
	 SCS Same-Spin Energy      =      -0.0692909906214765 [Eh]
	 SCS Opposite-Spin Energy  =      -0.9521882132422220 [Eh]
	 SCS Correlation Energy    =      -1.0214792038636986 [Eh]
	 SCS Total Energy          =    -197.4243547585835756 [Eh]
	-----------------------------------------------------------

  Dipole Moment: [D]
     X:     0.0033      Y:     0.0756      Z:    -0.0001     Total:     0.0757

*** Psi4 exiting successfully. Buy a developer a beer!
