                               Psi4 1.3.2 release

  ==> Input File <==

--------------------------------------------------------------------------
#psi4
#
memory 32 gb

molecule  {
0 1
  C        2.4469116    -0.4539349     0.0003369
  H        2.5791480    -0.9696020     0.8850690
  H        2.5787950    -0.9712350    -0.8831070
  H        3.4433220     0.2951360    -0.0003880
  C        1.2758620     0.5250290    -0.0000810
  H        1.2742200     1.1832430    -0.8780540
  H        1.2734520     1.1829250     0.8781380
  C        0.0000050    -0.3135590    -0.0008010
  H       -0.0000170    -0.9720800    -0.8802820
  H        0.0000540    -0.9738100     0.8773920
  C       -1.2758600     0.5250110     0.0000320
  H       -1.2742070     1.1833710    -0.8778340
  H       -1.2734650     1.1827700     0.8783550
  C       -2.5428310    -0.3261580     0.0003500
  H       -2.5791270    -0.9698370     0.8848460
  H       -3.4433120     0.2951650    -0.0002120
  H       -2.5788740    -0.9709940    -0.8833260
units angstrom
no_reorient  #important for SAPT in psi4, default
symmetry c1  #important for SAPT in psi4, default
}

set PROPERTIES_ORIGIN ["COM"]
properties('MP2/aug-cc-pvtz', properties = ['dipole'])
--------------------------------------------------------------------------

    Molecular point group: c1
  Charge       = 0
  Multiplicity = 1
  Basis Set: AUG-CC-PVTZ
    Blend: AUG-CC-PVTZ
  Basis Set: (AUG-CC-PVTZ AUX)
    Blend: AUG-CC-PVTZ-JKFIT

    Orbital Energies [Eh]
    ---------------------

    Doubly Occupied:

       1A    -11.216972     2A    -11.213641     3A    -11.213537
       4A    -11.210837     5A    -11.208860     6A     -1.080910
       7A     -1.014634     8A     -0.916103     9A     -0.820933
      10A     -0.785102    11A     -0.651714    12A     -0.605209
      13A     -0.589690    14A     -0.556242    15A     -0.540159
      16A     -0.524133    17A     -0.494236    18A     -0.484462
      19A     -0.464297    20A     -0.460301    21A     -0.419943

  @DF-RHF Final Energy:  -196.38029170268135

   => Energetics <=

    Nuclear Repulsion Energy =            185.5384062705799408
    One-Electron Energy =                -630.8935640689848015
    Two-Electron Energy =                 248.9748660957235415
    Total Energy =                       -196.3802917026813475
  Basis Set: (AUG-CC-PVTZ AUX)
    Blend: AUG-CC-PVTZ-RI
    Molecular point group: c1

    Geometry (in Angstrom), charge = 0, multiplicity = 1:

       Center              X                  Y                   Z               Mass
    ------------   -----------------  -----------------  -----------------  -----------------
         C            2.462876333215    -0.439616878242     0.000355702263    12.000000000000
         H            2.595112733215    -0.955283978242     0.885087802263     1.007825032230
         H            2.594759733215    -0.956916978242    -0.883088197737     1.007825032230
         H            3.459286733215     0.309454021758    -0.000369197737     1.007825032230
         C            1.291826733215     0.539347021758    -0.000062197737    12.000000000000
         H            1.290184733215     1.197561021758    -0.878035197737     1.007825032230
         H            1.289416733215     1.197243021758     0.878156802263     1.007825032230
         C            0.015969733215    -0.299240978242    -0.000782197737    12.000000000000
         H            0.015947733215    -0.957761978242    -0.880263197737     1.007825032230
         H            0.016018733215    -0.959491978242     0.877410802263     1.007825032230
         C           -1.259895266785     0.539329021758     0.000050802263    12.000000000000
         H           -1.258242266785     1.197689021758    -0.877815197737     1.007825032230
         H           -1.257500266785     1.197088021758     0.878373802263     1.007825032230
         C           -2.526866266785    -0.311839978242     0.000368802263    12.000000000000
         H           -2.563162266785    -0.955518978242     0.884864802263     1.007825032230
         H           -3.427347266785     0.309483021758    -0.000193197737     1.007825032230
         H           -2.562909266785    -0.956675978242    -0.883307197737     1.007825032230

  Basis Set: AUG-CC-PVTZ
    Blend: AUG-CC-PVTZ
  Basis Set: (AUG-CC-PVTZ AUX)
    Blend: AUG-CC-PVTZ-JKFIT
	 Reference Energy          =    -196.3802917026813475 [Eh]
	 Singles Energy            =      -0.0000000000000000 [Eh]
	 Same-Spin Energy          =      -0.2081643090311896 [Eh]
	 Opposite-Spin Energy      =      -0.7946704566847327 [Eh]
	 Correlation Energy        =      -1.0028347657159222 [Eh]
	 Total Energy              =    -197.3831264683972790 [Eh]

	 ================> DF-SCS-MP2 Energies <==================
	-----------------------------------------------------------
	 SCS Same-Spin Scale       =       0.3333333333333333 [-]
	 SCS Opposite-Spin Scale   =       1.2000000000000000 [-]
	 SCS Same-Spin Energy      =      -0.0693881030103965 [Eh]
	 SCS Opposite-Spin Energy  =      -0.9536045480216792 [Eh]
	 SCS Correlation Energy    =      -1.0229926510320757 [Eh]
	 SCS Total Energy          =    -197.4032843537134170 [Eh]
	-----------------------------------------------------------

  Dipole Moment: [D]
     X:    -0.0570      Y:     0.0395      Z:    -0.0000     Total:     0.0694

*** Psi4 exiting successfully. Buy a developer a beer!
