                               Psi4 1.3.2 release

  ==> Input File <==

--------------------------------------------------------------------------
#psi4
#
memory 32 gb

molecule  {
0 1
  C        2.5428260    -0.3261640     0.0004000
  H        2.5791480    -0.9696020     0.8850690
  H        2.5787950    -0.9712350    -0.8831070
  H        3.4433220     0.2951360    -0.0003880
  C        1.2758620     0.5250290    -0.0000810
  H        1.2742200     1.1832430    -0.8780540
  H        1.2734520     1.1829250     0.8781380
  C        0.0000050    -0.3135590    -0.0008010
  H       -0.0000130    -0.8522070    -0.7201868
  H        0.0000540    -0.9738100     0.8773920
  C       -1.2758600     0.5250110     0.0000320
  H       -1.2742070     1.1833710    -0.8778340
  H       -1.2734650     1.1827700     0.8783550
  C       -2.5428310    -0.3261580     0.0003500
  H       -2.5791270    -0.9698370     0.8848460
  H       -3.4433120     0.2951650    -0.0002120
  H       -2.5788740    -0.9709940    -0.8833260
units angstrom
no_reorient  #important for SAPT in psi4, default
symmetry c1  #important for SAPT in psi4, default
}

set PROPERTIES_ORIGIN ["COM"]
properties('MP2/aug-cc-pvtz', properties = ['dipole'])
--------------------------------------------------------------------------

    Molecular point group: c1
  Charge       = 0
  Multiplicity = 1
  Basis Set: AUG-CC-PVTZ
    Blend: AUG-CC-PVTZ
  Basis Set: (AUG-CC-PVTZ AUX)
    Blend: AUG-CC-PVTZ-JKFIT

    Orbital Energies [Eh]
    ---------------------

    Doubly Occupied:

       1A    -11.212881     2A    -11.212878     3A    -11.209259
       4A    -11.209258     5A    -11.186541     6A     -1.086516
       7A     -1.012848     8A     -0.927048     9A     -0.817330
      10A     -0.802086    11A     -0.654414    12A     -0.596002
      13A     -0.590905    14A     -0.559632    15A     -0.547307
      16A     -0.532102    17A     -0.493003    18A     -0.474461
      19A     -0.469668    20A     -0.458401    21A     -0.444912

  @DF-RHF Final Energy:  -196.37110665860769

   => Energetics <=

    Nuclear Repulsion Energy =            186.0147871702813234
    One-Electron Energy =                -631.7768837017675878
    Two-Electron Energy =                 249.3909898728785492
    Total Energy =                       -196.3711066586076868
  Basis Set: (AUG-CC-PVTZ AUX)
    Blend: AUG-CC-PVTZ-RI
    Molecular point group: c1

    Geometry (in Angstrom), charge = 0, multiplicity = 1:

       Center              X                  Y                   Z               Mass
    ------------   -----------------  -----------------  -----------------  -----------------
         C            2.542825764956    -0.334789137111    -0.001829725688    12.000000000000
         H            2.579147764956    -0.978227137111     0.882839274312     1.007825032230
         H            2.578794764956    -0.979860137111    -0.885336725688     1.007825032230
         H            3.443321764956     0.286510862889    -0.002617725688     1.007825032230
         C            1.275861764956     0.516403862889    -0.002310725688    12.000000000000
         H            1.274219764956     1.174617862889    -0.880283725688     1.007825032230
         H            1.273451764956     1.174299862889     0.875908274312     1.007825032230
         C            0.000004764956    -0.322184137111    -0.003030725688    12.000000000000
         H           -0.000013235044    -0.860832137111    -0.722416525688     1.007825032230
         H            0.000053764956    -0.982435137111     0.875162274312     1.007825032230
         C           -1.275860235044     0.516385862889    -0.002197725688    12.000000000000
         H           -1.274207235044     1.174745862889    -0.880063725688     1.007825032230
         H           -1.273465235044     1.174144862889     0.876125274312     1.007825032230
         C           -2.542831235044    -0.334783137111    -0.001879725688    12.000000000000
         H           -2.579127235044    -0.978462137111     0.882616274312     1.007825032230
         H           -3.443312235044     0.286539862889    -0.002441725688     1.007825032230
         H           -2.578874235044    -0.979619137111    -0.885555725688     1.007825032230

  Basis Set: AUG-CC-PVTZ
    Blend: AUG-CC-PVTZ
  Basis Set: (AUG-CC-PVTZ AUX)
    Blend: AUG-CC-PVTZ-JKFIT
	 Reference Energy          =    -196.3711066586076868 [Eh]
	 Singles Energy            =      -0.0000000000000000 [Eh]
	 Same-Spin Energy          =      -0.2077541209478901 [Eh]
	 Opposite-Spin Energy      =      -0.7927254808107593 [Eh]
	 Correlation Energy        =      -1.0004796017586495 [Eh]
	 Total Energy              =    -197.3715862603663425 [Eh]

	 ================> DF-SCS-MP2 Energies <==================
	-----------------------------------------------------------
	 SCS Same-Spin Scale       =       0.3333333333333333 [-]
	 SCS Opposite-Spin Scale   =       1.2000000000000000 [-]
	 SCS Same-Spin Energy      =      -0.0692513736492967 [Eh]
	 SCS Opposite-Spin Energy  =      -0.9512705769729112 [Eh]
	 SCS Correlation Energy    =      -1.0205219506222079 [Eh]
	 SCS Total Energy          =    -197.3916286092298833 [Eh]
	-----------------------------------------------------------

  Dipole Moment: [D]
     X:    -0.0000      Y:    -0.0011      Z:    -0.0778     Total:     0.0779

*** Psi4 exiting successfully. Buy a developer a beer!
