                               Psi4 1.3.2 release

  ==> Input File <==

--------------------------------------------------------------------------
#psi4
#
memory 32 gb

molecule  {
0 1
  C        2.5428260    -0.3261640     0.0004000
  H        2.5624187    -0.9623793     0.8908028
  H        2.5787950    -0.9712350    -0.8831070
  H        3.4433220     0.2951360    -0.0003880
  C        1.2758620     0.5250290    -0.0000810
  H        1.2742200     1.1832430    -0.8780540
  H        1.2734520     1.1829250     0.8781380
  C        0.0000050    -0.3135590    -0.0008010
  H       -0.0000170    -0.9720800    -0.8802820
  H        0.0000540    -0.9738100     0.8773920
  C       -1.2758600     0.5250110     0.0000320
  H       -1.2742070     1.1833710    -0.8778340
  H       -1.2734650     1.1827700     0.8783550
  C       -2.5428310    -0.3261580     0.0003500
  H       -2.5791270    -0.9698370     0.8848460
  H       -3.4433120     0.2951650    -0.0002120
  H       -2.5788740    -0.9709940    -0.8833260
units angstrom
no_reorient  #important for SAPT in psi4, default
symmetry c1  #important for SAPT in psi4, default
}

set PROPERTIES_ORIGIN ["COM"]
properties('MP2/aug-cc-pvtz', properties = ['dipole'])
--------------------------------------------------------------------------

    Molecular point group: c1
  Charge       = 0
  Multiplicity = 1
  Basis Set: AUG-CC-PVTZ
    Blend: AUG-CC-PVTZ
  Basis Set: (AUG-CC-PVTZ AUX)
    Blend: AUG-CC-PVTZ-JKFIT

    Orbital Energies [Eh]
    ---------------------

    Doubly Occupied:

       1A    -11.214792     2A    -11.214548     3A    -11.212464
       4A    -11.209426     5A    -11.209383     6A     -1.078918
       7A     -1.013661     8A     -0.917470     9A     -0.818030
      10A     -0.783020    11A     -0.645450    12A     -0.596897
      13A     -0.591866    14A     -0.552261    15A     -0.546500
      16A     -0.525225    17A     -0.493080    18A     -0.475258
      19A     -0.460655    20A     -0.458346    21A     -0.446683

  @DF-RHF Final Energy:  -196.40380231923751

   => Energetics <=

    Nuclear Repulsion Energy =            185.0402948429488390
    One-Electron Energy =                -629.9603286171306991
    Two-Electron Energy =                 248.5162314549443749
    Total Energy =                       -196.4038023192375135
  Basis Set: (AUG-CC-PVTZ AUX)
    Blend: AUG-CC-PVTZ-RI
    Molecular point group: c1

    Geometry (in Angstrom), charge = 0, multiplicity = 1:

       Center              X                  Y                   Z               Mass
    ------------   -----------------  -----------------  -----------------  -----------------
         C            2.543059685420    -0.333214360443     0.000328144563    12.000000000000
         H            2.562652385420    -0.969429660443     0.890730944563     1.007825032230
         H            2.579028685420    -0.978285360443    -0.883178855437     1.007825032230
         H            3.443555685420     0.288085639557    -0.000459855437     1.007825032230
         C            1.276095685420     0.517978639557    -0.000152855437    12.000000000000
         H            1.274453685420     1.176192639557    -0.878125855437     1.007825032230
         H            1.273685685420     1.175874639557     0.878066144563     1.007825032230
         C            0.000238685420    -0.320609360443    -0.000872855437    12.000000000000
         H            0.000216685420    -0.979130360443    -0.880353855437     1.007825032230
         H            0.000287685420    -0.980860360443     0.877320144563     1.007825032230
         C           -1.275626314580     0.517960639557    -0.000039855437    12.000000000000
         H           -1.273973314580     1.176320639557    -0.877905855437     1.007825032230
         H           -1.273231314580     1.175719639557     0.878283144563     1.007825032230
         C           -2.542597314580    -0.333208360443     0.000278144563    12.000000000000
         H           -2.578893314580    -0.976887360443     0.884774144563     1.007825032230
         H           -3.443078314580     0.288114639557    -0.000283855437     1.007825032230
         H           -2.578640314580    -0.978044360443    -0.883397855437     1.007825032230

  Basis Set: AUG-CC-PVTZ
    Blend: AUG-CC-PVTZ
  Basis Set: (AUG-CC-PVTZ AUX)
    Blend: AUG-CC-PVTZ-JKFIT
	 Reference Energy          =    -196.4038023192375135 [Eh]
	 Singles Energy            =      -0.0000000000000000 [Eh]
	 Same-Spin Energy          =      -0.2077288492910221 [Eh]
	 Opposite-Spin Energy      =      -0.7933558276437902 [Eh]
	 Correlation Energy        =      -1.0010846769348123 [Eh]
	 Total Energy              =    -197.4048869961723369 [Eh]

	 ================> DF-SCS-MP2 Energies <==================
	-----------------------------------------------------------
	 SCS Same-Spin Scale       =       0.3333333333333333 [-]
	 SCS Opposite-Spin Scale   =       1.2000000000000000 [-]
	 SCS Same-Spin Energy      =      -0.0692429497636740 [Eh]
	 SCS Opposite-Spin Energy  =      -0.9520269931725482 [Eh]
	 SCS Correlation Energy    =      -1.0212699429362222 [Eh]
	 SCS Total Energy          =    -197.4250722621737282 [Eh]
	-----------------------------------------------------------

  Dipole Moment: [D]
     X:    -0.0021      Y:     0.0901      Z:    -0.0016     Total:     0.0901

*** Psi4 exiting successfully. Buy a developer a beer!
