                               Psi4 1.3.2 release

  ==> Input File <==

--------------------------------------------------------------------------
#psi4
#
memory 32 gb

molecule  {
0 1
  C        2.5428260    -0.3261640     0.0004000
  H        2.5824665    -1.0283893     0.9658962
  H        2.5787950    -0.9712350    -0.8831070
  H        3.4433220     0.2951360    -0.0003880
  C        1.2758620     0.5250290    -0.0000810
  H        1.2742200     1.1832430    -0.8780540
  H        1.2734520     1.1829250     0.8781380
  C        0.0000050    -0.3135590    -0.0008010
  H       -0.0000170    -0.9720800    -0.8802820
  H        0.0000540    -0.9738100     0.8773920
  C       -1.2758600     0.5250110     0.0000320
  H       -1.2742070     1.1833710    -0.8778340
  H       -1.2734650     1.1827700     0.8783550
  C       -2.5428310    -0.3261580     0.0003500
  H       -2.5791270    -0.9698370     0.8848460
  H       -3.4433120     0.2951650    -0.0002120
  H       -2.5788740    -0.9709940    -0.8833260
units angstrom
no_reorient  #important for SAPT in psi4, default
symmetry c1  #important for SAPT in psi4, default
}

set PROPERTIES_ORIGIN ["COM"]
properties('MP2/aug-cc-pvtz', properties = ['dipole'])
--------------------------------------------------------------------------

    Molecular point group: c1
  Charge       = 0
  Multiplicity = 1
  Basis Set: AUG-CC-PVTZ
    Blend: AUG-CC-PVTZ
  Basis Set: (AUG-CC-PVTZ AUX)
    Blend: AUG-CC-PVTZ-JKFIT

    Orbital Energies [Eh]
    ---------------------

    Doubly Occupied:

       1A    -11.221770     2A    -11.216158     3A    -11.215007
       4A    -11.212708     5A    -11.209540     6A     -1.078747
       7A     -1.012071     8A     -0.914562     9A     -0.815585
      10A     -0.782408    11A     -0.644628    12A     -0.597123
      13A     -0.588209    14A     -0.552256    15A     -0.546052
      16A     -0.519607    17A     -0.492160    18A     -0.471416
      19A     -0.460872    20A     -0.457396    21A     -0.447405

  @DF-RHF Final Energy:  -196.39756196587967

   => Energetics <=

    Nuclear Repulsion Energy =            184.6552703816425094
    One-Electron Energy =                -629.1943043449894049
    Two-Electron Energy =                 248.1414719974672494
    Total Energy =                       -196.3975619658796745
  Basis Set: (AUG-CC-PVTZ AUX)
    Blend: AUG-CC-PVTZ-RI
    Molecular point group: c1

    Geometry (in Angstrom), charge = 0, multiplicity = 1:

       Center              X                  Y                   Z               Mass
    ------------   -----------------  -----------------  -----------------  -----------------
         C            2.542779430439    -0.332291584313    -0.000721611489    12.000000000000
         H            2.582419930439    -1.034516884313     0.964774588511     1.007825032230
         H            2.578748430439    -0.977362584313    -0.884228611489     1.007825032230
         H            3.443275430439     0.289008415687    -0.001509611489     1.007825032230
         C            1.275815430439     0.518901415687    -0.001202611489    12.000000000000
         H            1.274173430439     1.177115415687    -0.879175611489     1.007825032230
         H            1.273405430439     1.176797415687     0.877016388511     1.007825032230
         C           -0.000041569561    -0.319686584313    -0.001922611489    12.000000000000
         H           -0.000063569561    -0.978207584313    -0.881403611489     1.007825032230
         H            0.000007430439    -0.979937584313     0.876270388511     1.007825032230
         C           -1.275906569561     0.518883415687    -0.001089611489    12.000000000000
         H           -1.274253569561     1.177243415687    -0.878955611489     1.007825032230
         H           -1.273511569561     1.176642415687     0.877233388511     1.007825032230
         C           -2.542877569561    -0.332285584313    -0.000771611489    12.000000000000
         H           -2.579173569561    -0.975964584313     0.883724388511     1.007825032230
         H           -3.443358569561     0.289037415687    -0.001333611489     1.007825032230
         H           -2.578920569561    -0.977121584313    -0.884447611489     1.007825032230

  Basis Set: AUG-CC-PVTZ
    Blend: AUG-CC-PVTZ
  Basis Set: (AUG-CC-PVTZ AUX)
    Blend: AUG-CC-PVTZ-JKFIT
	 Reference Energy          =    -196.3975619658796745 [Eh]
	 Singles Energy            =      -0.0000000000000000 [Eh]
	 Same-Spin Energy          =      -0.2076561622337019 [Eh]
	 Opposite-Spin Energy      =      -0.7939612980334709 [Eh]
	 Correlation Energy        =      -1.0016174602671728 [Eh]
	 Total Energy              =    -197.3991794261468442 [Eh]

	 ================> DF-SCS-MP2 Energies <==================
	-----------------------------------------------------------
	 SCS Same-Spin Scale       =       0.3333333333333333 [-]
	 SCS Opposite-Spin Scale   =       1.2000000000000000 [-]
	 SCS Same-Spin Energy      =      -0.0692187207445673 [Eh]
	 SCS Opposite-Spin Energy  =      -0.9527535576401651 [Eh]
	 SCS Correlation Energy    =      -1.0219722783847325 [Eh]
	 SCS Total Energy          =    -197.4195342442644119 [Eh]
	-----------------------------------------------------------

  Dipole Moment: [D]
     X:    -0.0222      Y:     0.1386      Z:    -0.0566     Total:     0.1514

*** Psi4 exiting successfully. Buy a developer a beer!
