                               Psi4 1.3.2 release

  ==> Input File <==

--------------------------------------------------------------------------
#psi4
#
memory 32 gb

molecule  {
0 1
  C        2.5428260    -0.3261640     0.0004000
  H        2.5791480    -0.9696020     0.8850690
  H        2.5787950    -0.9712350    -0.8831070
  H        3.4433220     0.2951360    -0.0003880
  C        1.2758620     0.5250290    -0.0000810
  H        1.2743696     1.1232586    -0.7980425
  H        1.2734520     1.1829250     0.8781380
  C        0.0000050    -0.3135590    -0.0008010
  H       -0.0000170    -0.9720800    -0.8802820
  H        0.0000540    -0.9738100     0.8773920
  C       -1.2758600     0.5250110     0.0000320
  H       -1.2742070     1.1833710    -0.8778340
  H       -1.2734650     1.1827700     0.8783550
  C       -2.5428310    -0.3261580     0.0003500
  H       -2.5791270    -0.9698370     0.8848460
  H       -3.4433120     0.2951650    -0.0002120
  H       -2.5788740    -0.9709940    -0.8833260
units angstrom
no_reorient  #important for SAPT in psi4, default
symmetry c1  #important for SAPT in psi4, default
}

set PROPERTIES_ORIGIN ["COM"]
properties('MP2/aug-cc-pvtz', properties = ['dipole'])
--------------------------------------------------------------------------

    Molecular point group: c1
  Charge       = 0
  Multiplicity = 1
  Basis Set: AUG-CC-PVTZ
    Blend: AUG-CC-PVTZ
  Basis Set: (AUG-CC-PVTZ AUX)
    Blend: AUG-CC-PVTZ-JKFIT

    Orbital Energies [Eh]
    ---------------------

    Doubly Occupied:

       1A    -11.214713     2A    -11.211452     3A    -11.209284
       4A    -11.208367     5A    -11.201675     6A     -1.081037
       7A     -1.015672     8A     -0.916957     9A     -0.824168
      10A     -0.787919    11A     -0.648728    12A     -0.598757
      13A     -0.593374    14A     -0.552116    15A     -0.545673
      16A     -0.524452    17A     -0.496299    18A     -0.479359
      19A     -0.462530    20A     -0.458952    21A     -0.445703

  @DF-RHF Final Energy:  -196.39798671550506

   => Energetics <=

    Nuclear Repulsion Energy =            185.4757954693519366
    One-Electron Energy =                -630.7931935735434763
    Two-Electron Energy =                 248.9194113886864557
    Total Energy =                       -196.3979867155050556
  Basis Set: (AUG-CC-PVTZ AUX)
    Blend: AUG-CC-PVTZ-RI
    Molecular point group: c1

    Geometry (in Angstrom), charge = 0, multiplicity = 1:

       Center              X                  Y                   Z               Mass
    ------------   -----------------  -----------------  -----------------  -----------------
         C            2.542823729565    -0.332274849647    -0.000710208543    12.000000000000
         H            2.579145729565    -0.975712849647     0.883958791457     1.007825032230
         H            2.578792729565    -0.977345849647    -0.884217208543     1.007825032230
         H            3.443319729565     0.289025150353    -0.001498208543     1.007825032230
         C            1.275859729565     0.518918150353    -0.001191208543    12.000000000000
         H            1.274367329565     1.117147750353    -0.799152708543     1.007825032230
         H            1.273449729565     1.176814150353     0.877027791457     1.007825032230
         C            0.000002729565    -0.319669849647    -0.001911208543    12.000000000000
         H           -0.000019270435    -0.978190849647    -0.881392208543     1.007825032230
         H            0.000051729565    -0.979920849647     0.876281791457     1.007825032230
         C           -1.275862270435     0.518900150353    -0.001078208543    12.000000000000
         H           -1.274209270435     1.177260150353    -0.878944208543     1.007825032230
         H           -1.273467270435     1.176659150353     0.877244791457     1.007825032230
         C           -2.542833270435    -0.332268849647    -0.000760208543    12.000000000000
         H           -2.579129270435    -0.975947849647     0.883735791457     1.007825032230
         H           -3.443314270435     0.289054150353    -0.001322208543     1.007825032230
         H           -2.578876270435    -0.977104849647    -0.884436208543     1.007825032230

  Basis Set: AUG-CC-PVTZ
    Blend: AUG-CC-PVTZ
  Basis Set: (AUG-CC-PVTZ AUX)
    Blend: AUG-CC-PVTZ-JKFIT
	 Reference Energy          =    -196.3979867155050556 [Eh]
	 Singles Energy            =      -0.0000000000000000 [Eh]
	 Same-Spin Energy          =      -0.2077490562815465 [Eh]
	 Opposite-Spin Energy      =      -0.7928753760696863 [Eh]
	 Correlation Energy        =      -1.0006244323512328 [Eh]
	 Total Energy              =    -197.3986111478562862 [Eh]

	 ================> DF-SCS-MP2 Energies <==================
	-----------------------------------------------------------
	 SCS Same-Spin Scale       =       0.3333333333333333 [-]
	 SCS Opposite-Spin Scale   =       1.2000000000000000 [-]
	 SCS Same-Spin Energy      =      -0.0692496854271822 [Eh]
	 SCS Opposite-Spin Energy  =      -0.9514504512836235 [Eh]
	 SCS Correlation Energy    =      -1.0207001367108057 [Eh]
	 SCS Total Energy          =    -197.4186868522158704 [Eh]
	-----------------------------------------------------------

  Dipole Moment: [D]
     X:    -0.0010      Y:     0.1391      Z:    -0.0453     Total:     0.1462

*** Psi4 exiting successfully. Buy a developer a beer!
