                               Psi4 1.3.2 release

  ==> Input File <==

--------------------------------------------------------------------------
#psi4
#
memory 32 gb

molecule  {
0 1
  C        2.5428260    -0.3261640     0.0004000
  H        2.5791480    -0.9696020     0.8850690
  H        2.5787950    -0.9712350    -0.8831070
  H        3.4433220     0.2951360    -0.0003880
  C        1.2758620     0.5250290    -0.0000810
  H        1.2742725     1.1678201    -0.8894077
  H        1.2734520     1.1829250     0.8781380
  C        0.0000050    -0.3135590    -0.0008010
  H       -0.0000170    -0.9720800    -0.8802820
  H        0.0000540    -0.9738100     0.8773920
  C       -1.2758600     0.5250110     0.0000320
  H       -1.2742070     1.1833710    -0.8778340
  H       -1.2734650     1.1827700     0.8783550
  C       -2.5428310    -0.3261580     0.0003500
  H       -2.5791270    -0.9698370     0.8848460
  H       -3.4433120     0.2951650    -0.0002120
  H       -2.5788740    -0.9709940    -0.8833260
units angstrom
no_reorient  #important for SAPT in psi4, default
symmetry c1  #important for SAPT in psi4, default
}

set PROPERTIES_ORIGIN ["COM"]
properties('MP2/aug-cc-pvtz', properties = ['dipole'])
--------------------------------------------------------------------------

    Molecular point group: c1
  Charge       = 0
  Multiplicity = 1
  Basis Set: AUG-CC-PVTZ
    Blend: AUG-CC-PVTZ
  Basis Set: (AUG-CC-PVTZ AUX)
    Blend: AUG-CC-PVTZ-JKFIT

    Orbital Energies [Eh]
    ---------------------

    Doubly Occupied:

       1A    -11.214845     2A    -11.214758     3A    -11.212361
       4A    -11.209379     5A    -11.209284     6A     -1.078934
       7A     -1.013615     8A     -0.917526     9A     -0.818209
      10A     -0.782739    11A     -0.645835    12A     -0.596394
      13A     -0.591991    14A     -0.552738    15A     -0.546111
      16A     -0.524932    17A     -0.493109    18A     -0.475724
      19A     -0.460251    20A     -0.458633    21A     -0.446603

  @DF-RHF Final Energy:  -196.40381999424309

   => Energetics <=

    Nuclear Repulsion Energy =            185.0270324234133454
    One-Electron Energy =                -629.9337676362280263
    Two-Electron Energy =                 248.5029152185715873
    Total Energy =                       -196.4038199942430936
  Basis Set: (AUG-CC-PVTZ AUX)
    Blend: AUG-CC-PVTZ-RI
    Molecular point group: c1

    Geometry (in Angstrom), charge = 0, multiplicity = 1:

       Center              X                  Y                   Z               Mass
    ------------   -----------------  -----------------  -----------------  -----------------
         C            2.542825086958    -0.332897789937     0.000567016508    12.000000000000
         H            2.579147086958    -0.976335789937     0.885236016508     1.007825032230
         H            2.578794086958    -0.977968789937    -0.882939983492     1.007825032230
         H            3.443321086958     0.288402210063    -0.000220983492     1.007825032230
         C            1.275861086958     0.518295210063     0.000086016508    12.000000000000
         H            1.274271586958     1.161086310063    -0.889240683492     1.007825032230
         H            1.273451086958     1.176191210063     0.878305016508     1.007825032230
         C            0.000004086958    -0.320292789937    -0.000633983492    12.000000000000
         H           -0.000017913042    -0.978813789937    -0.880114983492     1.007825032230
         H            0.000053086958    -0.980543789937     0.877559016508     1.007825032230
         C           -1.275860913042     0.518277210063     0.000199016508    12.000000000000
         H           -1.274207913042     1.176637210063    -0.877666983492     1.007825032230
         H           -1.273465913042     1.176036210063     0.878522016508     1.007825032230
         C           -2.542831913042    -0.332891789937     0.000517016508    12.000000000000
         H           -2.579127913042    -0.976570789937     0.885013016508     1.007825032230
         H           -3.443312913042     0.288431210063    -0.000044983492     1.007825032230
         H           -2.578874913042    -0.977727789937    -0.883158983492     1.007825032230

  Basis Set: AUG-CC-PVTZ
    Blend: AUG-CC-PVTZ
  Basis Set: (AUG-CC-PVTZ AUX)
    Blend: AUG-CC-PVTZ-JKFIT
	 Reference Energy          =    -196.4038199942430936 [Eh]
	 Singles Energy            =      -0.0000000000000000 [Eh]
	 Same-Spin Energy          =      -0.2077217657132522 [Eh]
	 Opposite-Spin Energy      =      -0.7933478595175170 [Eh]
	 Correlation Energy        =      -1.0010696252307691 [Eh]
	 Total Energy              =    -197.4048896194738631 [Eh]

	 ================> DF-SCS-MP2 Energies <==================
	-----------------------------------------------------------
	 SCS Same-Spin Scale       =       0.3333333333333333 [-]
	 SCS Opposite-Spin Scale   =       1.2000000000000000 [-]
	 SCS Same-Spin Energy      =      -0.0692405885710841 [Eh]
	 SCS Opposite-Spin Energy  =      -0.9520174314210204 [Eh]
	 SCS Correlation Energy    =      -1.0212580199921044 [Eh]
	 SCS Total Energy          =    -197.4250780142351971 [Eh]
	-----------------------------------------------------------

  Dipole Moment: [D]
     X:     0.0000      Y:     0.0847      Z:    -0.0023     Total:     0.0848

*** Psi4 exiting successfully. Buy a developer a beer!
