                               Psi4 1.3.2 release

  ==> Input File <==

--------------------------------------------------------------------------
#psi4
#
memory 32 gb

molecule  {
0 1
  C        2.5428260    -0.3261640     0.0004000
  H        2.5791480    -0.9696020     0.8850690
  H        2.5787950    -0.9712350    -0.8831070
  H        3.4433220     0.2951360    -0.0003880
  C        1.2758620     0.5250290    -0.0000810
  H        1.2739207     1.3032119    -1.0380771
  H        1.2734520     1.1829250     0.8781380
  C        0.0000050    -0.3135590    -0.0008010
  H       -0.0000170    -0.9720800    -0.8802820
  H        0.0000540    -0.9738100     0.8773920
  C       -1.2758600     0.5250110     0.0000320
  H       -1.2742070     1.1833710    -0.8778340
  H       -1.2734650     1.1827700     0.8783550
  C       -2.5428310    -0.3261580     0.0003500
  H       -2.5791270    -0.9698370     0.8848460
  H       -3.4433120     0.2951650    -0.0002120
  H       -2.5788740    -0.9709940    -0.8833260
units angstrom
no_reorient  #important for SAPT in psi4, default
symmetry c1  #important for SAPT in psi4, default
}

set PROPERTIES_ORIGIN ["COM"]
properties('MP2/aug-cc-pvtz', properties = ['dipole'])
--------------------------------------------------------------------------

    Molecular point group: c1
  Charge       = 0
  Multiplicity = 1
  Basis Set: AUG-CC-PVTZ
    Blend: AUG-CC-PVTZ
  Basis Set: (AUG-CC-PVTZ AUX)
    Blend: AUG-CC-PVTZ-JKFIT

    Orbital Energies [Eh]
    ---------------------

    Doubly Occupied:

       1A    -11.238965     2A    -11.215714     3A    -11.214930
       4A    -11.212406     5A    -11.209782     6A     -1.077642
       7A     -1.012061     8A     -0.919331     9A     -0.814153
      10A     -0.775526    11A     -0.641037    12A     -0.597638
      13A     -0.584615    14A     -0.554854    15A     -0.547589
      16A     -0.526411    17A     -0.492916    18A     -0.470609
      19A     -0.462128    20A     -0.449335    21A     -0.441144

  @DF-RHF Final Energy:  -196.38458373512179

   => Energetics <=

    Nuclear Repulsion Energy =            184.2466141671470439
    One-Electron Energy =                -628.3448247248496727
    Two-Electron Energy =                 247.7136268225808067
    Total Energy =                       -196.3845837351217938
  Basis Set: (AUG-CC-PVTZ AUX)
    Blend: AUG-CC-PVTZ-RI
    Molecular point group: c1

    Geometry (in Angstrom), charge = 0, multiplicity = 1:

       Center              X                  Y                   Z               Mass
    ------------   -----------------  -----------------  -----------------  -----------------
         C            2.542830004890    -0.334790477730     0.002645316365    12.000000000000
         H            2.579152004890    -0.978228477730     0.887314316365     1.007825032230
         H            2.578799004890    -0.979861477730    -0.880861683635     1.007825032230
         H            3.443326004890     0.286509522270     0.001857316365     1.007825032230
         C            1.275866004890     0.516402522270     0.002164316365    12.000000000000
         H            1.273924704890     1.294585422270    -1.035831783635     1.007825032230
         H            1.273456004890     1.174298522270     0.880383316365     1.007825032230
         C            0.000009004890    -0.322185477730     0.001444316365    12.000000000000
         H           -0.000012995110    -0.980706477730    -0.878036683635     1.007825032230
         H            0.000058004890    -0.982436477730     0.879637316365     1.007825032230
         C           -1.275855995110     0.516384522270     0.002277316365    12.000000000000
         H           -1.274202995110     1.174744522270    -0.875588683635     1.007825032230
         H           -1.273460995110     1.174143522270     0.880600316365     1.007825032230
         C           -2.542826995110    -0.334784477730     0.002595316365    12.000000000000
         H           -2.579122995110    -0.978463477730     0.887091316365     1.007825032230
         H           -3.443307995110     0.286538522270     0.002033316365     1.007825032230
         H           -2.578869995110    -0.979620477730    -0.881080683635     1.007825032230

  Basis Set: AUG-CC-PVTZ
    Blend: AUG-CC-PVTZ
  Basis Set: (AUG-CC-PVTZ AUX)
    Blend: AUG-CC-PVTZ-JKFIT
	 Reference Energy          =    -196.3845837351217938 [Eh]
	 Singles Energy            =      -0.0000000000000000 [Eh]
	 Same-Spin Energy          =      -0.2076747524484505 [Eh]
	 Opposite-Spin Energy      =      -0.7948192482120804 [Eh]
	 Correlation Energy        =      -1.0024940006605307 [Eh]
	 Total Energy              =    -197.3870777357823272 [Eh]

	 ================> DF-SCS-MP2 Energies <==================
	-----------------------------------------------------------
	 SCS Same-Spin Scale       =       0.3333333333333333 [-]
	 SCS Opposite-Spin Scale   =       1.2000000000000000 [-]
	 SCS Same-Spin Energy      =      -0.0692249174828168 [Eh]
	 SCS Opposite-Spin Energy  =      -0.9537830978544964 [Eh]
	 SCS Correlation Energy    =      -1.0230080153373133 [Eh]
	 SCS Total Energy          =    -197.4075917504591189 [Eh]
	-----------------------------------------------------------

  Dipole Moment: [D]
     X:    -0.0008      Y:    -0.0584      Z:     0.1350     Total:     0.1471

*** Psi4 exiting successfully. Buy a developer a beer!
