                               Psi4 1.3.2 release

  ==> Input File <==

--------------------------------------------------------------------------
#psi4
#
memory 32 gb

molecule  {
0 1
  C        2.5428260    -0.3261640     0.0004000
  H        2.5791480    -0.9696020     0.8850690
  H        2.5787950    -0.9712350    -0.8831070
  H        3.4433220     0.2951360    -0.0003880
  C        1.2758620     0.5250290    -0.0000810
  H        1.2745193     1.0632741    -0.7180309
  H        1.2734520     1.1829250     0.8781380
  C        0.0000050    -0.3135590    -0.0008010
  H       -0.0000170    -0.9720800    -0.8802820
  H        0.0000540    -0.9738100     0.8773920
  C       -1.2758600     0.5250110     0.0000320
  H       -1.2742070     1.1833710    -0.8778340
  H       -1.2734650     1.1827700     0.8783550
  C       -2.5428310    -0.3261580     0.0003500
  H       -2.5791270    -0.9698370     0.8848460
  H       -3.4433120     0.2951650    -0.0002120
  H       -2.5788740    -0.9709940    -0.8833260
units angstrom
no_reorient  #important for SAPT in psi4, default
symmetry c1  #important for SAPT in psi4, default
}

set PROPERTIES_ORIGIN ["COM"]
properties('MP2/aug-cc-pvtz', properties = ['dipole'])
--------------------------------------------------------------------------

    Molecular point group: c1
  Charge       = 0
  Multiplicity = 1
  Basis Set: AUG-CC-PVTZ
    Blend: AUG-CC-PVTZ
  Basis Set: (AUG-CC-PVTZ AUX)
    Blend: AUG-CC-PVTZ-JKFIT

    Orbital Energies [Eh]
    ---------------------

    Doubly Occupied:

       1A    -11.214700     2A    -11.210684     3A    -11.209237
       4A    -11.207612     5A    -11.188753     6A     -1.084846
       7A     -1.018828     8A     -0.916571     9A     -0.834096
      10A     -0.791989    11A     -0.652872    12A     -0.602408
      13A     -0.593635    14A     -0.551730    15A     -0.545310
      16A     -0.524135    17A     -0.500816    18A     -0.482171
      19A     -0.463602    20A     -0.458641    21A     -0.445077

  @DF-RHF Final Energy:  -196.37076820413873

   => Energetics <=

    Nuclear Repulsion Energy =            186.0022104639412532
    One-Electron Energy =                -631.7505294605971358
    Two-Electron Energy =                 249.3775507925171553
    Total Energy =                       -196.3707682041387272
  Basis Set: (AUG-CC-PVTZ AUX)
    Blend: AUG-CC-PVTZ-RI
    Molecular point group: c1

    Geometry (in Angstrom), charge = 0, multiplicity = 1:

       Center              X                  Y                   Z               Mass
    ------------   -----------------  -----------------  -----------------  -----------------
         C            2.542821636858    -0.331436306021    -0.001828717778    12.000000000000
         H            2.579143636858    -0.974874306021     0.882840282222     1.007825032230
         H            2.578790636858    -0.976507306021    -0.885335717778     1.007825032230
         H            3.443317636858     0.289863693979    -0.002616717778     1.007825032230
         C            1.275857636858     0.519756693979    -0.002309717778    12.000000000000
         H            1.274514936858     1.058001793979    -0.720259617778     1.007825032230
         H            1.273447636858     1.177652693979     0.875909282222     1.007825032230
         C            0.000000636858    -0.318831306021    -0.003029717778    12.000000000000
         H           -0.000021363142    -0.977352306021    -0.882510717778     1.007825032230
         H            0.000049636858    -0.979082306021     0.875163282222     1.007825032230
         C           -1.275864363142     0.519738693979    -0.002196717778    12.000000000000
         H           -1.274211363142     1.178098693979    -0.880062717778     1.007825032230
         H           -1.273469363142     1.177497693979     0.876126282222     1.007825032230
         C           -2.542835363142    -0.331430306021    -0.001878717778    12.000000000000
         H           -2.579131363142    -0.975109306021     0.882617282222     1.007825032230
         H           -3.443316363142     0.289892693979    -0.002440717778     1.007825032230
         H           -2.578878363142    -0.976266306021    -0.885554717778     1.007825032230

  Basis Set: AUG-CC-PVTZ
    Blend: AUG-CC-PVTZ
  Basis Set: (AUG-CC-PVTZ AUX)
    Blend: AUG-CC-PVTZ-JKFIT
	 Reference Energy          =    -196.3707682041387272 [Eh]
	 Singles Energy            =      -0.0000000000000000 [Eh]
	 Same-Spin Energy          =      -0.2078317727400349 [Eh]
	 Opposite-Spin Energy      =      -0.7927766201773470 [Eh]
	 Correlation Energy        =      -1.0006083929173819 [Eh]
	 Total Energy              =    -197.3713765970560985 [Eh]

	 ================> DF-SCS-MP2 Energies <==================
	-----------------------------------------------------------
	 SCS Same-Spin Scale       =       0.3333333333333333 [-]
	 SCS Opposite-Spin Scale   =       1.2000000000000000 [-]
	 SCS Same-Spin Energy      =      -0.0692772575800116 [Eh]
	 SCS Opposite-Spin Energy  =      -0.9513319442128163 [Eh]
	 SCS Correlation Energy    =      -1.0206092017928279 [Eh]
	 SCS Total Energy          =    -197.3913774059315642 [Eh]
	-----------------------------------------------------------

  Dipole Moment: [D]
     X:    -0.0026      Y:     0.1758      Z:    -0.0752     Total:     0.1912

*** Psi4 exiting successfully. Buy a developer a beer!
