                               Psi4 1.3.2 release

  ==> Input File <==

--------------------------------------------------------------------------
#psi4
#
memory 32 gb

molecule  {
0 1
  C        2.5428260    -0.3261640     0.0004000
  H        2.5791480    -0.9696020     0.8850690
  H        2.5787950    -0.9712350    -0.8831070
  H        3.4433220     0.2951360    -0.0003880
  C        1.2758620     0.5250290    -0.0000810
  H        1.2742200     1.1832430    -0.8780540
  H        1.2734520     1.1829250     0.8781380
  C       -0.0835605    -0.3684845    -0.0008482
  H       -0.0000170    -0.9720800    -0.8802820
  H        0.0000540    -0.9738100     0.8773920
  C       -1.2758600     0.5250110     0.0000320
  H       -1.2742070     1.1833710    -0.8778340
  H       -1.2734650     1.1827700     0.8783550
  C       -2.5428310    -0.3261580     0.0003500
  H       -2.5791270    -0.9698370     0.8848460
  H       -3.4433120     0.2951650    -0.0002120
  H       -2.5788740    -0.9709940    -0.8833260
units angstrom
no_reorient  #important for SAPT in psi4, default
symmetry c1  #important for SAPT in psi4, default
}

set PROPERTIES_ORIGIN ["COM"]
properties('MP2/aug-cc-pvtz', properties = ['dipole'])
--------------------------------------------------------------------------

    Molecular point group: c1
  Charge       = 0
  Multiplicity = 1
  Basis Set: AUG-CC-PVTZ
    Blend: AUG-CC-PVTZ
  Basis Set: (AUG-CC-PVTZ AUX)
    Blend: AUG-CC-PVTZ-JKFIT

    Orbital Energies [Eh]
    ---------------------

    Doubly Occupied:

       1A    -11.217131     2A    -11.213460     3A    -11.210756
       4A    -11.208651     5A    -11.207796     6A     -1.076231
       7A     -1.010737     8A     -0.915697     9A     -0.814243
      10A     -0.788637    11A     -0.647798    12A     -0.595686
      13A     -0.590495    14A     -0.549150    15A     -0.544485
      16A     -0.530163    17A     -0.493923    18A     -0.474195
      19A     -0.471709    20A     -0.467699    21A     -0.421355

  @DF-RHF Final Energy:  -196.39567841159410

   => Energetics <=

    Nuclear Repulsion Energy =            184.6439655498868149
    One-Electron Energy =                -629.1792972443602139
    Two-Electron Energy =                 248.1396532828792658
    Total Energy =                       -196.3956784115941048
  Basis Set: (AUG-CC-PVTZ AUX)
    Blend: AUG-CC-PVTZ-RI
    Molecular point group: c1

    Geometry (in Angstrom), charge = 0, multiplicity = 1:

       Center              X                  Y                   Z               Mass
    ------------   -----------------  -----------------  -----------------  -----------------
         C            2.556735263900    -0.323971065043     0.000416155714    12.000000000000
         H            2.593057263900    -0.967409065043     0.885085155714     1.007825032230
         H            2.592704263900    -0.969042065043    -0.883090844286     1.007825032230
         H            3.457231263900     0.297328934957    -0.000371844286     1.007825032230
         C            1.289771263900     0.527221934957    -0.000064844286    12.000000000000
         H            1.288129263900     1.185435934957    -0.878037844286     1.007825032230
         H            1.287361263900     1.185117934957     0.878154155714     1.007825032230
         C           -0.069651236100    -0.366291565043    -0.000832044286    12.000000000000
         H            0.013892263900    -0.969887065043    -0.880265844286     1.007825032230
         H            0.013963263900    -0.971617065043     0.877408155714     1.007825032230
         C           -1.261950736100     0.527203934957     0.000048155714    12.000000000000
         H           -1.260297736100     1.185563934957    -0.877817844286     1.007825032230
         H           -1.259555736100     1.184962934957     0.878371155714     1.007825032230
         C           -2.528921736100    -0.323965065043     0.000366155714    12.000000000000
         H           -2.565217736100    -0.967644065043     0.884862155714     1.007825032230
         H           -3.429402736100     0.297357934957    -0.000195844286     1.007825032230
         H           -2.564964736100    -0.968801065043    -0.883309844286     1.007825032230

  Basis Set: AUG-CC-PVTZ
    Blend: AUG-CC-PVTZ
  Basis Set: (AUG-CC-PVTZ AUX)
    Blend: AUG-CC-PVTZ-JKFIT
	 Reference Energy          =    -196.3956784115941048 [Eh]
	 Singles Energy            =      -0.0000000000000000 [Eh]
	 Same-Spin Energy          =      -0.2077551087578763 [Eh]
	 Opposite-Spin Energy      =      -0.7937613241730797 [Eh]
	 Correlation Energy        =      -1.0015164329309558 [Eh]
	 Total Energy              =    -197.3971948445250746 [Eh]

	 ================> DF-SCS-MP2 Energies <==================
	-----------------------------------------------------------
	 SCS Same-Spin Scale       =       0.3333333333333333 [-]
	 SCS Opposite-Spin Scale   =       1.2000000000000000 [-]
	 SCS Same-Spin Energy      =      -0.0692517029192921 [Eh]
	 SCS Opposite-Spin Energy  =      -0.9525135890076956 [Eh]
	 SCS Correlation Energy    =      -1.0217652919269877 [Eh]
	 SCS Total Energy          =    -197.4174437035210872 [Eh]
	-----------------------------------------------------------

  Dipole Moment: [D]
     X:    -0.0031      Y:     0.0783      Z:    -0.0001     Total:     0.0784

*** Psi4 exiting successfully. Buy a developer a beer!
