                               Psi4 1.4a3.dev225

  ==> Input File <==

--------------------------------------------------------------------------
#psi4
#
memory 32 gb

molecule  {
0 1
  C        2.5434150    -0.3258570     0.0000020
  H        2.5799190    -0.9700390     0.8840510
  H        2.5798870    -0.9701100    -0.8839970
  H        3.4436120     0.2958290    -0.0000390
  C        1.2759530     0.5247200    -0.0000120
  H        1.2739300     1.1828070    -0.8780290
  H        1.2739250     1.1828280     0.8779900
  C        0.0167141    -0.3027735    -0.0000051
  H       -0.0000060    -0.9732170    -0.8787350
  H        0.0000060    -0.9732200     0.8787230
  C       -1.2759530     0.5247200     0.0000030
  H       -1.2739340     1.1828180    -0.8780070
  H       -1.2739210     1.1828170     0.8780130
  C       -2.5434150    -0.3258570     0.0000110
  H       -2.5799100    -0.9700590     0.8840460
  H       -3.4436120     0.2958290    -0.0000090
  H       -2.5798950    -0.9700920    -0.8840020
units angstrom
no_reorient  #important for SAPT in psi4, default
symmetry c1  #important for SAPT in psi4, default
}

set PROPERTIES_ORIGIN ["COM"]
properties('MP2/aug-cc-pvtz', properties = ['dipole'])
--------------------------------------------------------------------------

    Molecular point group: c1
  Charge       = 0
  Multiplicity = 1
  Basis Set: AUG-CC-PVTZ
    Blend: AUG-CC-PVTZ
  Basis Set: (AUG-CC-PVTZ AUX)
    Blend: AUG-CC-PVTZ-JKFIT

    Orbital Energies [Eh]
    ---------------------

    Doubly Occupied:

       1A    -11.215177     2A    -11.214226     3A    -11.213071
       4A    -11.209741     5A    -11.209543     6A     -1.080064
       7A     -1.014030     8A     -0.918003     9A     -0.819285
      10A     -0.781891    11A     -0.645035    12A     -0.597444
      13A     -0.591717    14A     -0.553955    15A     -0.546192
      16A     -0.524044    17A     -0.493745    18A     -0.475407
      19A     -0.461518    20A     -0.455893    21A     -0.447783

  @DF-RHF Final Energy:  -196.40335224241366

   => Energetics <=

    Nuclear Repulsion Energy =            185.0895633391304500
    One-Electron Energy =                -630.0503028372894505
    Two-Electron Energy =                 248.5573872557453399
    Total Energy =                       -196.4033522424136606
  Basis Set: (AUG-CC-PVTZ AUX)
    Blend: AUG-CC-PVTZ-RI
    Molecular point group: c1

    Geometry (in Angstrom), charge = 0, multiplicity = 1:

       Center              X                  Y                   Z               Mass
    ------------   -----------------  -----------------  -----------------  -----------------
         C            2.540632930966    -0.334618887968     0.000002113198    12.000000000000
         H            2.577136930966    -0.978800887968     0.884051113198     1.007825032230
         H            2.577104930966    -0.978871887968    -0.883996886802     1.007825032230
         H            3.440829930966     0.287067112032    -0.000038886802     1.007825032230
         C            1.273170930966     0.515958112032    -0.000011886802    12.000000000000
         H            1.271147930966     1.174045112032    -0.878028886802     1.007825032230
         H            1.271142930966     1.174066112032     0.877990113198     1.007825032230
         C            0.013932030966    -0.311535387968    -0.000004986802    12.000000000000
         H           -0.002788069034    -0.981978887968    -0.878734886802     1.007825032230
         H           -0.002776069034    -0.981981887968     0.878723113198     1.007825032230
         C           -1.278735069034     0.515958112032     0.000003113198    12.000000000000
         H           -1.276716069034     1.174056112032    -0.878006886802     1.007825032230
         H           -1.276703069034     1.174055112032     0.878013113198     1.007825032230
         C           -2.546197069034    -0.334618887968     0.000011113198    12.000000000000
         H           -2.582692069034    -0.978820887968     0.884046113198     1.007825032230
         H           -3.446394069034     0.287067112032    -0.000008886802     1.007825032230
         H           -2.582677069034    -0.978853887968    -0.884001886802     1.007825032230

  Basis Set: AUG-CC-PVTZ
    Blend: AUG-CC-PVTZ
  Basis Set: (AUG-CC-PVTZ AUX)
    Blend: AUG-CC-PVTZ-JKFIT
	 Reference Energy          =    -196.4033522424136606 [Eh]
	 Singles Energy            =      -0.0000000000000000 [Eh]
	 Same-Spin Energy          =      -0.2078041767532343 [Eh]
	 Opposite-Spin Energy      =      -0.7934138895404105 [Eh]
	 Correlation Energy        =      -1.0012180662936447 [Eh]
	 Total Energy              =    -197.4045703087072923 [Eh]

	 ================> DF-SCS-MP2 Energies <==================
	-----------------------------------------------------------
	 SCS Same-Spin Scale       =       0.3333333333333333 [-]
	 SCS Opposite-Spin Scale   =       1.2000000000000000 [-]
	 SCS Same-Spin Energy      =      -0.0692680589177447 [Eh]
	 SCS Opposite-Spin Energy  =      -0.9520966674484925 [Eh]
	 SCS Correlation Energy    =      -1.0213647263662373 [Eh]
	 SCS Total Energy          =    -197.4247169687799044 [Eh]
	-----------------------------------------------------------

  Dipole Moment: [D]
     X:     0.0009      Y:     0.0912      Z:    -0.0000     Total:     0.0912

*** Psi4 exiting successfully. Buy a developer a beer!
