                               Psi4 1.4a3.dev225

  ==> Input File <==

--------------------------------------------------------------------------
#psi4
#
memory 32 gb

molecule  {
0 1
  C        2.5434150    -0.3258570     0.0000020
  H        2.5799190    -0.9700390     0.8840510
  H        2.5798870    -0.9701100    -0.8839970
  H        3.4436120     0.2958290    -0.0000390
  C        1.2925600     0.5135752    -0.0000118
  H        1.2739300     1.1828070    -0.8780290
  H        1.2739250     1.1828280     0.8779900
  C        0.0000000    -0.3137570    -0.0000050
  H       -0.0000060    -0.9732170    -0.8787350
  H        0.0000060    -0.9732200     0.8787230
  C       -1.2759530     0.5247200     0.0000030
  H       -1.2739340     1.1828180    -0.8780070
  H       -1.2739210     1.1828170     0.8780130
  C       -2.5434150    -0.3258570     0.0000110
  H       -2.5799100    -0.9700590     0.8840460
  H       -3.4436120     0.2958290    -0.0000090
  H       -2.5798950    -0.9700920    -0.8840020
units angstrom
no_reorient  #important for SAPT in psi4, default
symmetry c1  #important for SAPT in psi4, default
}

set PROPERTIES_ORIGIN ["COM"]
properties('MP2/aug-cc-pvtz', properties = ['dipole'])
--------------------------------------------------------------------------

    Molecular point group: c1
  Charge       = 0
  Multiplicity = 1
  Basis Set: AUG-CC-PVTZ
    Blend: AUG-CC-PVTZ
  Basis Set: (AUG-CC-PVTZ AUX)
    Blend: AUG-CC-PVTZ-JKFIT

    Orbital Energies [Eh]
    ---------------------

    Doubly Occupied:

       1A    -11.215395     2A    -11.215087     3A    -11.212792
       4A    -11.209584     5A    -11.208844     6A     -1.078792
       7A     -1.015790     8A     -0.918184     9A     -0.817698
      10A     -0.782123    11A     -0.644589    12A     -0.597302
      13A     -0.591911    14A     -0.554049    15A     -0.547393
      16A     -0.525073    17A     -0.495040    18A     -0.473556
      19A     -0.459972    20A     -0.456673    21A     -0.447345

  @DF-RHF Final Energy:  -196.40334495816171

   => Energetics <=

    Nuclear Repulsion Energy =            185.0186739743320459
    One-Electron Energy =                -629.9096533523710377
    Two-Electron Energy =                 248.4876344198772813
    Total Energy =                       -196.4033449581617106
  Basis Set: (AUG-CC-PVTZ AUX)
    Blend: AUG-CC-PVTZ-RI
    Molecular point group: c1

    Geometry (in Angstrom), charge = 0, multiplicity = 1:

       Center              X                  Y                   Z               Mass
    ------------   -----------------  -----------------  -----------------  -----------------
         C            2.540650757717    -0.330935641555     0.000002063263    12.000000000000
         H            2.577154757717    -0.975117641555     0.884051063263     1.007825032230
         H            2.577122757717    -0.975188641555    -0.883996936737     1.007825032230
         H            3.440847757717     0.290750358445    -0.000038936737     1.007825032230
         C            1.289795757717     0.508496558445    -0.000011736737    12.000000000000
         H            1.271165757717     1.177728358445    -0.878028936737     1.007825032230
         H            1.271160757717     1.177749358445     0.877990063263     1.007825032230
         C           -0.002764242283    -0.318835641555    -0.000004936737    12.000000000000
         H           -0.002770242283    -0.978295641555    -0.878734936737     1.007825032230
         H           -0.002758242283    -0.978298641555     0.878723063263     1.007825032230
         C           -1.278717242283     0.519641358445     0.000003063263    12.000000000000
         H           -1.276698242283     1.177739358445    -0.878006936737     1.007825032230
         H           -1.276685242283     1.177738358445     0.878013063263     1.007825032230
         C           -2.546179242283    -0.330935641555     0.000011063263    12.000000000000
         H           -2.582674242283    -0.975137641555     0.884046063263     1.007825032230
         H           -3.446376242283     0.290750358445    -0.000008936737     1.007825032230
         H           -2.582659242283    -0.975170641555    -0.884001936737     1.007825032230

  Basis Set: AUG-CC-PVTZ
    Blend: AUG-CC-PVTZ
  Basis Set: (AUG-CC-PVTZ AUX)
    Blend: AUG-CC-PVTZ-JKFIT
	 Reference Energy          =    -196.4033449581617106 [Eh]
	 Singles Energy            =      -0.0000000000000000 [Eh]
	 Same-Spin Energy          =      -0.2077914213778174 [Eh]
	 Opposite-Spin Energy      =      -0.7934019196738014 [Eh]
	 Correlation Energy        =      -1.0011933410516187 [Eh]
	 Total Energy              =    -197.4045382992133284 [Eh]

	 ================> DF-SCS-MP2 Energies <==================
	-----------------------------------------------------------
	 SCS Same-Spin Scale       =       0.3333333333333333 [-]
	 SCS Opposite-Spin Scale   =       1.2000000000000000 [-]
	 SCS Same-Spin Energy      =      -0.0692638071259391 [Eh]
	 SCS Opposite-Spin Energy  =      -0.9520823036085616 [Eh]
	 SCS Correlation Energy    =      -1.0213461107345008 [Eh]
	 SCS Total Energy          =    -197.4246910688962089 [Eh]
	-----------------------------------------------------------

  Dipole Moment: [D]
     X:     0.0053      Y:     0.0811      Z:    -0.0000     Total:     0.0813

*** Psi4 exiting successfully. Buy a developer a beer!
