                               Psi4 1.3.2 release

  ==> Input File <==

--------------------------------------------------------------------------
#psi4
#
memory 32 gb

molecule  {
0 1
  C        2.5428260    -0.3261640     0.0004000
  H        2.5791480    -0.9696020     0.8850690
  H        2.5787950    -0.9712350    -0.8831070
  H        3.4433220     0.2951360    -0.0003880
  C        1.2758620     0.5250290    -0.0000810
  H        1.2742200     1.1832430    -0.8780540
  H        1.2734520     1.1829250     0.8781380
  C        0.0000050    -0.3135590    -0.0008010
  H       -0.0000210    -1.0919530    -1.0403772
  H        0.0000540    -0.9738100     0.8773920
  C       -1.2758600     0.5250110     0.0000320
  H       -1.2742070     1.1833710    -0.8778340
  H       -1.2734650     1.1827700     0.8783550
  C       -2.5428310    -0.3261580     0.0003500
  H       -2.5791270    -0.9698370     0.8848460
  H       -3.4433120     0.2951650    -0.0002120
  H       -2.5788740    -0.9709940    -0.8833260
units angstrom
no_reorient  #important for SAPT in psi4, default
symmetry c1  #important for SAPT in psi4, default
}

set PROPERTIES_ORIGIN ["COM"]
properties('MP2/aug-cc-pvtz', properties = ['dipole'])
--------------------------------------------------------------------------

    Molecular point group: c1
  Charge       = 0
  Multiplicity = 1
  Basis Set: AUG-CC-PVTZ
    Blend: AUG-CC-PVTZ
  Basis Set: (AUG-CC-PVTZ AUX)
    Blend: AUG-CC-PVTZ-JKFIT

    Orbital Energies [Eh]
    ---------------------

    Doubly Occupied:

       1A    -11.236707     2A    -11.217779     3A    -11.217758
       4A    -11.209780     5A    -11.209779     6A     -1.076890
       7A     -1.014887     8A     -0.914177     9A     -0.820029
      10A     -0.772957    11A     -0.638960    12A     -0.598238
      13A     -0.592536    14A     -0.552754    15A     -0.545191
      16A     -0.515748    17A     -0.494814    18A     -0.476440
      19A     -0.462996    20A     -0.449608    21A     -0.440066

  @DF-RHF Final Energy:  -196.38465774083019

   => Energetics <=

    Nuclear Repulsion Energy =            184.2297974244420686
    One-Electron Energy =                -628.3127234456778751
    Two-Electron Energy =                 247.6982682804056424
    Total Energy =                       -196.3846577408301926
  Basis Set: (AUG-CC-PVTZ AUX)
    Blend: AUG-CC-PVTZ-RI
    Molecular point group: c1

    Geometry (in Angstrom), charge = 0, multiplicity = 1:

       Center              X                  Y                   Z               Mass
    ------------   -----------------  -----------------  -----------------  -----------------
         C            2.542825876791    -0.331437646640     0.002646324276    12.000000000000
         H            2.579147876791    -0.974875646640     0.887315324276     1.007825032230
         H            2.578794876791    -0.976508646640    -0.880860675724     1.007825032230
         H            3.443321876791     0.289862353360     0.001858324276     1.007825032230
         C            1.275861876791     0.519755353360     0.002165324276    12.000000000000
         H            1.274219876791     1.177969353360    -0.875807675724     1.007825032230
         H            1.273451876791     1.177651353360     0.880384324276     1.007825032230
         C            0.000004876791    -0.318832646640     0.001445324276    12.000000000000
         H           -0.000021123209    -1.097226646640    -1.038130875724     1.007825032230
         H            0.000053876791    -0.979083646640     0.879638324276     1.007825032230
         C           -1.275860123209     0.519737353360     0.002278324276    12.000000000000
         H           -1.274207123209     1.178097353360    -0.875587675724     1.007825032230
         H           -1.273465123209     1.177496353360     0.880601324276     1.007825032230
         C           -2.542831123209    -0.331431646640     0.002596324276    12.000000000000
         H           -2.579127123209    -0.975110646640     0.887092324276     1.007825032230
         H           -3.443312123209     0.289891353360     0.002034324276     1.007825032230
         H           -2.578874123209    -0.976267646640    -0.881079675724     1.007825032230

  Basis Set: AUG-CC-PVTZ
    Blend: AUG-CC-PVTZ
  Basis Set: (AUG-CC-PVTZ AUX)
    Blend: AUG-CC-PVTZ-JKFIT
	 Reference Energy          =    -196.3846577408301926 [Eh]
	 Singles Energy            =      -0.0000000000000000 [Eh]
	 Same-Spin Energy          =      -0.2077547124908409 [Eh]
	 Opposite-Spin Energy      =      -0.7948712331587089 [Eh]
	 Correlation Energy        =      -1.0026259456495499 [Eh]
	 Total Energy              =    -197.3872836864797478 [Eh]

	 ================> DF-SCS-MP2 Energies <==================
	-----------------------------------------------------------
	 SCS Same-Spin Scale       =       0.3333333333333333 [-]
	 SCS Opposite-Spin Scale   =       1.2000000000000000 [-]
	 SCS Same-Spin Energy      =      -0.0692515708302803 [Eh]
	 SCS Opposite-Spin Energy  =      -0.9538454797904506 [Eh]
	 SCS Correlation Energy    =      -1.0230970506207309 [Eh]
	 SCS Total Energy          =    -197.4077547914509125 [Eh]
	-----------------------------------------------------------

  Dipole Moment: [D]
     X:    -0.0000      Y:     0.2292      Z:     0.1348     Total:     0.2659

*** Psi4 exiting successfully. Buy a developer a beer!
