                               Psi4 1.3.2 release

  ==> Input File <==

--------------------------------------------------------------------------
#psi4
#
memory 32 gb

molecule  {
0 1
  C        2.5428260    -0.3261640     0.0004000
  H        2.5791480    -0.9696020     0.8850690
  H        2.5787950    -0.9712350    -0.8831070
  H        3.4433220     0.2951360    -0.0003880
  C        1.2758620     0.5250290    -0.0000810
  H        1.2742200     1.1832430    -0.8780540
  H        1.2734520     1.1829250     0.8781380
  C        0.0000050    -0.3135590    -0.0008010
  H       -0.0000185    -0.9409854    -0.9027283
  H        0.0000540    -0.9738100     0.8773920
  C       -1.2758600     0.5250110     0.0000320
  H       -1.2742070     1.1833710    -0.8778340
  H       -1.2734650     1.1827700     0.8783550
  C       -2.5428310    -0.3261580     0.0003500
  H       -2.5791270    -0.9698370     0.8848460
  H       -3.4433120     0.2951650    -0.0002120
  H       -2.5788740    -0.9709940    -0.8833260
units angstrom
no_reorient  #important for SAPT in psi4, default
symmetry c1  #important for SAPT in psi4, default
}

set PROPERTIES_ORIGIN ["COM"]
properties('MP2/aug-cc-pvtz', properties = ['dipole'])
--------------------------------------------------------------------------

    Molecular point group: c1
  Charge       = 0
  Multiplicity = 1
  Basis Set: AUG-CC-PVTZ
    Blend: AUG-CC-PVTZ
  Basis Set: (AUG-CC-PVTZ AUX)
    Blend: AUG-CC-PVTZ-JKFIT

    Orbital Energies [Eh]
    ---------------------

    Doubly Occupied:

       1A    -11.214641     2A    -11.214556     3A    -11.212556
       4A    -11.209370     5A    -11.209369     6A     -1.079066
       7A     -1.013551     8A     -0.917615     9A     -0.818306
      10A     -0.782069    11A     -0.646742    12A     -0.596690
      13A     -0.591514    14A     -0.551785    15A     -0.546015
      16A     -0.526194    17A     -0.493553    18A     -0.475170
      19A     -0.460239    20A     -0.458312    21A     -0.446627

  @DF-RHF Final Energy:  -196.40369782550204

   => Energetics <=

    Nuclear Repulsion Energy =            185.0345835708950517
    One-Electron Energy =                -629.9486854042991126
    Two-Electron Energy =                 248.5104040079020251
    Total Energy =                       -196.4036978255020358
  Basis Set: (AUG-CC-PVTZ AUX)
    Blend: AUG-CC-PVTZ-RI
    Molecular point group: c1

    Geometry (in Angstrom), charge = 0, multiplicity = 1:

       Center              X                  Y                   Z               Mass
    ------------   -----------------  -----------------  -----------------  -----------------
         C            2.542825841843    -0.333548073812     0.000722083718    12.000000000000
         H            2.579147841843    -0.976986073812     0.885391083718     1.007825032230
         H            2.578794841843    -0.978619073812    -0.882784916282     1.007825032230
         H            3.443321841843     0.287751926188    -0.000065916282     1.007825032230
         C            1.275861841843     0.517644926188     0.000241083718    12.000000000000
         H            1.274219841843     1.175858926188    -0.877731916282     1.007825032230
         H            1.273451841843     1.175540926188     0.878460083718     1.007825032230
         C            0.000004841843    -0.320943073812    -0.000478916282    12.000000000000
         H           -0.000018658157    -0.948369473812    -0.902406216282     1.007825032230
         H            0.000053841843    -0.981194073812     0.877714083718     1.007825032230
         C           -1.275860158157     0.517626926188     0.000354083718    12.000000000000
         H           -1.274207158157     1.175986926188    -0.877511916282     1.007825032230
         H           -1.273465158157     1.175385926188     0.878677083718     1.007825032230
         C           -2.542831158157    -0.333542073812     0.000672083718    12.000000000000
         H           -2.579127158157    -0.977221073812     0.885168083718     1.007825032230
         H           -3.443312158157     0.287780926188     0.000110083718     1.007825032230
         H           -2.578874158157    -0.978378073812    -0.883003916282     1.007825032230

  Basis Set: AUG-CC-PVTZ
    Blend: AUG-CC-PVTZ
  Basis Set: (AUG-CC-PVTZ AUX)
    Blend: AUG-CC-PVTZ-JKFIT
	 Reference Energy          =    -196.4036978255020358 [Eh]
	 Singles Energy            =      -0.0000000000000000 [Eh]
	 Same-Spin Energy          =      -0.2077319729392779 [Eh]
	 Opposite-Spin Energy      =      -0.7933765227835117 [Eh]
	 Correlation Energy        =      -1.0011084957227896 [Eh]
	 Total Energy              =    -197.4048063212248394 [Eh]

	 ================> DF-SCS-MP2 Energies <==================
	-----------------------------------------------------------
	 SCS Same-Spin Scale       =       0.3333333333333333 [-]
	 SCS Opposite-Spin Scale   =       1.2000000000000000 [-]
	 SCS Same-Spin Energy      =      -0.0692439909797593 [Eh]
	 SCS Opposite-Spin Energy  =      -0.9520518273402140 [Eh]
	 SCS Correlation Energy    =      -1.0212958183199734 [Eh]
	 SCS Total Energy          =    -197.4249936438220061 [Eh]
	-----------------------------------------------------------

  Dipole Moment: [D]
     X:    -0.0000      Y:     0.0931      Z:    -0.0037     Total:     0.0932

*** Psi4 exiting successfully. Buy a developer a beer!
