                               Psi4 1.3.2 release

  ==> Input File <==

--------------------------------------------------------------------------
#psi4
#
memory 32 gb

molecule  {
0 1
  C        2.5428260    -0.3261640     0.0004000
  H        2.5791480    -0.9696020     0.8850690
  H        2.5787950    -0.9712350    -0.8831070
  H        3.4433220     0.2951360    -0.0003880
  C        1.3312510     0.4339870    -0.0001678
  H        1.2742200     1.1832430    -0.8780540
  H        1.2734520     1.1829250     0.8781380
  C        0.0000050    -0.3135590    -0.0008010
  H       -0.0000170    -0.9720800    -0.8802820
  H        0.0000540    -0.9738100     0.8773920
  C       -1.2758600     0.5250110     0.0000320
  H       -1.2742070     1.1833710    -0.8778340
  H       -1.2734650     1.1827700     0.8783550
  C       -2.5428310    -0.3261580     0.0003500
  H       -2.5791270    -0.9698370     0.8848460
  H       -3.4433120     0.2951650    -0.0002120
  H       -2.5788740    -0.9709940    -0.8833260
units angstrom
no_reorient  #important for SAPT in psi4, default
symmetry c1  #important for SAPT in psi4, default
}

set PROPERTIES_ORIGIN ["COM"]
properties('MP2/aug-cc-pvtz', properties = ['dipole'])
--------------------------------------------------------------------------

    Molecular point group: c1
  Charge       = 0
  Multiplicity = 1
  Basis Set: AUG-CC-PVTZ
    Blend: AUG-CC-PVTZ
  Basis Set: (AUG-CC-PVTZ AUX)
    Blend: AUG-CC-PVTZ-JKFIT

    Orbital Energies [Eh]
    ---------------------

    Doubly Occupied:

       1A    -11.220892     2A    -11.217160     3A    -11.213750
       4A    -11.210904     5A    -11.207001     6A     -1.084625
       7A     -1.025795     8A     -0.923516     9A     -0.815928
      10A     -0.774968    11A     -0.643474    12A     -0.603686
      13A     -0.592980    14A     -0.567328    15A     -0.550610
      16A     -0.526539    17A     -0.497755    18A     -0.469586
      19A     -0.464825    20A     -0.445817    21A     -0.437508

  @DF-RHF Final Energy:  -196.39048298788313

   => Energetics <=

    Nuclear Repulsion Energy =            185.4998958535138911
    One-Electron Energy =                -630.7914615575824655
    Two-Electron Energy =                 248.9010827161854706
    Total Energy =                       -196.3904829878831322
  Basis Set: (AUG-CC-PVTZ AUX)
    Blend: AUG-CC-PVTZ-RI
    Molecular point group: c1

    Geometry (in Angstrom), charge = 0, multiplicity = 1:

       Center              X                  Y                   Z               Mass
    ------------   -----------------  -----------------  -----------------  -----------------
         C            2.533606344657    -0.317959488506     0.000422747118    12.000000000000
         H            2.569928344657    -0.961397488506     0.885091747118     1.007825032230
         H            2.569575344657    -0.963030488506    -0.883084252882     1.007825032230
         H            3.434102344657     0.303340511494    -0.000365252882     1.007825032230
         C            1.322031344657     0.442191511494    -0.000145052882    12.000000000000
         H            1.265000344657     1.191447511494    -0.878031252882     1.007825032230
         H            1.264232344657     1.191129511494     0.878160747118     1.007825032230
         C           -0.009214655343    -0.305354488506    -0.000778252882    12.000000000000
         H           -0.009236655343    -0.963875488506    -0.880259252882     1.007825032230
         H           -0.009165655343    -0.965605488506     0.877414747118     1.007825032230
         C           -1.285079655343     0.533215511494     0.000054747118    12.000000000000
         H           -1.283426655343     1.191575511494    -0.877811252882     1.007825032230
         H           -1.282684655343     1.190974511494     0.878377747118     1.007825032230
         C           -2.552050655343    -0.317953488506     0.000372747118    12.000000000000
         H           -2.588346655343    -0.961632488506     0.884868747118     1.007825032230
         H           -3.452531655343     0.303369511494    -0.000189252882     1.007825032230
         H           -2.588093655343    -0.962789488506    -0.883303252882     1.007825032230

  Basis Set: AUG-CC-PVTZ
    Blend: AUG-CC-PVTZ
  Basis Set: (AUG-CC-PVTZ AUX)
    Blend: AUG-CC-PVTZ-JKFIT
	 Reference Energy          =    -196.3904829878831322 [Eh]
	 Singles Energy            =      -0.0000000000000000 [Eh]
	 Same-Spin Energy          =      -0.2086238458638757 [Eh]
	 Opposite-Spin Energy      =      -0.7945440616755526 [Eh]
	 Correlation Energy        =      -1.0031679075394282 [Eh]
	 Total Energy              =    -197.3936508954225530 [Eh]

	 ================> DF-SCS-MP2 Energies <==================
	-----------------------------------------------------------
	 SCS Same-Spin Scale       =       0.3333333333333333 [-]
	 SCS Opposite-Spin Scale   =       1.2000000000000000 [-]
	 SCS Same-Spin Energy      =      -0.0695412819546252 [Eh]
	 SCS Opposite-Spin Energy  =      -0.9534528740106630 [Eh]
	 SCS Correlation Energy    =      -1.0229941559652882 [Eh]
	 SCS Total Energy          =    -197.4134771438484108 [Eh]
	-----------------------------------------------------------

  Dipole Moment: [D]
     X:     0.0107      Y:     0.0287      Z:    -0.0001     Total:     0.0307

*** Psi4 exiting successfully. Buy a developer a beer!
