                               Psi4 1.3.2 release

  ==> Input File <==

--------------------------------------------------------------------------
#psi4
#
memory 32 gb

molecule  {
0 1
  C        2.5428260    -0.3261640     0.0004000
  H        2.5791480    -0.9696020     0.8850690
  H        2.5787950    -0.9712350    -0.8831070
  H        3.4433220     0.2951360    -0.0003880
  C        1.2758620     0.5250290    -0.0000810
  H        1.2742200     1.1832430    -0.8780540
  H        1.2734520     1.1829250     0.8781380
  C       -0.1671260    -0.4234099    -0.0008953
  H       -0.0000170    -0.9720800    -0.8802820
  H        0.0000540    -0.9738100     0.8773920
  C       -1.2758600     0.5250110     0.0000320
  H       -1.2742070     1.1833710    -0.8778340
  H       -1.2734650     1.1827700     0.8783550
  C       -2.5428310    -0.3261580     0.0003500
  H       -2.5791270    -0.9698370     0.8848460
  H       -3.4433120     0.2951650    -0.0002120
  H       -2.5788740    -0.9709940    -0.8833260
units angstrom
no_reorient  #important for SAPT in psi4, default
symmetry c1  #important for SAPT in psi4, default
}

set PROPERTIES_ORIGIN ["COM"]
properties('MP2/aug-cc-pvtz', properties = ['dipole'])
--------------------------------------------------------------------------

    Molecular point group: c1
  Charge       = 0
  Multiplicity = 1
  Basis Set: AUG-CC-PVTZ
    Blend: AUG-CC-PVTZ
  Basis Set: (AUG-CC-PVTZ AUX)
    Blend: AUG-CC-PVTZ-JKFIT

    Orbital Energies [Eh]
    ---------------------

    Doubly Occupied:

       1A    -11.218348     2A    -11.213282     3A    -11.211945
       4A    -11.207989     5A    -11.206735     6A     -1.077948
       7A     -1.007678     8A     -0.914086     9A     -0.811178
      10A     -0.793035    11A     -0.651799    12A     -0.599245
      13A     -0.589579    14A     -0.549159    15A     -0.539724
      16A     -0.535311    17A     -0.497194    18A     -0.479402
      19A     -0.473707    20A     -0.473353    21A     -0.390883

  @DF-RHF Final Energy:  -196.37357214338277

   => Energetics <=

    Nuclear Repulsion Energy =            184.3126696960254947
    One-Electron Energy =                -628.4893258379655663
    Two-Electron Energy =                 247.8030839985572698
    Total Energy =                       -196.3735721433827734
  Basis Set: (AUG-CC-PVTZ AUX)
    Blend: AUG-CC-PVTZ-RI
    Molecular point group: c1

    Geometry (in Angstrom), charge = 0, multiplicity = 1:

       Center              X                  Y                   Z               Mass
    ------------   -----------------  -----------------  -----------------  -----------------
         C            2.570644706927    -0.314828754855     0.000423995490    12.000000000000
         H            2.606966706927    -0.958266754855     0.885092995490     1.007825032230
         H            2.606613706927    -0.959899754855    -0.883083004510     1.007825032230
         H            3.471140706927     0.306471245145    -0.000364004510     1.007825032230
         C            1.303680706927     0.536364245145    -0.000057004510    12.000000000000
         H            1.302038706927     1.194578245145    -0.878030004510     1.007825032230
         H            1.301270706927     1.194260245145     0.878161995490     1.007825032230
         C           -0.139307293073    -0.412074654855    -0.000871304510    12.000000000000
         H            0.027801706927    -0.960744754855    -0.880258004510     1.007825032230
         H            0.027872706927    -0.962474754855     0.877415995490     1.007825032230
         C           -1.248041293073     0.536346245145     0.000055995490    12.000000000000
         H           -1.246388293073     1.194706245145    -0.877810004510     1.007825032230
         H           -1.245646293073     1.194105245145     0.878378995490     1.007825032230
         C           -2.515012293073    -0.314822754855     0.000373995490    12.000000000000
         H           -2.551308293073    -0.958501754855     0.884869995490     1.007825032230
         H           -3.415493293073     0.306500245145    -0.000188004510     1.007825032230
         H           -2.551055293073    -0.959658754855    -0.883302004510     1.007825032230

  Basis Set: AUG-CC-PVTZ
    Blend: AUG-CC-PVTZ
  Basis Set: (AUG-CC-PVTZ AUX)
    Blend: AUG-CC-PVTZ-JKFIT
	 Reference Energy          =    -196.3735721433827734 [Eh]
	 Singles Energy            =      -0.0000000000000000 [Eh]
	 Same-Spin Energy          =      -0.2085472225611863 [Eh]
	 Opposite-Spin Energy      =      -0.7956139755477578 [Eh]
	 Correlation Energy        =      -1.0041611981089442 [Eh]
	 Total Energy              =    -197.3777333414917052 [Eh]

	 ================> DF-SCS-MP2 Energies <==================
	-----------------------------------------------------------
	 SCS Same-Spin Scale       =       0.3333333333333333 [-]
	 SCS Opposite-Spin Scale   =       1.2000000000000000 [-]
	 SCS Same-Spin Energy      =      -0.0695157408537288 [Eh]
	 SCS Opposite-Spin Energy  =      -0.9547367706573093 [Eh]
	 SCS Correlation Energy    =      -1.0242525115110381 [Eh]
	 SCS Total Energy          =    -197.3978246548938102 [Eh]
	-----------------------------------------------------------

  Dipole Moment: [D]
     X:    -0.0045      Y:     0.0821      Z:    -0.0001     Total:     0.0822

*** Psi4 exiting successfully. Buy a developer a beer!
