                               Psi4 1.3.2 release

  ==> Input File <==

--------------------------------------------------------------------------
#psi4
#
memory 32 gb

molecule  {
0 1
  C        2.5574884    -0.3039228     0.0004100
  H        2.5791480    -0.9696020     0.8850690
  H        2.5787950    -0.9712350    -0.8831070
  H        3.4433220     0.2951360    -0.0003880
  C        1.2758620     0.5250290    -0.0000810
  H        1.2742200     1.1832430    -0.8780540
  H        1.2734520     1.1829250     0.8781380
  C        0.0000050    -0.3135590    -0.0008010
  H       -0.0000170    -0.9720800    -0.8802820
  H        0.0000540    -0.9738100     0.8773920
  C       -1.2758600     0.5250110     0.0000320
  H       -1.2742070     1.1833710    -0.8778340
  H       -1.2734650     1.1827700     0.8783550
  C       -2.5428310    -0.3261580     0.0003500
  H       -2.5791270    -0.9698370     0.8848460
  H       -3.4433120     0.2951650    -0.0002120
  H       -2.5788740    -0.9709940    -0.8833260
units angstrom
no_reorient  #important for SAPT in psi4, default
symmetry c1  #important for SAPT in psi4, default
}

set PROPERTIES_ORIGIN ["COM"]
properties('MP2/aug-cc-pvtz', properties = ['dipole'])
--------------------------------------------------------------------------

    Molecular point group: c1
  Charge       = 0
  Multiplicity = 1
  Basis Set: AUG-CC-PVTZ
    Blend: AUG-CC-PVTZ
  Basis Set: (AUG-CC-PVTZ AUX)
    Blend: AUG-CC-PVTZ-JKFIT

    Orbital Energies [Eh]
    ---------------------

    Doubly Occupied:

       1A    -11.215089     2A    -11.214809     3A    -11.212930
       4A    -11.209578     5A    -11.209555     6A     -1.078780
       7A     -1.013643     8A     -0.918161     9A     -0.818427
      10A     -0.782900    11A     -0.644800    12A     -0.599071
      13A     -0.589766    14A     -0.552833    15A     -0.550585
      16A     -0.522353    17A     -0.492369    18A     -0.473059
      19A     -0.460148    20A     -0.457618    21A     -0.449864

  @DF-RHF Final Energy:  -196.40310597594853

   => Energetics <=

    Nuclear Repulsion Energy =            184.9382288557543461
    One-Electron Energy =                -629.7499892113744409
    Two-Electron Energy =                 248.4086543796715603
    Total Energy =                       -196.4031059759485345
  Basis Set: (AUG-CC-PVTZ AUX)
    Blend: AUG-CC-PVTZ-RI
    Molecular point group: c1

    Geometry (in Angstrom), charge = 0, multiplicity = 1:

       Center              X                  Y                   Z               Mass
    ------------   -----------------  -----------------  -----------------  -----------------
         C            2.555047670438    -0.314574230447     0.000416634798    12.000000000000
         H            2.576707270438    -0.980253430447     0.885075634798     1.007825032230
         H            2.576354270438    -0.981886430447    -0.883100365202     1.007825032230
         H            3.440881270438     0.284484569553    -0.000381365202     1.007825032230
         C            1.273421270438     0.514377569553    -0.000074365202    12.000000000000
         H            1.271779270438     1.172591569553    -0.878047365202     1.007825032230
         H            1.271011270438     1.172273569553     0.878144634798     1.007825032230
         C           -0.002435729562    -0.324210430447    -0.000794365202    12.000000000000
         H           -0.002457729562    -0.982731430447    -0.880275365202     1.007825032230
         H           -0.002386729562    -0.984461430447     0.877398634798     1.007825032230
         C           -1.278300729562     0.514359569553     0.000038634798    12.000000000000
         H           -1.276647729562     1.172719569553    -0.877827365202     1.007825032230
         H           -1.275905729562     1.172118569553     0.878361634798     1.007825032230
         C           -2.545271729562    -0.336809430447     0.000356634798    12.000000000000
         H           -2.581567729562    -0.980488430447     0.884852634798     1.007825032230
         H           -3.445752729562     0.284513569553    -0.000205365202     1.007825032230
         H           -2.581314729562    -0.981645430447    -0.883319365202     1.007825032230

  Basis Set: AUG-CC-PVTZ
    Blend: AUG-CC-PVTZ
  Basis Set: (AUG-CC-PVTZ AUX)
    Blend: AUG-CC-PVTZ-JKFIT
	 Reference Energy          =    -196.4031059759485345 [Eh]
	 Singles Energy            =      -0.0000000000000000 [Eh]
	 Same-Spin Energy          =      -0.2077181421324582 [Eh]
	 Opposite-Spin Energy      =      -0.7933480082674021 [Eh]
	 Correlation Energy        =      -1.0010661503998604 [Eh]
	 Total Energy              =    -197.4041721263483851 [Eh]

	 ================> DF-SCS-MP2 Energies <==================
	-----------------------------------------------------------
	 SCS Same-Spin Scale       =       0.3333333333333333 [-]
	 SCS Opposite-Spin Scale   =       1.2000000000000000 [-]
	 SCS Same-Spin Energy      =      -0.0692393807108194 [Eh]
	 SCS Opposite-Spin Energy  =      -0.9520176099208826 [Eh]
	 SCS Correlation Energy    =      -1.0212569906317019 [Eh]
	 SCS Total Energy          =    -197.4243629665802473 [Eh]
	-----------------------------------------------------------

  Dipole Moment: [D]
     X:    -0.0027      Y:     0.0969      Z:    -0.0001     Total:     0.0970

*** Psi4 exiting successfully. Buy a developer a beer!
