                               Psi4 1.3.2 release

  ==> Input File <==

--------------------------------------------------------------------------
#psi4
#
memory 32 gb

molecule  {
0 1
  C        2.5428260    -0.3261640     0.0004000
  H        2.5791480    -0.9696020     0.8850690
  H        2.5787950    -0.9712350    -0.8831070
  H        3.4433220     0.2951360    -0.0003880
  C        1.3565291     0.3870718    -0.0002123
  H        1.2742200     1.1832430    -0.8780540
  H        1.2734520     1.1829250     0.8781380
  C        0.0000050    -0.3135590    -0.0008010
  H       -0.0000170    -0.9720800    -0.8802820
  H        0.0000540    -0.9738100     0.8773920
  C       -1.2758600     0.5250110     0.0000320
  H       -1.2742070     1.1833710    -0.8778340
  H       -1.2734650     1.1827700     0.8783550
  C       -2.5428310    -0.3261580     0.0003500
  H       -2.5791270    -0.9698370     0.8848460
  H       -3.4433120     0.2951650    -0.0002120
  H       -2.5788740    -0.9709940    -0.8833260
units angstrom
no_reorient  #important for SAPT in psi4, default
symmetry c1  #important for SAPT in psi4, default
}

set PROPERTIES_ORIGIN ["COM"]
properties('MP2/aug-cc-pvtz', properties = ['dipole'])
--------------------------------------------------------------------------

    Molecular point group: c1
  Charge       = 0
  Multiplicity = 1
  Basis Set: AUG-CC-PVTZ
    Blend: AUG-CC-PVTZ
  Basis Set: (AUG-CC-PVTZ AUX)
    Blend: AUG-CC-PVTZ-JKFIT

    Orbital Energies [Eh]
    ---------------------

    Doubly Occupied:

       1A    -11.225047     2A    -11.218537     3A    -11.215033
       4A    -11.211744     5A    -11.205800     6A     -1.089680
       7A     -1.032318     8A     -0.926608     9A     -0.815768
      10A     -0.769974    11A     -0.643641    12A     -0.608178
      13A     -0.595036    14A     -0.577016    15A     -0.551974
      16A     -0.527539    17A     -0.499588    18A     -0.469833
      19A     -0.469317    20A     -0.438923    21A     -0.423405

  @DF-RHF Final Energy:  -196.37373844992223

   => Energetics <=

    Nuclear Repulsion Energy =            185.7754863763667004
    One-Electron Energy =                -631.2685298919118395
    Two-Electron Energy =                 249.1193050656229104
    Total Energy =                       -196.3737384499222287
  Basis Set: (AUG-CC-PVTZ AUX)
    Blend: AUG-CC-PVTZ-RI
    Molecular point group: c1

    Geometry (in Angstrom), charge = 0, multiplicity = 1:

       Center              X                  Y                   Z               Mass
    ------------   -----------------  -----------------  -----------------  -----------------
         C            2.529398815332    -0.310150472806     0.000430154125    12.000000000000
         H            2.565720815332    -0.953588472806     0.885099154125     1.007825032230
         H            2.565367815332    -0.955221472806    -0.883076845875     1.007825032230
         H            3.429894815332     0.311149527194    -0.000357845875     1.007825032230
         C            1.343101915332     0.403085327194    -0.000182145875    12.000000000000
         H            1.260792815332     1.199256527194    -0.878023845875     1.007825032230
         H            1.260024815332     1.198938527194     0.878168154125     1.007825032230
         C           -0.013422184668    -0.297545472806    -0.000770845875    12.000000000000
         H           -0.013444184668    -0.956066472806    -0.880251845875     1.007825032230
         H           -0.013373184668    -0.957796472806     0.877422154125     1.007825032230
         C           -1.289287184668     0.541024527194     0.000062154125    12.000000000000
         H           -1.287634184668     1.199384527194    -0.877803845875     1.007825032230
         H           -1.286892184668     1.198783527194     0.878385154125     1.007825032230
         C           -2.556258184668    -0.310144472806     0.000380154125    12.000000000000
         H           -2.592554184668    -0.953823472806     0.884876154125     1.007825032230
         H           -3.456739184668     0.311178527194    -0.000181845875     1.007825032230
         H           -2.592301184668    -0.954980472806    -0.883295845875     1.007825032230

  Basis Set: AUG-CC-PVTZ
    Blend: AUG-CC-PVTZ
  Basis Set: (AUG-CC-PVTZ AUX)
    Blend: AUG-CC-PVTZ-JKFIT
	 Reference Energy          =    -196.3737384499222287 [Eh]
	 Singles Energy            =      -0.0000000000000000 [Eh]
	 Same-Spin Energy          =      -0.2093633861852012 [Eh]
	 Opposite-Spin Energy      =      -0.7957148250076008 [Eh]
	 Correlation Energy        =      -1.0050782111928021 [Eh]
	 Total Energy              =    -197.3788166611150245 [Eh]

	 ================> DF-SCS-MP2 Energies <==================
	-----------------------------------------------------------
	 SCS Same-Spin Scale       =       0.3333333333333333 [-]
	 SCS Opposite-Spin Scale   =       1.2000000000000000 [-]
	 SCS Same-Spin Energy      =      -0.0697877953950670 [Eh]
	 SCS Opposite-Spin Energy  =      -0.9548577900091210 [Eh]
	 SCS Correlation Energy    =      -1.0246455854041880 [Eh]
	 SCS Total Energy          =    -197.3983840353264156 [Eh]
	-----------------------------------------------------------

  Dipole Moment: [D]
     X:     0.0149      Y:    -0.0141      Z:    -0.0001     Total:     0.0205

*** Psi4 exiting successfully. Buy a developer a beer!
