                               Psi4 1.3.2 release

  ==> Input File <==

--------------------------------------------------------------------------
#psi4
#
memory 32 gb

molecule  {
0 1
  C        2.5428260    -0.3261640     0.0004000
  H        2.5791480    -0.9696020     0.8850690
  H        2.5787950    -0.9712350    -0.8831070
  H        3.4433220     0.2951360    -0.0003880
  C        1.2458185     0.5690449    -0.0000389
  H        1.2742200     1.1832430    -0.8780540
  H        1.2734520     1.1829250     0.8781380
  C        0.0000050    -0.3135590    -0.0008010
  H       -0.0000170    -0.9720800    -0.8802820
  H        0.0000540    -0.9738100     0.8773920
  C       -1.2758600     0.5250110     0.0000320
  H       -1.2742070     1.1833710    -0.8778340
  H       -1.2734650     1.1827700     0.8783550
  C       -2.5428310    -0.3261580     0.0003500
  H       -2.5791270    -0.9698370     0.8848460
  H       -3.4433120     0.2951650    -0.0002120
  H       -2.5788740    -0.9709940    -0.8833260
units angstrom
no_reorient  #important for SAPT in psi4, default
symmetry c1  #important for SAPT in psi4, default
}

set PROPERTIES_ORIGIN ["COM"]
properties('MP2/aug-cc-pvtz', properties = ['dipole'])
--------------------------------------------------------------------------

    Molecular point group: c1
  Charge       = 0
  Multiplicity = 1
  Basis Set: AUG-CC-PVTZ
    Blend: AUG-CC-PVTZ
  Basis Set: (AUG-CC-PVTZ AUX)
    Blend: AUG-CC-PVTZ-JKFIT

    Orbital Energies [Eh]
    ---------------------

    Doubly Occupied:

       1A    -11.213838     2A    -11.213061     3A    -11.212306
       4A    -11.210381     5A    -11.208713     6A     -1.077482
       7A     -1.008382     8A     -0.914715     9A     -0.820597
      10A     -0.785991    11A     -0.647351    12A     -0.593987
      13A     -0.592042    14A     -0.550575    15A     -0.541751
      16A     -0.524292    17A     -0.490967    18A     -0.482856
      19A     -0.464750    20A     -0.462063    21A     -0.437324

  @DF-RHF Final Energy:  -196.40158166053101

   => Energetics <=

    Nuclear Repulsion Energy =            184.8086446320578489
    One-Electron Energy =                -629.5136016704216217
    Two-Electron Energy =                 248.3033753778327650
    Total Energy =                       -196.4015816605310079
  Basis Set: (AUG-CC-PVTZ AUX)
    Blend: AUG-CC-PVTZ-RI
    Molecular point group: c1

    Geometry (in Angstrom), charge = 0, multiplicity = 1:

       Center              X                  Y                   Z               Mass
    ------------   -----------------  -----------------  -----------------  -----------------
         C            2.547826549064    -0.340439820286     0.000401291766    12.000000000000
         H            2.584148549064    -0.983877820286     0.885070291766     1.007825032230
         H            2.583795549064    -0.985510820286    -0.883105708234     1.007825032230
         H            3.448322549064     0.280860179714    -0.000386708234     1.007825032230
         C            1.250819049064     0.554769079714    -0.000037608234    12.000000000000
         H            1.279220549064     1.168967179714    -0.878052708234     1.007825032230
         H            1.278452549064     1.168649179714     0.878139291766     1.007825032230
         C            0.005005549064    -0.327834820286    -0.000799708234    12.000000000000
         H            0.004983549064    -0.986355820286    -0.880280708234     1.007825032230
         H            0.005054549064    -0.988085820286     0.877393291766     1.007825032230
         C           -1.270859450936     0.510735179714     0.000033291766    12.000000000000
         H           -1.269206450936     1.169095179714    -0.877832708234     1.007825032230
         H           -1.268464450936     1.168494179714     0.878356291766     1.007825032230
         C           -2.537830450936    -0.340433820286     0.000351291766    12.000000000000
         H           -2.574126450936    -0.984112820286     0.884847291766     1.007825032230
         H           -3.438311450936     0.280889179714    -0.000210708234     1.007825032230
         H           -2.573873450936    -0.985269820286    -0.883324708234     1.007825032230

  Basis Set: AUG-CC-PVTZ
    Blend: AUG-CC-PVTZ
  Basis Set: (AUG-CC-PVTZ AUX)
    Blend: AUG-CC-PVTZ-JKFIT
	 Reference Energy          =    -196.4015816605310079 [Eh]
	 Singles Energy            =      -0.0000000000000000 [Eh]
	 Same-Spin Energy          =      -0.2075435044756261 [Eh]
	 Opposite-Spin Energy      =      -0.7932904634391367 [Eh]
	 Correlation Energy        =      -1.0008339679147629 [Eh]
	 Total Energy              =    -197.4024156284457661 [Eh]

	 ================> DF-SCS-MP2 Energies <==================
	-----------------------------------------------------------
	 SCS Same-Spin Scale       =       0.3333333333333333 [-]
	 SCS Opposite-Spin Scale   =       1.2000000000000000 [-]
	 SCS Same-Spin Energy      =      -0.0691811681585420 [Eh]
	 SCS Opposite-Spin Energy  =      -0.9519485561269639 [Eh]
	 SCS Correlation Energy    =      -1.0211297242855060 [Eh]
	 SCS Total Energy          =    -197.4227113848165232 [Eh]
	-----------------------------------------------------------

  Dipole Moment: [D]
     X:    -0.0086      Y:     0.1071      Z:    -0.0001     Total:     0.1074

*** Psi4 exiting successfully. Buy a developer a beer!
