                               Psi4 1.4a3.dev225

  ==> Input File <==

--------------------------------------------------------------------------
#psi4
#
memory 32 gb

molecule  {
0 1
  C        2.5434150    -0.3258570     0.0000020
  H        2.5799190    -0.9700390     0.8840510
  H        2.5798870    -0.9701100    -0.8839970
  H        3.4436120     0.2958290    -0.0000390
  C        1.2344354     0.5525819    -0.0000125
  H        1.2739300     1.1828070    -0.8780290
  H        1.2739250     1.1828280     0.8779900
  C        0.0000000    -0.3137570    -0.0000050
  H       -0.0000060    -0.9732170    -0.8787350
  H        0.0000060    -0.9732200     0.8787230
  C       -1.2759530     0.5247200     0.0000030
  H       -1.2739340     1.1828180    -0.8780070
  H       -1.2739210     1.1828170     0.8780130
  C       -2.5434150    -0.3258570     0.0000110
  H       -2.5799100    -0.9700590     0.8840460
  H       -3.4436120     0.2958290    -0.0000090
  H       -2.5798950    -0.9700920    -0.8840020
units angstrom
no_reorient  #important for SAPT in psi4, default
symmetry c1  #important for SAPT in psi4, default
}

set PROPERTIES_ORIGIN ["COM"]
properties('MP2/aug-cc-pvtz', properties = ['dipole'])
--------------------------------------------------------------------------

    Molecular point group: c1
  Charge       = 0
  Multiplicity = 1
  Basis Set: AUG-CC-PVTZ
    Blend: AUG-CC-PVTZ
  Basis Set: (AUG-CC-PVTZ AUX)
    Blend: AUG-CC-PVTZ-JKFIT

    Orbital Energies [Eh]
    ---------------------

    Doubly Occupied:

       1A    -11.214100     2A    -11.213757     3A    -11.211819
       4A    -11.210491     5A    -11.208890     6A     -1.079529
       7A     -1.008588     8A     -0.915922     9A     -0.820047
      10A     -0.785427    11A     -0.647219    12A     -0.595521
      13A     -0.590829    14A     -0.551796    15A     -0.542781
      16A     -0.524685    17A     -0.490279    18A     -0.479907
      19A     -0.466060    20A     -0.461033    21A     -0.439253

  @DF-RHF Final Energy:  -196.40188171818221

   => Energetics <=

    Nuclear Repulsion Energy =            184.9877337556831094
    One-Electron Energy =                -629.8633628452264475
    Two-Electron Energy =                 248.4737473713611280
    Total Energy =                       -196.4018817181822101
  Basis Set: (AUG-CC-PVTZ AUX)
    Blend: AUG-CC-PVTZ-RI
    Molecular point group: c1

    Geometry (in Angstrom), charge = 0, multiplicity = 1:

       Center              X                  Y                   Z               Mass
    ------------   -----------------  -----------------  -----------------  -----------------
         C            2.550325573426    -0.337428290690     0.000002179778    12.000000000000
         H            2.586829573426    -0.981610290690     0.884051179778     1.007825032230
         H            2.586797573426    -0.981681290690    -0.883996820222     1.007825032230
         H            3.450522573426     0.284257709310    -0.000038820222     1.007825032230
         C            1.241345973426     0.541010609310    -0.000012320222    12.000000000000
         H            1.280840573426     1.171235709310    -0.878028820222     1.007825032230
         H            1.280835573426     1.171256709310     0.877990179778     1.007825032230
         C            0.006910573426    -0.325328290690    -0.000004820222    12.000000000000
         H            0.006904573426    -0.984788290690    -0.878734820222     1.007825032230
         H            0.006916573426    -0.984791290690     0.878723179778     1.007825032230
         C           -1.269042426574     0.513148709310     0.000003179778    12.000000000000
         H           -1.267023426574     1.171246709310    -0.878006820222     1.007825032230
         H           -1.267010426574     1.171245709310     0.878013179778     1.007825032230
         C           -2.536504426574    -0.337428290690     0.000011179778    12.000000000000
         H           -2.572999426574    -0.981630290690     0.884046179778     1.007825032230
         H           -3.436701426574     0.284257709310    -0.000008820222     1.007825032230
         H           -2.572984426574    -0.981663290690    -0.884001820222     1.007825032230

  Basis Set: AUG-CC-PVTZ
    Blend: AUG-CC-PVTZ
  Basis Set: (AUG-CC-PVTZ AUX)
    Blend: AUG-CC-PVTZ-JKFIT
	 Reference Energy          =    -196.4018817181822101 [Eh]
	 Singles Energy            =      -0.0000000000000000 [Eh]
	 Same-Spin Energy          =      -0.2076510841735700 [Eh]
	 Opposite-Spin Energy      =      -0.7933648950546945 [Eh]
	 Correlation Energy        =      -1.0010159792282645 [Eh]
	 Total Energy              =    -197.4028976974104808 [Eh]

	 ================> DF-SCS-MP2 Energies <==================
	-----------------------------------------------------------
	 SCS Same-Spin Scale       =       0.3333333333333333 [-]
	 SCS Opposite-Spin Scale   =       1.2000000000000000 [-]
	 SCS Same-Spin Energy      =      -0.0692170280578567 [Eh]
	 SCS Opposite-Spin Energy  =      -0.9520378740656334 [Eh]
	 SCS Correlation Energy    =      -1.0212549021234900 [Eh]
	 SCS Total Energy          =    -197.4231366203057121 [Eh]
	-----------------------------------------------------------

  Dipole Moment: [D]
     X:    -0.0146      Y:     0.1015      Z:    -0.0000     Total:     0.1025

*** Psi4 exiting successfully. Buy a developer a beer!
