                               Psi4 1.4a3.dev225

  ==> Input File <==

--------------------------------------------------------------------------
#psi4
#
memory 32 gb

molecule  {
0 1
  C        2.5434150    -0.3258570     0.0000020
  H        2.5799190    -0.9700390     0.8840510
  H        2.5798870    -0.9701100    -0.8839970
  H        3.4436120     0.2958290    -0.0000390
  C        1.2759530     0.5247200    -0.0000120
  H        1.2738931     1.1948020    -0.8940327
  H        1.2739250     1.1828280     0.8779900
  C        0.0000000    -0.3137570    -0.0000050
  H       -0.0000060    -0.9732170    -0.8787350
  H        0.0000060    -0.9732200     0.8787230
  C       -1.2759530     0.5247200     0.0000030
  H       -1.2739340     1.1828180    -0.8780070
  H       -1.2739210     1.1828170     0.8780130
  C       -2.5434150    -0.3258570     0.0000110
  H       -2.5799100    -0.9700590     0.8840460
  H       -3.4436120     0.2958290    -0.0000090
  H       -2.5798950    -0.9700920    -0.8840020
units angstrom
no_reorient  #important for SAPT in psi4, default
symmetry c1  #important for SAPT in psi4, default
}

set PROPERTIES_ORIGIN ["COM"]
properties('MP2/aug-cc-pvtz', properties = ['dipole'])
--------------------------------------------------------------------------

    Molecular point group: c1
  Charge       = 0
  Multiplicity = 1
  Basis Set: AUG-CC-PVTZ
    Blend: AUG-CC-PVTZ
  Basis Set: (AUG-CC-PVTZ AUX)
    Blend: AUG-CC-PVTZ-JKFIT

    Orbital Energies [Eh]
    ---------------------

    Doubly Occupied:

       1A    -11.217310     2A    -11.214810     3A    -11.212730
       4A    -11.209628     5A    -11.209404     6A     -1.078546
       7A     -1.013244     8A     -0.917722     9A     -0.817602
      10A     -0.782172    11A     -0.644675    12A     -0.596585
      13A     -0.590854    14A     -0.552927    15A     -0.546312
      16A     -0.525077    17A     -0.493272    18A     -0.474371
      19A     -0.460678    20A     -0.457546    21A     -0.446935

  @DF-RHF Final Energy:  -196.40337655154323

   => Energetics <=

    Nuclear Repulsion Energy =            184.9215293279579839
    One-Electron Energy =                -629.7250089218201765
    Two-Electron Energy =                 248.4001030423189889
    Total Energy =                       -196.4033765515432322
  Basis Set: (AUG-CC-PVTZ AUX)
    Blend: AUG-CC-PVTZ-RI
    Molecular point group: c1

    Geometry (in Angstrom), charge = 0, multiplicity = 1:

       Center              X                  Y                   Z               Mass
    ------------   -----------------  -----------------  -----------------  -----------------
         C            2.543415501858    -0.332958371085     0.000225817691    12.000000000000
         H            2.579919501858    -0.977140371085     0.884274817691     1.007825032230
         H            2.579887501858    -0.977211371085    -0.883773182309     1.007825032230
         H            3.443612501858     0.288727628915     0.000184817691     1.007825032230
         C            1.275953501858     0.517618628915     0.000211817691    12.000000000000
         H            1.273893601858     1.187700628915    -0.893808882309     1.007825032230
         H            1.273925501858     1.175726628915     0.878213817691     1.007825032230
         C            0.000000501858    -0.320858371085     0.000218817691    12.000000000000
         H           -0.000005498142    -0.980318371085    -0.878511182309     1.007825032230
         H            0.000006501858    -0.980321371085     0.878946817691     1.007825032230
         C           -1.275952498142     0.517618628915     0.000226817691    12.000000000000
         H           -1.273933498142     1.175716628915    -0.877783182309     1.007825032230
         H           -1.273920498142     1.175715628915     0.878236817691     1.007825032230
         C           -2.543414498142    -0.332958371085     0.000234817691    12.000000000000
         H           -2.579909498142    -0.977160371085     0.884269817691     1.007825032230
         H           -3.443611498142     0.288727628915     0.000214817691     1.007825032230
         H           -2.579894498142    -0.977193371085    -0.883778182309     1.007825032230

  Basis Set: AUG-CC-PVTZ
    Blend: AUG-CC-PVTZ
  Basis Set: (AUG-CC-PVTZ AUX)
    Blend: AUG-CC-PVTZ-JKFIT
	 Reference Energy          =    -196.4033765515432322 [Eh]
	 Singles Energy            =      -0.0000000000000000 [Eh]
	 Same-Spin Energy          =      -0.2077096349818365 [Eh]
	 Opposite-Spin Energy      =      -0.7934434445306084 [Eh]
	 Correlation Energy        =      -1.0011530795124450 [Eh]
	 Total Energy              =    -197.4045296310556807 [Eh]

	 ================> DF-SCS-MP2 Energies <==================
	-----------------------------------------------------------
	 SCS Same-Spin Scale       =       0.3333333333333333 [-]
	 SCS Opposite-Spin Scale   =       1.2000000000000000 [-]
	 SCS Same-Spin Energy      =      -0.0692365449939455 [Eh]
	 SCS Opposite-Spin Energy  =      -0.9521321334367301 [Eh]
	 SCS Correlation Energy    =      -1.0213686784306757 [Eh]
	 SCS Total Energy          =    -197.4247452299738939 [Eh]
	-----------------------------------------------------------

  Dipole Moment: [D]
     X:     0.0001      Y:     0.0755      Z:     0.0109     Total:     0.0763

*** Psi4 exiting successfully. Buy a developer a beer!
