                               Psi4 1.3.2 release

  ==> Input File <==

--------------------------------------------------------------------------
#psi4
#
memory 32 gb

molecule  {
0 1
  C        2.5428260    -0.3261640     0.0004000
  H        2.6791134    -1.0087494     0.8450738
  H        2.5787950    -0.9712350    -0.8831070
  H        3.4433220     0.2951360    -0.0003880
  C        1.2758620     0.5250290    -0.0000810
  H        1.2742200     1.1832430    -0.8780540
  H        1.2734520     1.1829250     0.8781380
  C        0.0000050    -0.3135590    -0.0008010
  H       -0.0000170    -0.9720800    -0.8802820
  H        0.0000540    -0.9738100     0.8773920
  C       -1.2758600     0.5250110     0.0000320
  H       -1.2742070     1.1833710    -0.8778340
  H       -1.2734650     1.1827700     0.8783550
  C       -2.5428310    -0.3261580     0.0003500
  H       -2.5791270    -0.9698370     0.8848460
  H       -3.4433120     0.2951650    -0.0002120
  H       -2.5788740    -0.9709940    -0.8833260
units angstrom
no_reorient  #important for SAPT in psi4, default
symmetry c1  #important for SAPT in psi4, default
}

set PROPERTIES_ORIGIN ["COM"]
properties('MP2/aug-cc-pvtz', properties = ['dipole'])
--------------------------------------------------------------------------

    Molecular point group: c1
  Charge       = 0
  Multiplicity = 1
  Basis Set: AUG-CC-PVTZ
    Blend: AUG-CC-PVTZ
  Basis Set: (AUG-CC-PVTZ AUX)
    Blend: AUG-CC-PVTZ-JKFIT

    Orbital Energies [Eh]
    ---------------------

    Doubly Occupied:

       1A    -11.216378     2A    -11.214814     3A    -11.212467
       4A    -11.209411     5A    -11.209099     6A     -1.078661
       7A     -1.013103     8A     -0.918034     9A     -0.820280
      10A     -0.783701    11A     -0.644516    12A     -0.596097
      13A     -0.589180    14A     -0.556119    15A     -0.544470
      16A     -0.522406    17A     -0.496651    18A     -0.474325
      19A     -0.461789    20A     -0.458140    21A     -0.445824

  @DF-RHF Final Energy:  -196.40264298904526

   => Energetics <=

    Nuclear Repulsion Energy =            184.8901867433585267
    One-Electron Energy =                -629.6547342508353040
    Two-Electron Energy =                 248.3619045184315155
    Total Energy =                       -196.4026429890452619
  Basis Set: (AUG-CC-PVTZ AUX)
    Blend: AUG-CC-PVTZ-RI
    Molecular point group: c1

    Geometry (in Angstrom), charge = 0, multiplicity = 1:

       Center              X                  Y                   Z               Mass
    ------------   -----------------  -----------------  -----------------  -----------------
         C            2.541428370716    -0.332566137122     0.000967405730    12.000000000000
         H            2.677715770716    -1.015151537122     0.845641205730     1.007825032230
         H            2.577397370716    -0.977637137122    -0.882539594270     1.007825032230
         H            3.441924370716     0.288733862878     0.000179405730     1.007825032230
         C            1.274464370716     0.518626862878     0.000486405730    12.000000000000
         H            1.272822370716     1.176840862878    -0.877486594270     1.007825032230
         H            1.272054370716     1.176522862878     0.878705405730     1.007825032230
         C           -0.001392629284    -0.319961137122    -0.000233594270    12.000000000000
         H           -0.001414629284    -0.978482137122    -0.879714594270     1.007825032230
         H           -0.001343629284    -0.980212137122     0.877959405730     1.007825032230
         C           -1.277257629284     0.518608862878     0.000599405730    12.000000000000
         H           -1.275604629284     1.176968862878    -0.877266594270     1.007825032230
         H           -1.274862629284     1.176367862878     0.878922405730     1.007825032230
         C           -2.544228629284    -0.332560137122     0.000917405730    12.000000000000
         H           -2.580524629284    -0.976239137122     0.885413405730     1.007825032230
         H           -3.444709629284     0.288762862878     0.000355405730     1.007825032230
         H           -2.580271629284    -0.977396137122    -0.882758594270     1.007825032230

  Basis Set: AUG-CC-PVTZ
    Blend: AUG-CC-PVTZ
  Basis Set: (AUG-CC-PVTZ AUX)
    Blend: AUG-CC-PVTZ-JKFIT
	 Reference Energy          =    -196.4026429890452619 [Eh]
	 Singles Energy            =      -0.0000000000000000 [Eh]
	 Same-Spin Energy          =      -0.2077178098515572 [Eh]
	 Opposite-Spin Energy      =      -0.7932755947583485 [Eh]
	 Correlation Energy        =      -1.0009934046099058 [Eh]
	 Total Energy              =    -197.4036363936551766 [Eh]

	 ================> DF-SCS-MP2 Energies <==================
	-----------------------------------------------------------
	 SCS Same-Spin Scale       =       0.3333333333333333 [-]
	 SCS Opposite-Spin Scale   =       1.2000000000000000 [-]
	 SCS Same-Spin Energy      =      -0.0692392699505191 [Eh]
	 SCS Opposite-Spin Energy  =      -0.9519307137100181 [Eh]
	 SCS Correlation Energy    =      -1.0211699836605372 [Eh]
	 SCS Total Energy          =    -197.4238129727058038 [Eh]
	-----------------------------------------------------------

  Dipole Moment: [D]
     X:     0.0090      Y:     0.0760      Z:     0.0061     Total:     0.0768

*** Psi4 exiting successfully. Buy a developer a beer!
