                               Psi4 1.3.2 release

  ==> Input File <==

--------------------------------------------------------------------------
#psi4
#
memory 32 gb

molecule  {
0 1
  C        2.5123480    -0.3698619     0.0003795
  H        2.5791480    -0.9696020     0.8850690
  H        2.5787950    -0.9712350    -0.8831070
  H        3.4433220     0.2951360    -0.0003880
  C        1.2758620     0.5250290    -0.0000810
  H        1.2742200     1.1832430    -0.8780540
  H        1.2734520     1.1829250     0.8781380
  C        0.0000050    -0.3135590    -0.0008010
  H       -0.0000170    -0.9720800    -0.8802820
  H        0.0000540    -0.9738100     0.8773920
  C       -1.2758600     0.5250110     0.0000320
  H       -1.2742070     1.1833710    -0.8778340
  H       -1.2734650     1.1827700     0.8783550
  C       -2.5428310    -0.3261580     0.0003500
  H       -2.5791270    -0.9698370     0.8848460
  H       -3.4433120     0.2951650    -0.0002120
  H       -2.5788740    -0.9709940    -0.8833260
units angstrom
no_reorient  #important for SAPT in psi4, default
symmetry c1  #important for SAPT in psi4, default
}

set PROPERTIES_ORIGIN ["COM"]
properties('MP2/aug-cc-pvtz', properties = ['dipole'])
--------------------------------------------------------------------------

    Molecular point group: c1
  Charge       = 0
  Multiplicity = 1
  Basis Set: AUG-CC-PVTZ
    Blend: AUG-CC-PVTZ
  Basis Set: (AUG-CC-PVTZ AUX)
    Blend: AUG-CC-PVTZ-JKFIT

    Orbital Energies [Eh]
    ---------------------

    Doubly Occupied:

       1A    -11.215076     2A    -11.214276     3A    -11.211678
       4A    -11.209742     5A    -11.209108     6A     -1.079240
       7A     -1.013630     8A     -0.916656     9A     -0.818694
      10A     -0.783675    11A     -0.646698    12A     -0.595585
      13A     -0.593122    14A     -0.553763    15A     -0.536521
      16A     -0.530315    17A     -0.495545    18A     -0.478981
      19A     -0.462125    20A     -0.459176    21A     -0.439098

  @DF-RHF Final Energy:  -196.40087225573174

   => Energetics <=

    Nuclear Repulsion Energy =            185.1837605798162940
    One-Electron Energy =                -630.2438562851750703
    Two-Electron Energy =                 248.6592234496270351
    Total Energy =                       -196.4008722557317412
  Basis Set: (AUG-CC-PVTZ AUX)
    Blend: AUG-CC-PVTZ-RI
    Molecular point group: c1

    Geometry (in Angstrom), charge = 0, multiplicity = 1:

       Center              X                  Y                   Z               Mass
    ------------   -----------------  -----------------  -----------------  -----------------
         C            2.517420871410    -0.369537794434     0.000391211510    12.000000000000
         H            2.584220871410    -0.969277894434     0.885080711510     1.007825032230
         H            2.583867871410    -0.970910894434    -0.883095288490     1.007825032230
         H            3.448394871410     0.295460105566    -0.000376288490     1.007825032230
         C            1.280934871410     0.525353105566    -0.000069288490    12.000000000000
         H            1.279292871410     1.183567105566    -0.878042288490     1.007825032230
         H            1.278524871410     1.183249105566     0.878149711510     1.007825032230
         C            0.005077871410    -0.313234894434    -0.000789288490    12.000000000000
         H            0.005055871410    -0.971755894434    -0.880270288490     1.007825032230
         H            0.005126871410    -0.973485894434     0.877403711510     1.007825032230
         C           -1.270787128590     0.525335105566     0.000043711510    12.000000000000
         H           -1.269134128590     1.183695105566    -0.877822288490     1.007825032230
         H           -1.268392128590     1.183094105566     0.878366711510     1.007825032230
         C           -2.537758128590    -0.325833894434     0.000361711510    12.000000000000
         H           -2.574054128590    -0.969512894434     0.884857711510     1.007825032230
         H           -3.438239128590     0.295489105566    -0.000200288490     1.007825032230
         H           -2.573801128590    -0.970669894434    -0.883314288490     1.007825032230

  Basis Set: AUG-CC-PVTZ
    Blend: AUG-CC-PVTZ
  Basis Set: (AUG-CC-PVTZ AUX)
    Blend: AUG-CC-PVTZ-JKFIT
	 Reference Energy          =    -196.4008722557317412 [Eh]
	 Singles Energy            =      -0.0000000000000000 [Eh]
	 Same-Spin Energy          =      -0.2077809139061105 [Eh]
	 Opposite-Spin Energy      =      -0.7935037312399624 [Eh]
	 Correlation Energy        =      -1.0012846451460731 [Eh]
	 Total Energy              =    -197.4021569008778272 [Eh]

	 ================> DF-SCS-MP2 Energies <==================
	-----------------------------------------------------------
	 SCS Same-Spin Scale       =       0.3333333333333333 [-]
	 SCS Opposite-Spin Scale   =       1.2000000000000000 [-]
	 SCS Same-Spin Energy      =      -0.0692603046353702 [Eh]
	 SCS Opposite-Spin Energy  =      -0.9522044774879549 [Eh]
	 SCS Correlation Energy    =      -1.0214647821233251 [Eh]
	 SCS Total Energy          =    -197.4223370378550726 [Eh]
	-----------------------------------------------------------

  Dipole Moment: [D]
     X:    -0.0058      Y:     0.0700      Z:    -0.0001     Total:     0.0702

*** Psi4 exiting successfully. Buy a developer a beer!
