                               Psi4 1.3.2 release

  ==> Input File <==

--------------------------------------------------------------------------
#psi4
#
memory 32 gb

molecule  {
0 1
  C        2.5428260    -0.3261640     0.0004000
  H        2.4787846    -0.9234050     0.9153715
  H        2.5787950    -0.9712350    -0.8831070
  H        3.4433220     0.2951360    -0.0003880
  C        1.2758620     0.5250290    -0.0000810
  H        1.2742200     1.1832430    -0.8780540
  H        1.2734520     1.1829250     0.8781380
  C        0.0000050    -0.3135590    -0.0008010
  H       -0.0000170    -0.9720800    -0.8802820
  H        0.0000540    -0.9738100     0.8773920
  C       -1.2758600     0.5250110     0.0000320
  H       -1.2742070     1.1833710    -0.8778340
  H       -1.2734650     1.1827700     0.8783550
  C       -2.5428310    -0.3261580     0.0003500
  H       -2.5791270    -0.9698370     0.8848460
  H       -3.4433120     0.2951650    -0.0002120
  H       -2.5788740    -0.9709940    -0.8833260
units angstrom
no_reorient  #important for SAPT in psi4, default
symmetry c1  #important for SAPT in psi4, default
}

set PROPERTIES_ORIGIN ["COM"]
properties('MP2/aug-cc-pvtz', properties = ['dipole'])
--------------------------------------------------------------------------

    Molecular point group: c1
  Charge       = 0
  Multiplicity = 1
  Basis Set: AUG-CC-PVTZ
    Blend: AUG-CC-PVTZ
  Basis Set: (AUG-CC-PVTZ AUX)
    Blend: AUG-CC-PVTZ-JKFIT

    Orbital Energies [Eh]
    ---------------------

    Doubly Occupied:

       1A    -11.214851     2A    -11.213623     3A    -11.212543
       4A    -11.209625     5A    -11.209421     6A     -1.079342
       7A     -1.014320     8A     -0.917228     9A     -0.816572
      10A     -0.782606    11A     -0.646495    12A     -0.598597
      13A     -0.593346    14A     -0.550259    15A     -0.548224
      16A     -0.526194    17A     -0.490549    18A     -0.475313
      19A     -0.459836    20A     -0.458323    21A     -0.446675

  @DF-RHF Final Energy:  -196.40234387671507

   => Energetics <=

    Nuclear Repulsion Energy =            185.1623209699955055
    One-Electron Energy =                -630.2014438586181768
    Two-Electron Energy =                 248.6367790119076062
    Total Energy =                       -196.4023438767150651
  Basis Set: (AUG-CC-PVTZ AUX)
    Blend: AUG-CC-PVTZ-RI
    Molecular point group: c1

    Geometry (in Angstrom), charge = 0, multiplicity = 1:

       Center              X                  Y                   Z               Mass
    ------------   -----------------  -----------------  -----------------  -----------------
         C            2.544228834808    -0.333759195373    -0.000015309609    12.000000000000
         H            2.480187434808    -0.931000195373     0.914956190391     1.007825032230
         H            2.580197834808    -0.978830195373    -0.883522309609     1.007825032230
         H            3.444724834808     0.287540804627    -0.000803309609     1.007825032230
         C            1.277264834808     0.517433804627    -0.000496309609    12.000000000000
         H            1.275622834808     1.175647804627    -0.878469309609     1.007825032230
         H            1.274854834808     1.175329804627     0.877722690391     1.007825032230
         C            0.001407834808    -0.321154195373    -0.001216309609    12.000000000000
         H            0.001385834808    -0.979675195373    -0.880697309609     1.007825032230
         H            0.001456834808    -0.981405195373     0.876976690391     1.007825032230
         C           -1.274457165192     0.517415804627    -0.000383309609    12.000000000000
         H           -1.272804165192     1.175775804627    -0.878249309609     1.007825032230
         H           -1.272062165192     1.175174804627     0.877939690391     1.007825032230
         C           -2.541428165192    -0.333753195373    -0.000065309609    12.000000000000
         H           -2.577724165192    -0.977432195373     0.884430690391     1.007825032230
         H           -3.441909165192     0.287569804627    -0.000627309609     1.007825032230
         H           -2.577471165192    -0.978589195373    -0.883741309609     1.007825032230

  Basis Set: AUG-CC-PVTZ
    Blend: AUG-CC-PVTZ
  Basis Set: (AUG-CC-PVTZ AUX)
    Blend: AUG-CC-PVTZ-JKFIT
	 Reference Energy          =    -196.4023438767150651 [Eh]
	 Singles Energy            =      -0.0000000000000000 [Eh]
	 Same-Spin Energy          =      -0.2078423832572233 [Eh]
	 Opposite-Spin Energy      =      -0.7935728420618184 [Eh]
	 Correlation Energy        =      -1.0014152253190418 [Eh]
	 Total Energy              =    -197.4037591020341154 [Eh]

	 ================> DF-SCS-MP2 Energies <==================
	-----------------------------------------------------------
	 SCS Same-Spin Scale       =       0.3333333333333333 [-]
	 SCS Opposite-Spin Scale   =       1.2000000000000000 [-]
	 SCS Same-Spin Energy      =      -0.0692807944190744 [Eh]
	 SCS Opposite-Spin Energy  =      -0.9522874104741821 [Eh]
	 SCS Correlation Energy    =      -1.0215682048932566 [Eh]
	 SCS Total Energy          =    -197.4239120816083357 [Eh]
	-----------------------------------------------------------

  Dipole Moment: [D]
     X:    -0.0156      Y:     0.1046      Z:    -0.0116     Total:     0.1064

*** Psi4 exiting successfully. Buy a developer a beer!
