                               Psi4 1.4a3.dev225

  ==> Input File <==

--------------------------------------------------------------------------
#psi4
#
memory 32 gb

molecule  {
0 1
  C        2.5434150    -0.3258570     0.0000020
  H        2.5799190    -0.9700390     0.8840510
  H        2.5798870    -0.9701100    -0.8839970
  H        3.4436120     0.2958290    -0.0000390
  C        1.2593460     0.5358648    -0.0000122
  H        1.2739300     1.1828070    -0.8780290
  H        1.2739250     1.1828280     0.8779900
  C        0.0000000    -0.3137570    -0.0000050
  H       -0.0000060    -0.9732170    -0.8787350
  H        0.0000060    -0.9732200     0.8787230
  C       -1.2759530     0.5247200     0.0000030
  H       -1.2739340     1.1828180    -0.8780070
  H       -1.2739210     1.1828170     0.8780130
  C       -2.5434150    -0.3258570     0.0000110
  H       -2.5799100    -0.9700590     0.8840460
  H       -3.4436120     0.2958290    -0.0000090
  H       -2.5798950    -0.9700920    -0.8840020
units angstrom
no_reorient  #important for SAPT in psi4, default
symmetry c1  #important for SAPT in psi4, default
}

set PROPERTIES_ORIGIN ["COM"]
properties('MP2/aug-cc-pvtz', properties = ['dipole'])
--------------------------------------------------------------------------

    Molecular point group: c1
  Charge       = 0
  Multiplicity = 1
  Basis Set: AUG-CC-PVTZ
    Blend: AUG-CC-PVTZ
  Basis Set: (AUG-CC-PVTZ AUX)
    Blend: AUG-CC-PVTZ-JKFIT

    Orbital Energies [Eh]
    ---------------------

    Doubly Occupied:

       1A    -11.214504     2A    -11.214283     3A    -11.212176
       4A    -11.209861     5A    -11.209177     6A     -1.079017
       7A     -1.011453     8A     -0.916942     9A     -0.819049
      10A     -0.784072    11A     -0.645997    12A     -0.596153
      13A     -0.591177    14A     -0.552061    15A     -0.544843
      16A     -0.524852    17A     -0.492180    18A     -0.476998
      19A     -0.462612    20A     -0.459581    21A     -0.444467

  @DF-RHF Final Energy:  -196.40362039976449

   => Energetics <=

    Nuclear Repulsion Energy =            184.9971889554567781
    One-Electron Energy =                -629.8787131293553330
    Two-Electron Energy =                 248.4779037741340915
    Total Energy =                       -196.4036203997644918
  Basis Set: (AUG-CC-PVTZ AUX)
    Blend: AUG-CC-PVTZ-RI
    Molecular point group: c1

    Geometry (in Angstrom), charge = 0, multiplicity = 1:

       Center              X                  Y                   Z               Mass
    ------------   -----------------  -----------------  -----------------  -----------------
         C            2.546179214325    -0.334645736286     0.000002129843    12.000000000000
         H            2.582683214325    -0.978827736286     0.884051129843     1.007825032230
         H            2.582651214325    -0.978898736286    -0.883996870157     1.007825032230
         H            3.446376214325     0.287040263714    -0.000038870157     1.007825032230
         C            1.262110214325     0.527076063714    -0.000012070157    12.000000000000
         H            1.276694214325     1.174018263714    -0.878028870157     1.007825032230
         H            1.276689214325     1.174039263714     0.877990129843     1.007825032230
         C            0.002764214325    -0.322545736286    -0.000004870157    12.000000000000
         H            0.002758214325    -0.982005736286    -0.878734870157     1.007825032230
         H            0.002770214325    -0.982008736286     0.878723129843     1.007825032230
         C           -1.273188785675     0.515931263714     0.000003129843    12.000000000000
         H           -1.271169785675     1.174029263714    -0.878006870157     1.007825032230
         H           -1.271156785675     1.174028263714     0.878013129843     1.007825032230
         C           -2.540650785675    -0.334645736286     0.000011129843    12.000000000000
         H           -2.577145785675    -0.978847736286     0.884046129843     1.007825032230
         H           -3.440847785675     0.287040263714    -0.000008870157     1.007825032230
         H           -2.577130785675    -0.978880736286    -0.884001870157     1.007825032230

  Basis Set: AUG-CC-PVTZ
    Blend: AUG-CC-PVTZ
  Basis Set: (AUG-CC-PVTZ AUX)
    Blend: AUG-CC-PVTZ-JKFIT
	 Reference Energy          =    -196.4036203997644918 [Eh]
	 Singles Energy            =      -0.0000000000000000 [Eh]
	 Same-Spin Energy          =      -0.2076655979620944 [Eh]
	 Opposite-Spin Energy      =      -0.7932968529611708 [Eh]
	 Correlation Energy        =      -1.0009624509232653 [Eh]
	 Total Energy              =    -197.4045828506877456 [Eh]

	 ================> DF-SCS-MP2 Energies <==================
	-----------------------------------------------------------
	 SCS Same-Spin Scale       =       0.3333333333333333 [-]
	 SCS Opposite-Spin Scale   =       1.2000000000000000 [-]
	 SCS Same-Spin Energy      =      -0.0692218659873648 [Eh]
	 SCS Opposite-Spin Energy  =      -0.9519562235534049 [Eh]
	 SCS Correlation Energy    =      -1.0211780895407696 [Eh]
	 SCS Total Energy          =    -197.4247984893052603 [Eh]
	-----------------------------------------------------------

  Dipole Moment: [D]
     X:    -0.0056      Y:     0.0935      Z:    -0.0000     Total:     0.0936

*** Psi4 exiting successfully. Buy a developer a beer!
