                               Psi4 1.4a3.dev225

  ==> Input File <==

--------------------------------------------------------------------------
#psi4
#
memory 32 gb

molecule  {
0 1
  C        2.5434150    -0.3258570     0.0000020
  H        2.5799190    -0.9700390     0.8840510
  H        2.5798870    -0.9701100    -0.8839970
  H        3.4436120     0.2958290    -0.0000390
  C        1.2759530     0.5247200    -0.0000120
  H        1.2739300     1.1828070    -0.8780290
  H        1.2739250     1.1828280     0.8779900
  C       -0.0167141    -0.3247405    -0.0000049
  H       -0.0000060    -0.9732170    -0.8787350
  H        0.0000060    -0.9732200     0.8787230
  C       -1.2759530     0.5247200     0.0000030
  H       -1.2739340     1.1828180    -0.8780070
  H       -1.2739210     1.1828170     0.8780130
  C       -2.5434150    -0.3258570     0.0000110
  H       -2.5799100    -0.9700590     0.8840460
  H       -3.4436120     0.2958290    -0.0000090
  H       -2.5798950    -0.9700920    -0.8840020
units angstrom
no_reorient  #important for SAPT in psi4, default
symmetry c1  #important for SAPT in psi4, default
}

set PROPERTIES_ORIGIN ["COM"]
properties('MP2/aug-cc-pvtz', properties = ['dipole'])
--------------------------------------------------------------------------

    Molecular point group: c1
  Charge       = 0
  Multiplicity = 1
  Basis Set: AUG-CC-PVTZ
    Blend: AUG-CC-PVTZ
  Basis Set: (AUG-CC-PVTZ AUX)
    Blend: AUG-CC-PVTZ-JKFIT

    Orbital Energies [Eh]
    ---------------------

    Doubly Occupied:

       1A    -11.215342     2A    -11.214437     3A    -11.211913
       4A    -11.209220     5A    -11.209027     6A     -1.077860
       7A     -1.013032     8A     -0.917183     9A     -0.817491
      10A     -0.784306    11A     -0.645588    12A     -0.596103
      13A     -0.591293    14A     -0.551680    15A     -0.546152
      16A     -0.525939    17A     -0.493469    18A     -0.474976
      19A     -0.462201    20A     -0.460506    21A     -0.443133

  @DF-RHF Final Energy:  -196.40361305531829

   => Energetics <=

    Nuclear Repulsion Energy =            184.9267061839060773
    One-Electron Energy =                -629.7389381232554797
    Two-Electron Energy =                 248.4086188840311422
    Total Energy =                       -196.4036130553182886
  Basis Set: (AUG-CC-PVTZ AUX)
    Blend: AUG-CC-PVTZ-RI
    Molecular point group: c1

    Geometry (in Angstrom), charge = 0, multiplicity = 1:

       Center              X                  Y                   Z               Mass
    ------------   -----------------  -----------------  -----------------  -----------------
         C            2.546197041076    -0.330962489873     0.000002079908    12.000000000000
         H            2.582701041076    -0.975144489873     0.884051079908     1.007825032230
         H            2.582669041076    -0.975215489873    -0.883996920092     1.007825032230
         H            3.446394041076     0.290723510127    -0.000038920092     1.007825032230
         C            1.278735041076     0.519614510127    -0.000011920092    12.000000000000
         H            1.276712041076     1.177701510127    -0.878028920092     1.007825032230
         H            1.276707041076     1.177722510127     0.877990079908     1.007825032230
         C           -0.013932058924    -0.329845989873    -0.000004820092    12.000000000000
         H            0.002776041076    -0.978322489873    -0.878734920092     1.007825032230
         H            0.002788041076    -0.978325489873     0.878723079908     1.007825032230
         C           -1.273170958924     0.519614510127     0.000003079908    12.000000000000
         H           -1.271151958924     1.177712510127    -0.878006920092     1.007825032230
         H           -1.271138958924     1.177711510127     0.878013079908     1.007825032230
         C           -2.540632958924    -0.330962489873     0.000011079908    12.000000000000
         H           -2.577127958924    -0.975164489873     0.884046079908     1.007825032230
         H           -3.440829958924     0.290723510127    -0.000008920092     1.007825032230
         H           -2.577112958924    -0.975197489873    -0.884001920092     1.007825032230

  Basis Set: AUG-CC-PVTZ
    Blend: AUG-CC-PVTZ
  Basis Set: (AUG-CC-PVTZ AUX)
    Blend: AUG-CC-PVTZ-JKFIT
	 Reference Energy          =    -196.4036130553182886 [Eh]
	 Singles Energy            =      -0.0000000000000000 [Eh]
	 Same-Spin Energy          =      -0.2076557543892928 [Eh]
	 Opposite-Spin Energy      =      -0.7932890500467783 [Eh]
	 Correlation Energy        =      -1.0009448044360711 [Eh]
	 Total Energy              =    -197.4045578597543624 [Eh]

	 ================> DF-SCS-MP2 Energies <==================
	-----------------------------------------------------------
	 SCS Same-Spin Scale       =       0.3333333333333333 [-]
	 SCS Opposite-Spin Scale   =       1.2000000000000000 [-]
	 SCS Same-Spin Energy      =      -0.0692185847964309 [Eh]
	 SCS Opposite-Spin Energy  =      -0.9519468600561339 [Eh]
	 SCS Correlation Energy    =      -1.0211654448525649 [Eh]
	 SCS Total Energy          =    -197.4247785001708451 [Eh]
	-----------------------------------------------------------

  Dipole Moment: [D]
     X:    -0.0007      Y:     0.0846      Z:    -0.0000     Total:     0.0846

*** Psi4 exiting successfully. Buy a developer a beer!
