                               Psi4 1.3.2 release

  ==> Input File <==

--------------------------------------------------------------------------
#psi4
#
memory 32 gb

molecule  {
0 1
  C        2.5428260    -0.3261640     0.0004000
  H        2.5456834    -0.9549628     0.8962654
  H        2.5787950    -0.9712350    -0.8831070
  H        3.4433220     0.2951360    -0.0003880
  C        1.2758620     0.5250290    -0.0000810
  H        1.2742200     1.1832430    -0.8780540
  H        1.2734520     1.1829250     0.8781380
  C        0.0000050    -0.3135590    -0.0008010
  H       -0.0000170    -0.9720800    -0.8802820
  H        0.0000540    -0.9738100     0.8773920
  C       -1.2758600     0.5250110     0.0000320
  H       -1.2742070     1.1833710    -0.8778340
  H       -1.2734650     1.1827700     0.8783550
  C       -2.5428310    -0.3261580     0.0003500
  H       -2.5791270    -0.9698370     0.8848460
  H       -3.4433120     0.2951650    -0.0002120
  H       -2.5788740    -0.9709940    -0.8833260
units angstrom
no_reorient  #important for SAPT in psi4, default
symmetry c1  #important for SAPT in psi4, default
}

set PROPERTIES_ORIGIN ["COM"]
properties('MP2/aug-cc-pvtz', properties = ['dipole'])
--------------------------------------------------------------------------

    Molecular point group: c1
  Charge       = 0
  Multiplicity = 1
  Basis Set: AUG-CC-PVTZ
    Blend: AUG-CC-PVTZ
  Basis Set: (AUG-CC-PVTZ AUX)
    Blend: AUG-CC-PVTZ-JKFIT

    Orbital Energies [Eh]
    ---------------------

    Doubly Occupied:

       1A    -11.214796     2A    -11.214336     3A    -11.212475
       4A    -11.209470     5A    -11.209386     6A     -1.078985
       7A     -1.013774     8A     -0.917411     9A     -0.817728
      10A     -0.782932    11A     -0.645630    12A     -0.597140
      13A     -0.592214    14A     -0.551794    15A     -0.546846
      16A     -0.525487    17A     -0.492560    18A     -0.475314
      19A     -0.460480    20A     -0.458367    21A     -0.446724

  @DF-RHF Final Energy:  -196.40366535443101

   => Energetics <=

    Nuclear Repulsion Energy =            185.0636843244417094
    One-Electron Energy =                -630.0070031034350677
    Two-Electron Energy =                 248.5396534245623172
    Total Energy =                       -196.4036653544310127
  Basis Set: (AUG-CC-PVTZ AUX)
    Blend: AUG-CC-PVTZ-RI
    Molecular point group: c1

    Geometry (in Angstrom), charge = 0, multiplicity = 1:

       Center              X                  Y                   Z               Mass
    ------------   -----------------  -----------------  -----------------  -----------------
         C            2.543293633842    -0.333318038207     0.000251781029    12.000000000000
         H            2.546151033842    -0.962116838207     0.896117181029     1.007825032230
         H            2.579262633842    -0.978389038207    -0.883255218971     1.007825032230
         H            3.443789633842     0.287981961793    -0.000536218971     1.007825032230
         C            1.276329633842     0.517874961793    -0.000229218971    12.000000000000
         H            1.274687633842     1.176088961793    -0.878202218971     1.007825032230
         H            1.273919633842     1.175770961793     0.877989781029     1.007825032230
         C            0.000472633842    -0.320713038207    -0.000949218971    12.000000000000
         H            0.000450633842    -0.979234038207    -0.880430218971     1.007825032230
         H            0.000521633842    -0.980964038207     0.877243781029     1.007825032230
         C           -1.275392366158     0.517856961793    -0.000116218971    12.000000000000
         H           -1.273739366158     1.176216961793    -0.877982218971     1.007825032230
         H           -1.272997366158     1.175615961793     0.878206781029     1.007825032230
         C           -2.542363366158    -0.333312038207     0.000201781029    12.000000000000
         H           -2.578659366158    -0.976991038207     0.884697781029     1.007825032230
         H           -3.442844366158     0.288010961793    -0.000360218971     1.007825032230
         H           -2.578406366158    -0.978148038207    -0.883474218971     1.007825032230

  Basis Set: AUG-CC-PVTZ
    Blend: AUG-CC-PVTZ
  Basis Set: (AUG-CC-PVTZ AUX)
    Blend: AUG-CC-PVTZ-JKFIT
	 Reference Energy          =    -196.4036653544310127 [Eh]
	 Singles Energy            =      -0.0000000000000000 [Eh]
	 Same-Spin Energy          =      -0.2077442675884474 [Eh]
	 Opposite-Spin Energy      =      -0.7933885961592773 [Eh]
	 Correlation Energy        =      -1.0011328637477246 [Eh]
	 Total Energy              =    -197.4047982181787404 [Eh]

	 ================> DF-SCS-MP2 Energies <==================
	-----------------------------------------------------------
	 SCS Same-Spin Scale       =       0.3333333333333333 [-]
	 SCS Opposite-Spin Scale   =       1.2000000000000000 [-]
	 SCS Same-Spin Energy      =      -0.0692480891961491 [Eh]
	 SCS Opposite-Spin Energy  =      -0.9520663153911326 [Eh]
	 SCS Correlation Energy    =      -1.0213144045872817 [Eh]
	 SCS Total Energy          =    -197.4249797590182993 [Eh]
	-----------------------------------------------------------

  Dipole Moment: [D]
     X:    -0.0043      Y:     0.0926      Z:    -0.0033     Total:     0.0928

*** Psi4 exiting successfully. Buy a developer a beer!
