                               Psi4 1.3.2 release

  ==> Input File <==

--------------------------------------------------------------------------
#psi4
#
memory 32 gb

molecule  {
0 1
  C        2.5428260    -0.3261640     0.0004000
  H        2.5791480    -0.9696020     0.8850690
  H        2.5787950    -0.9712350    -0.8831070
  H        3.4433220     0.2951360    -0.0003880
  C        1.3043511     0.4799914    -0.0001240
  H        1.2742200     1.1832430    -0.8780540
  H        1.2734520     1.1829250     0.8781380
  C        0.0000050    -0.3135590    -0.0008010
  H       -0.0000170    -0.9720800    -0.8802820
  H        0.0000540    -0.9738100     0.8773920
  C       -1.2758600     0.5250110     0.0000320
  H       -1.2742070     1.1833710    -0.8778340
  H       -1.2734650     1.1827700     0.8783550
  C       -2.5428310    -0.3261580     0.0003500
  H       -2.5791270    -0.9698370     0.8848460
  H       -3.4433120     0.2951650    -0.0002120
  H       -2.5788740    -0.9709940    -0.8833260
units angstrom
no_reorient  #important for SAPT in psi4, default
symmetry c1  #important for SAPT in psi4, default
}

set PROPERTIES_ORIGIN ["COM"]
properties('MP2/aug-cc-pvtz', properties = ['dipole'])
--------------------------------------------------------------------------

    Molecular point group: c1
  Charge       = 0
  Multiplicity = 1
  Basis Set: AUG-CC-PVTZ
    Blend: AUG-CC-PVTZ
  Basis Set: (AUG-CC-PVTZ AUX)
    Blend: AUG-CC-PVTZ-JKFIT

    Orbital Energies [Eh]
    ---------------------

    Doubly Occupied:

       1A    -11.217442     2A    -11.215901     3A    -11.212901
       4A    -11.210114     5A    -11.208229     6A     -1.081145
       7A     -1.019426     8A     -0.920481     9A     -0.816765
      10A     -0.779413    11A     -0.644009    12A     -0.599899
      13A     -0.591797    14A     -0.558674    15A     -0.548975
      16A     -0.525672    17A     -0.495822    18A     -0.470974
      19A     -0.459991    20A     -0.450289    21A     -0.449817

  @DF-RHF Final Energy:  -196.40036293879558

   => Energetics <=

    Nuclear Repulsion Energy =            185.2473661424490103
    One-Electron Energy =                -630.3399891885181887
    Two-Electron Energy =                 248.6922601072736256
    Total Energy =                       -196.4003629387955812
  Basis Set: (AUG-CC-PVTZ AUX)
    Blend: AUG-CC-PVTZ-RI
    Molecular point group: c1

    Geometry (in Angstrom), charge = 0, multiplicity = 1:

       Center              X                  Y                   Z               Mass
    ------------   -----------------  -----------------  -----------------  -----------------
         C            2.538083821923    -0.325616901921     0.000415456626    12.000000000000
         H            2.574405821923    -0.969054901921     0.885084456626     1.007825032230
         H            2.574052821923    -0.970687901921    -0.883091543374     1.007825032230
         H            3.438579821923     0.295683098079    -0.000372543374     1.007825032230
         C            1.299608921923     0.480538498079    -0.000108543374    12.000000000000
         H            1.269477821923     1.183790098079    -0.878038543374     1.007825032230
         H            1.268709821923     1.183472098079     0.878153456626     1.007825032230
         C           -0.004737178077    -0.313011901921    -0.000785543374    12.000000000000
         H           -0.004759178077    -0.971532901921    -0.880266543374     1.007825032230
         H           -0.004688178077    -0.973262901921     0.877407456626     1.007825032230
         C           -1.280602178077     0.525558098079     0.000047456626    12.000000000000
         H           -1.278949178077     1.183918098079    -0.877818543374     1.007825032230
         H           -1.278207178077     1.183317098079     0.878370456626     1.007825032230
         C           -2.547573178077    -0.325610901921     0.000365456626    12.000000000000
         H           -2.583869178077    -0.969289901921     0.884861456626     1.007825032230
         H           -3.448054178077     0.295712098079    -0.000196543374     1.007825032230
         H           -2.583616178077    -0.970446901921    -0.883310543374     1.007825032230

  Basis Set: AUG-CC-PVTZ
    Blend: AUG-CC-PVTZ
  Basis Set: (AUG-CC-PVTZ AUX)
    Blend: AUG-CC-PVTZ-JKFIT
	 Reference Energy          =    -196.4003629387955812 [Eh]
	 Singles Energy            =      -0.0000000000000000 [Eh]
	 Same-Spin Energy          =      -0.2080758345987640 [Eh]
	 Opposite-Spin Energy      =      -0.7937470024719533 [Eh]
	 Correlation Energy        =      -1.0018228370707174 [Eh]
	 Total Energy              =    -197.4021857758662861 [Eh]

	 ================> DF-SCS-MP2 Energies <==================
	-----------------------------------------------------------
	 SCS Same-Spin Scale       =       0.3333333333333333 [-]
	 SCS Opposite-Spin Scale   =       1.2000000000000000 [-]
	 SCS Same-Spin Energy      =      -0.0693586115329213 [Eh]
	 SCS Opposite-Spin Energy  =      -0.9524964029663439 [Eh]
	 SCS Correlation Energy    =      -1.0218550144992653 [Eh]
	 SCS Total Energy          =    -197.4222179532948473 [Eh]
	-----------------------------------------------------------

  Dipole Moment: [D]
     X:     0.0061      Y:     0.0620      Z:    -0.0001     Total:     0.0623

*** Psi4 exiting successfully. Buy a developer a beer!
