                               Psi4 1.3.2 release

  ==> Input File <==

--------------------------------------------------------------------------
#psi4
#
memory 32 gb

molecule  {
0 1
  C        2.5428260    -0.3261640     0.0004000
  H        2.5791480    -0.9696020     0.8850690
  H        2.5787950    -0.9712350    -0.8831070
  H        3.4433220     0.2951360    -0.0003880
  C        1.2758620     0.5250290    -0.0000810
  H        1.2740704     1.2432274    -0.9580655
  H        1.2734520     1.1829250     0.8781380
  C        0.0000050    -0.3135590    -0.0008010
  H       -0.0000170    -0.9720800    -0.8802820
  H        0.0000540    -0.9738100     0.8773920
  C       -1.2758600     0.5250110     0.0000320
  H       -1.2742070     1.1833710    -0.8778340
  H       -1.2734650     1.1827700     0.8783550
  C       -2.5428310    -0.3261580     0.0003500
  H       -2.5791270    -0.9698370     0.8848460
  H       -3.4433120     0.2951650    -0.0002120
  H       -2.5788740    -0.9709940    -0.8833260
units angstrom
no_reorient  #important for SAPT in psi4, default
symmetry c1  #important for SAPT in psi4, default
}

set PROPERTIES_ORIGIN ["COM"]
properties('MP2/aug-cc-pvtz', properties = ['dipole'])
--------------------------------------------------------------------------

    Molecular point group: c1
  Charge       = 0
  Multiplicity = 1
  Basis Set: AUG-CC-PVTZ
    Blend: AUG-CC-PVTZ
  Basis Set: (AUG-CC-PVTZ AUX)
    Blend: AUG-CC-PVTZ-JKFIT

    Orbital Energies [Eh]
    ---------------------

    Doubly Occupied:

       1A    -11.227220     2A    -11.214957     3A    -11.213807
       4A    -11.210746     5A    -11.209543     6A     -1.077830
       7A     -1.012401     8A     -0.918322     9A     -0.815400
      10A     -0.778724    11A     -0.642721    12A     -0.596783
      13A     -0.587968    14A     -0.553660    15A     -0.546798
      16A     -0.525577    17A     -0.492706    18A     -0.471893
      19A     -0.461106    20A     -0.452051    21A     -0.447790

  @DF-RHF Final Energy:  -196.39758568996638

   => Energetics <=

    Nuclear Repulsion Energy =            184.6113021326354442
    One-Electron Energy =                -629.1017710319301841
    Two-Electron Energy =                 248.0928832093283631
    Total Energy =                       -196.3975856899663768
  Basis Set: (AUG-CC-PVTZ AUX)
    Blend: AUG-CC-PVTZ-RI
    Molecular point group: c1

    Geometry (in Angstrom), charge = 0, multiplicity = 1:

       Center              X                  Y                   Z               Mass
    ------------   -----------------  -----------------  -----------------  -----------------
         C            2.542827912183    -0.333951934104     0.001526807131    12.000000000000
         H            2.579149912183    -0.977389934104     0.886195807131     1.007825032230
         H            2.578796912183    -0.979022934104    -0.881980192869     1.007825032230
         H            3.443323912183     0.287348065896     0.000738807131     1.007825032230
         C            1.275863912183     0.517241065896     0.001045807131    12.000000000000
         H            1.274072312183     1.235439465896    -0.956938692869     1.007825032230
         H            1.273453912183     1.175137065896     0.879264807131     1.007825032230
         C            0.000006912183    -0.321346934104     0.000325807131    12.000000000000
         H           -0.000015087817    -0.979867934104    -0.879155192869     1.007825032230
         H            0.000055912183    -0.981597934104     0.878518807131     1.007825032230
         C           -1.275858087817     0.517223065896     0.001158807131    12.000000000000
         H           -1.274205087817     1.175583065896    -0.876707192869     1.007825032230
         H           -1.273463087817     1.174982065896     0.879481807131     1.007825032230
         C           -2.542829087817    -0.333945934104     0.001476807131    12.000000000000
         H           -2.579125087817    -0.977624934104     0.885972807131     1.007825032230
         H           -3.443310087817     0.287377065896     0.000914807131     1.007825032230
         H           -2.578872087817    -0.978781934104    -0.882199192869     1.007825032230

  Basis Set: AUG-CC-PVTZ
    Blend: AUG-CC-PVTZ
  Basis Set: (AUG-CC-PVTZ AUX)
    Blend: AUG-CC-PVTZ-JKFIT
	 Reference Energy          =    -196.3975856899663768 [Eh]
	 Singles Energy            =      -0.0000000000000000 [Eh]
	 Same-Spin Energy          =      -0.2077012065881480 [Eh]
	 Opposite-Spin Energy      =      -0.7940102953938942 [Eh]
	 Correlation Energy        =      -1.0017115019820422 [Eh]
	 Total Energy              =    -197.3992971919484205 [Eh]

	 ================> DF-SCS-MP2 Energies <==================
	-----------------------------------------------------------
	 SCS Same-Spin Scale       =       0.3333333333333333 [-]
	 SCS Opposite-Spin Scale   =       1.2000000000000000 [-]
	 SCS Same-Spin Energy      =      -0.0692337355293827 [Eh]
	 SCS Opposite-Spin Energy  =      -0.9528123544726730 [Eh]
	 SCS Correlation Energy    =      -1.0220460900020556 [Eh]
	 SCS Total Energy          =    -197.4196317799684266 [Eh]
	-----------------------------------------------------------

  Dipole Moment: [D]
     X:     0.0001      Y:     0.0215      Z:     0.0604     Total:     0.0641

*** Psi4 exiting successfully. Buy a developer a beer!
