                               Psi4 1.3.2 release

  ==> Input File <==

--------------------------------------------------------------------------
#psi4
#
memory 32 gb

molecule  {
0 1
  C        2.5428260    -0.3261640     0.0004000
  H        2.5791480    -0.9696020     0.8850690
  H        2.5787950    -0.9712350    -0.8831070
  H        3.4433220     0.2951360    -0.0003880
  C        1.1098492     0.6365625    -0.0001440
  H        1.2742200     1.1832430    -0.8780540
  H        1.2734520     1.1829250     0.8781380
  C        0.0000050    -0.3135590    -0.0008010
  H       -0.0000170    -0.9720800    -0.8802820
  H        0.0000540    -0.9738100     0.8773920
  C       -1.2758600     0.5250110     0.0000320
  H       -1.2742070     1.1833710    -0.8778340
  H       -1.2734650     1.1827700     0.8783550
  C       -2.5428310    -0.3261580     0.0003500
  H       -2.5791270    -0.9698370     0.8848460
  H       -3.4433120     0.2951650    -0.0002120
  H       -2.5788740    -0.9709940    -0.8833260
units angstrom
no_reorient  #important for SAPT in psi4, default
symmetry c1  #important for SAPT in psi4, default
}

set PROPERTIES_ORIGIN ["COM"]
properties('MP2/aug-cc-pvtz', properties = ['dipole'])
--------------------------------------------------------------------------

    Molecular point group: c1
  Charge       = 0
  Multiplicity = 1
  Basis Set: AUG-CC-PVTZ
    Blend: AUG-CC-PVTZ
  Basis Set: (AUG-CC-PVTZ AUX)
    Blend: AUG-CC-PVTZ-JKFIT

    Orbital Energies [Eh]
    ---------------------

    Doubly Occupied:

       1A    -11.215272     2A    -11.212841     3A    -11.211964
       4A    -11.211526     5A    -11.207769     6A     -1.085128
       7A     -0.998680     8A     -0.910217     9A     -0.824707
      10A     -0.791085    11A     -0.654852    12A     -0.594994
      13A     -0.590763    14A     -0.558289    15A     -0.535402
      16A     -0.523688    17A     -0.493148    18A     -0.484542
      19A     -0.479701    20A     -0.464799    21A     -0.400135

  @DF-RHF Final Energy:  -196.37374934087831

   => Energetics <=

    Nuclear Repulsion Energy =            184.9977217235854710
    One-Electron Energy =                -629.8439352314637745
    Two-Electron Energy =                 248.4724641669999983
    Total Energy =                       -196.3737493408783052
  Basis Set: (AUG-CC-PVTZ AUX)
    Blend: AUG-CC-PVTZ-RI
    Molecular point group: c1

    Geometry (in Angstrom), charge = 0, multiplicity = 1:

       Center              X                  Y                   Z               Mass
    ------------   -----------------  -----------------  -----------------  -----------------
         C            2.570458582998    -0.351678096973     0.000418785618    12.000000000000
         H            2.606780582998    -0.995116096973     0.885087785618     1.007825032230
         H            2.606427582998    -0.996749096973    -0.883088214382     1.007825032230
         H            3.470954582998     0.269621903027    -0.000369214382     1.007825032230
         C            1.137481782998     0.611048403027    -0.000125214382    12.000000000000
         H            1.301852582998     1.157728903027    -0.878035214382     1.007825032230
         H            1.301084582998     1.157410903027     0.878156785618     1.007825032230
         C            0.027637582998    -0.339073096973    -0.000782214382    12.000000000000
         H            0.027615582998    -0.997594096973    -0.880263214382     1.007825032230
         H            0.027686582998    -0.999324096973     0.877410785618     1.007825032230
         C           -1.248227417002     0.499496903027     0.000050785618    12.000000000000
         H           -1.246574417002     1.157856903027    -0.877815214382     1.007825032230
         H           -1.245832417002     1.157255903027     0.878373785618     1.007825032230
         C           -2.515198417002    -0.351672096973     0.000368785618    12.000000000000
         H           -2.551494417002    -0.995351096973     0.884864785618     1.007825032230
         H           -3.415679417002     0.269650903027    -0.000193214382     1.007825032230
         H           -2.551241417002    -0.996508096973    -0.883307214382     1.007825032230

  Basis Set: AUG-CC-PVTZ
    Blend: AUG-CC-PVTZ
  Basis Set: (AUG-CC-PVTZ AUX)
    Blend: AUG-CC-PVTZ-JKFIT
	 Reference Energy          =    -196.3737493408783052 [Eh]
	 Singles Energy            =      -0.0000000000000000 [Eh]
	 Same-Spin Energy          =      -0.2085224499011628 [Eh]
	 Opposite-Spin Energy      =      -0.7955305722466257 [Eh]
	 Correlation Energy        =      -1.0040530221477884 [Eh]
	 Total Energy              =    -197.3778023630260918 [Eh]

	 ================> DF-SCS-MP2 Energies <==================
	-----------------------------------------------------------
	 SCS Same-Spin Scale       =       0.3333333333333333 [-]
	 SCS Opposite-Spin Scale   =       1.2000000000000000 [-]
	 SCS Same-Spin Energy      =      -0.0695074833003876 [Eh]
	 SCS Opposite-Spin Energy  =      -0.9546366866959508 [Eh]
	 SCS Correlation Energy    =      -1.0241441699963385 [Eh]
	 SCS Total Energy          =    -197.3978935108746384 [Eh]
	-----------------------------------------------------------

  Dipole Moment: [D]
     X:    -0.0759      Y:     0.1270      Z:    -0.0002     Total:     0.1480

*** Psi4 exiting successfully. Buy a developer a beer!
