                               Psi4 1.3.2 release

  ==> Input File <==

--------------------------------------------------------------------------
#psi4
#
memory 32 gb

molecule  {
0 1
  C        2.5428260    -0.3261640     0.0004000
  H        2.5737859    -0.8737483     0.9475873
  H        2.5787950    -0.9712350    -0.8831070
  H        3.4433220     0.2951360    -0.0003880
  C        1.2758620     0.5250290    -0.0000810
  H        1.2742200     1.1832430    -0.8780540
  H        1.2734520     1.1829250     0.8781380
  C        0.0000050    -0.3135590    -0.0008010
  H       -0.0000170    -0.9720800    -0.8802820
  H        0.0000540    -0.9738100     0.8773920
  C       -1.2758600     0.5250110     0.0000320
  H       -1.2742070     1.1833710    -0.8778340
  H       -1.2734650     1.1827700     0.8783550
  C       -2.5428310    -0.3261580     0.0003500
  H       -2.5791270    -0.9698370     0.8848460
  H       -3.4433120     0.2951650    -0.0002120
  H       -2.5788740    -0.9709940    -0.8833260
units angstrom
no_reorient  #important for SAPT in psi4, default
symmetry c1  #important for SAPT in psi4, default
}

set PROPERTIES_ORIGIN ["COM"]
properties('MP2/aug-cc-pvtz', properties = ['dipole'])
--------------------------------------------------------------------------

    Molecular point group: c1
  Charge       = 0
  Multiplicity = 1
  Basis Set: AUG-CC-PVTZ
    Blend: AUG-CC-PVTZ
  Basis Set: (AUG-CC-PVTZ AUX)
    Blend: AUG-CC-PVTZ-JKFIT

    Orbital Energies [Eh]
    ---------------------

    Doubly Occupied:

       1A    -11.214713     2A    -11.214087     3A    -11.212325
       4A    -11.209582     5A    -11.209320     6A     -1.078946
       7A     -1.013915     8A     -0.917589     9A     -0.817391
      10A     -0.782315    11A     -0.646552    12A     -0.596146
      13A     -0.594561    14A     -0.551035    15A     -0.544466
      16A     -0.528795    17A     -0.489843    18A     -0.476784
      19A     -0.459525    20A     -0.457930    21A     -0.446544

  @DF-RHF Final Energy:  -196.40253421496200

   => Energetics <=

    Nuclear Repulsion Energy =            185.0567160814486272
    One-Electron Energy =                -629.9937751683138458
    Two-Electron Energy =                 248.5345248719032440
    Total Energy =                       -196.4025342149620030
  Basis Set: (AUG-CC-PVTZ AUX)
    Blend: AUG-CC-PVTZ-RI
    Molecular point group: c1

    Geometry (in Angstrom), charge = 0, multiplicity = 1:

       Center              X                  Y                   Z               Mass
    ------------   -----------------  -----------------  -----------------  -----------------
         C            2.542900779484    -0.334453363188    -0.000465665180    12.000000000000
         H            2.573860679484    -0.882037663188     0.946721634820     1.007825032230
         H            2.578869779484    -0.979524363188    -0.883972665180     1.007825032230
         H            3.443396779484     0.286846636812    -0.001253665180     1.007825032230
         C            1.275936779484     0.516739636812    -0.000946665180    12.000000000000
         H            1.274294779484     1.174953636812    -0.878919665180     1.007825032230
         H            1.273526779484     1.174635636812     0.877272334820     1.007825032230
         C            0.000079779484    -0.321848363188    -0.001666665180    12.000000000000
         H            0.000057779484    -0.980369363188    -0.881147665180     1.007825032230
         H            0.000128779484    -0.982099363188     0.876526334820     1.007825032230
         C           -1.275785220516     0.516721636812    -0.000833665180    12.000000000000
         H           -1.274132220516     1.175081636812    -0.878699665180     1.007825032230
         H           -1.273390220516     1.174480636812     0.877489334820     1.007825032230
         C           -2.542756220516    -0.334447363188    -0.000515665180    12.000000000000
         H           -2.579052220516    -0.978126363188     0.883980334820     1.007825032230
         H           -3.443237220516     0.286875636812    -0.001077665180     1.007825032230
         H           -2.578799220516    -0.979283363188    -0.884191665180     1.007825032230

  Basis Set: AUG-CC-PVTZ
    Blend: AUG-CC-PVTZ
  Basis Set: (AUG-CC-PVTZ AUX)
    Blend: AUG-CC-PVTZ-JKFIT
	 Reference Energy          =    -196.4025342149620030 [Eh]
	 Singles Energy            =      -0.0000000000000000 [Eh]
	 Same-Spin Energy          =      -0.2077859947506889 [Eh]
	 Opposite-Spin Energy      =      -0.7934730792664102 [Eh]
	 Correlation Energy        =      -1.0012590740170990 [Eh]
	 Total Energy              =    -197.4037932889791023 [Eh]

	 ================> DF-SCS-MP2 Energies <==================
	-----------------------------------------------------------
	 SCS Same-Spin Scale       =       0.3333333333333333 [-]
	 SCS Opposite-Spin Scale   =       1.2000000000000000 [-]
	 SCS Same-Spin Energy      =      -0.0692619982502296 [Eh]
	 SCS Opposite-Spin Energy  =      -0.9521676951196922 [Eh]
	 SCS Correlation Energy    =      -1.0214296933699218 [Eh]
	 SCS Total Energy          =    -197.4239639083319275 [Eh]
	-----------------------------------------------------------

  Dipole Moment: [D]
     X:     0.0108      Y:     0.1110      Z:     0.0089     Total:     0.1119

*** Psi4 exiting successfully. Buy a developer a beer!
