                               Psi4 1.3.2 release

  ==> Input File <==

--------------------------------------------------------------------------
#psi4
#
memory 32 gb

molecule  {
0 1
  C        2.5428260    -0.3261640     0.0004000
  H        2.5725109    -0.8520274     0.7234146
  H        2.5787950    -0.9712350    -0.8831070
  H        3.4433220     0.2951360    -0.0003880
  C        1.2758620     0.5250290    -0.0000810
  H        1.2742200     1.1832430    -0.8780540
  H        1.2734520     1.1829250     0.8781380
  C        0.0000050    -0.3135590    -0.0008010
  H       -0.0000170    -0.9720800    -0.8802820
  H        0.0000540    -0.9738100     0.8773920
  C       -1.2758600     0.5250110     0.0000320
  H       -1.2742070     1.1833710    -0.8778340
  H       -1.2734650     1.1827700     0.8783550
  C       -2.5428310    -0.3261580     0.0003500
  H       -2.5791270    -0.9698370     0.8848460
  H       -3.4433120     0.2951650    -0.0002120
  H       -2.5788740    -0.9709940    -0.8833260
units angstrom
no_reorient  #important for SAPT in psi4, default
symmetry c1  #important for SAPT in psi4, default
}

set PROPERTIES_ORIGIN ["COM"]
properties('MP2/aug-cc-pvtz', properties = ['dipole'])
--------------------------------------------------------------------------

    Molecular point group: c1
  Charge       = 0
  Multiplicity = 1
  Basis Set: AUG-CC-PVTZ
    Blend: AUG-CC-PVTZ
  Basis Set: (AUG-CC-PVTZ AUX)
    Blend: AUG-CC-PVTZ-JKFIT

    Orbital Energies [Eh]
    ---------------------

    Doubly Occupied:

       1A    -11.214547     2A    -11.212934     3A    -11.212131
       4A    -11.209203     5A    -11.183805     6A     -1.080861
       7A     -1.020958     8A     -0.928559     9A     -0.827444
      10A     -0.784942    11A     -0.648592    12A     -0.605659
      13A     -0.594534    14A     -0.557959    15A     -0.546591
      16A     -0.532821    17A     -0.496065    18A     -0.478492
      19A     -0.460737    20A     -0.458356    21A     -0.445568

  @DF-RHF Final Energy:  -196.36976962919073

   => Energetics <=

    Nuclear Repulsion Energy =            185.9123018507874860
    One-Electron Energy =                -631.5626262042480903
    Two-Electron Energy =                 249.2805547242699049
    Total Energy =                       -196.3697696291907278
  Basis Set: (AUG-CC-PVTZ AUX)
    Blend: AUG-CC-PVTZ-RI
    Molecular point group: c1

    Geometry (in Angstrom), charge = 0, multiplicity = 1:

       Center              X                  Y                   Z               Mass
    ------------   -----------------  -----------------  -----------------  -----------------
         C            2.542918603141    -0.334757007000     0.002668120860    12.000000000000
         H            2.572603503141    -0.860620407000     0.725682720860     1.007825032230
         H            2.578887603141    -0.979828007000    -0.880838879140     1.007825032230
         H            3.443414603141     0.286542993000     0.001880120860     1.007825032230
         C            1.275954603141     0.516435993000     0.002187120860    12.000000000000
         H            1.274312603141     1.174649993000    -0.875785879140     1.007825032230
         H            1.273544603141     1.174331993000     0.880406120860     1.007825032230
         C            0.000097603141    -0.322152007000     0.001467120860    12.000000000000
         H            0.000075603141    -0.980673007000    -0.878013879140     1.007825032230
         H            0.000146603141    -0.982403007000     0.879660120860     1.007825032230
         C           -1.275767396859     0.516417993000     0.002300120860    12.000000000000
         H           -1.274114396859     1.174777993000    -0.875565879140     1.007825032230
         H           -1.273372396859     1.174176993000     0.880623120860     1.007825032230
         C           -2.542738396859    -0.334751007000     0.002618120860    12.000000000000
         H           -2.579034396859    -0.978430007000     0.887114120860     1.007825032230
         H           -3.443219396859     0.286571993000     0.002056120860     1.007825032230
         H           -2.578781396859    -0.979587007000    -0.881057879140     1.007825032230

  Basis Set: AUG-CC-PVTZ
    Blend: AUG-CC-PVTZ
  Basis Set: (AUG-CC-PVTZ AUX)
    Blend: AUG-CC-PVTZ-JKFIT
	 Reference Energy          =    -196.3697696291907278 [Eh]
	 Singles Energy            =      -0.0000000000000000 [Eh]
	 Same-Spin Energy          =      -0.2079241231057082 [Eh]
	 Opposite-Spin Energy      =      -0.7928547970033506 [Eh]
	 Correlation Energy        =      -1.0007789201090587 [Eh]
	 Total Energy              =    -197.3705485492997980 [Eh]

	 ================> DF-SCS-MP2 Energies <==================
	-----------------------------------------------------------
	 SCS Same-Spin Scale       =       0.3333333333333333 [-]
	 SCS Opposite-Spin Scale   =       1.2000000000000000 [-]
	 SCS Same-Spin Energy      =      -0.0693080410352361 [Eh]
	 SCS Opposite-Spin Energy  =      -0.9514257564040207 [Eh]
	 SCS Correlation Energy    =      -1.0207337974392567 [Eh]
	 SCS Total Energy          =    -197.3905034266299765 [Eh]
	-----------------------------------------------------------

  Dipole Moment: [D]
     X:     0.0312      Y:     0.0176      Z:     0.0741     Total:     0.0823

*** Psi4 exiting successfully. Buy a developer a beer!
