                               Psi4 1.4a3.dev225

  ==> Input File <==

--------------------------------------------------------------------------
#psi4
#
memory 32 gb

molecule  {
0 1
  C        2.5434150    -0.3258570     0.0000020
  H        2.5799190    -0.9700390     0.8840510
  H        2.5798870    -0.9701100    -0.8839970
  H        3.4436120     0.2958290    -0.0000390
  C        1.2759530     0.5247200    -0.0000120
  H        1.2739300     1.1828070    -0.8780290
  H        1.2739250     1.1828280     0.8779900
  C        0.0000000    -0.3137570    -0.0000050
  H       -0.0000063    -1.0032290    -0.9187260
  H        0.0000060    -0.9732200     0.8787230
  C       -1.2759530     0.5247200     0.0000030
  H       -1.2739340     1.1828180    -0.8780070
  H       -1.2739210     1.1828170     0.8780130
  C       -2.5434150    -0.3258570     0.0000110
  H       -2.5799100    -0.9700590     0.8840460
  H       -3.4436120     0.2958290    -0.0000090
  H       -2.5798950    -0.9700920    -0.8840020
units angstrom
no_reorient  #important for SAPT in psi4, default
symmetry c1  #important for SAPT in psi4, default
}

set PROPERTIES_ORIGIN ["COM"]
properties('MP2/aug-cc-pvtz', properties = ['dipole'])
--------------------------------------------------------------------------

    Molecular point group: c1
  Charge       = 0
  Multiplicity = 1
  Basis Set: AUG-CC-PVTZ
    Blend: AUG-CC-PVTZ
  Basis Set: (AUG-CC-PVTZ AUX)
    Blend: AUG-CC-PVTZ-JKFIT

    Orbital Energies [Eh]
    ---------------------

    Doubly Occupied:

       1A    -11.218919     2A    -11.215399     3A    -11.215334
       4A    -11.209446     5A    -11.209445     6A     -1.077920
       7A     -1.013815     8A     -0.916299     9A     -0.818731
      10A     -0.779758    11A     -0.643353    12A     -0.596980
      13A     -0.591714    14A     -0.552362    15A     -0.545775
      16A     -0.522524    17A     -0.493814    18A     -0.475447
      19A     -0.460886    20A     -0.454916    21A     -0.447352

  @DF-RHF Final Energy:  -196.40184908107616

   => Energetics <=

    Nuclear Repulsion Energy =            184.7938571666319945
    One-Electron Energy =                -629.4710350588877645
    Two-Electron Energy =                 248.2753288111796053
    Total Energy =                       -196.4018490810761648
  Basis Set: (AUG-CC-PVTZ AUX)
    Blend: AUG-CC-PVTZ-RI
    Molecular point group: c1

    Geometry (in Angstrom), charge = 0, multiplicity = 1:

       Center              X                  Y                   Z               Mass
    ------------   -----------------  -----------------  -----------------  -----------------
         C            2.543414990214    -0.332371141015     0.000561144276    12.000000000000
         H            2.579918990214    -0.976553141015     0.884610144276     1.007825032230
         H            2.579886990214    -0.976624141015    -0.883437855724     1.007825032230
         H            3.443611990214     0.289314858985     0.000520144276     1.007825032230
         C            1.275952990214     0.518205858985     0.000547144276    12.000000000000
         H            1.273929990214     1.176292858985    -0.877469855724     1.007825032230
         H            1.273924990214     1.176313858985     0.878549144276     1.007825032230
         C           -0.000000009786    -0.320271141015     0.000554144276    12.000000000000
         H           -0.000006309786    -1.009743141015    -0.918166855724     1.007825032230
         H            0.000005990214    -0.979734141015     0.879282144276     1.007825032230
         C           -1.275953009786     0.518205858985     0.000562144276    12.000000000000
         H           -1.273934009786     1.176303858985    -0.877447855724     1.007825032230
         H           -1.273921009786     1.176302858985     0.878572144276     1.007825032230
         C           -2.543415009786    -0.332371141015     0.000570144276    12.000000000000
         H           -2.579910009786    -0.976573141015     0.884605144276     1.007825032230
         H           -3.443612009786     0.289314858985     0.000550144276     1.007825032230
         H           -2.579895009786    -0.976606141015    -0.883442855724     1.007825032230

  Basis Set: AUG-CC-PVTZ
    Blend: AUG-CC-PVTZ
  Basis Set: (AUG-CC-PVTZ AUX)
    Blend: AUG-CC-PVTZ-JKFIT
	 Reference Energy          =    -196.4018490810761648 [Eh]
	 Singles Energy            =      -0.0000000000000000 [Eh]
	 Same-Spin Energy          =      -0.2077248983169200 [Eh]
	 Opposite-Spin Energy      =      -0.7936551469093445 [Eh]
	 Correlation Energy        =      -1.0013800452262644 [Eh]
	 Total Energy              =    -197.4032291263024206 [Eh]

	 ================> DF-SCS-MP2 Energies <==================
	-----------------------------------------------------------
	 SCS Same-Spin Scale       =       0.3333333333333333 [-]
	 SCS Opposite-Spin Scale   =       1.2000000000000000 [-]
	 SCS Same-Spin Energy      =      -0.0692416327723067 [Eh]
	 SCS Opposite-Spin Energy  =      -0.9523861762912134 [Eh]
	 SCS Correlation Energy    =      -1.0216278090635200 [Eh]
	 SCS Total Energy          =    -197.4234768901396819 [Eh]
	-----------------------------------------------------------

  Dipole Moment: [D]
     X:     0.0000      Y:     0.1182      Z:     0.0286     Total:     0.1216

*** Psi4 exiting successfully. Buy a developer a beer!
