                               Psi4 1.3.2 release

  ==> Input File <==

--------------------------------------------------------------------------
#psi4
#
memory 32 gb

molecule  {
0 1
  C        2.5428260    -0.3261640     0.0004000
  H        2.5791480    -0.9696020     0.8850690
  H        2.5787950    -0.9712350    -0.8831070
  H        3.4433220     0.2951360    -0.0003880
  C        1.2758620     0.5250290    -0.0000810
  H        1.2742200     1.1832430    -0.8780540
  H        1.2734520     1.1829250     0.8781380
  C        0.0000050    -0.3135590    -0.0008010
  H       -0.0000201    -0.9091264    -0.9240757
  H        0.0000540    -0.9738100     0.8773920
  C       -1.2758600     0.5250110     0.0000320
  H       -1.2742070     1.1833710    -0.8778340
  H       -1.2734650     1.1827700     0.8783550
  C       -2.5428310    -0.3261580     0.0003500
  H       -2.5791270    -0.9698370     0.8848460
  H       -3.4433120     0.2951650    -0.0002120
  H       -2.5788740    -0.9709940    -0.8833260
units angstrom
no_reorient  #important for SAPT in psi4, default
symmetry c1  #important for SAPT in psi4, default
}

set PROPERTIES_ORIGIN ["COM"]
properties('MP2/aug-cc-pvtz', properties = ['dipole'])
--------------------------------------------------------------------------

    Molecular point group: c1
  Charge       = 0
  Multiplicity = 1
  Basis Set: AUG-CC-PVTZ
    Blend: AUG-CC-PVTZ
  Basis Set: (AUG-CC-PVTZ AUX)
    Blend: AUG-CC-PVTZ-JKFIT

    Orbital Energies [Eh]
    ---------------------

    Doubly Occupied:

       1A    -11.214478     2A    -11.214378     3A    -11.212656
       4A    -11.209362     5A    -11.209361     6A     -1.079298
       7A     -1.013550     8A     -0.917718     9A     -0.818280
      10A     -0.781051    11A     -0.648245    12A     -0.596689
      13A     -0.591533    14A     -0.550957    15A     -0.545807
      16A     -0.527423    17A     -0.493507    18A     -0.475166
      19A     -0.461405    20A     -0.456317    21A     -0.446637

  @DF-RHF Final Energy:  -196.40323415920403

   => Energetics <=

    Nuclear Repulsion Energy =            185.0528589664106960
    One-Electron Energy =                -629.9845532175687595
    Two-Electron Energy =                 248.5284600919540594
    Total Energy =                       -196.4032341592040325
  Basis Set: (AUG-CC-PVTZ AUX)
    Blend: AUG-CC-PVTZ-RI
    Molecular point group: c1

    Geometry (in Angstrom), charge = 0, multiplicity = 1:

       Center              X                  Y                   Z               Mass
    ------------   -----------------  -----------------  -----------------  -----------------
         C            2.542825864209    -0.333993441555     0.001020506247    12.000000000000
         H            2.579147864209    -0.977431441555     0.885689506247     1.007825032230
         H            2.578794864209    -0.979064441555    -0.882486493753     1.007825032230
         H            3.443321864209     0.287306558445     0.000232506247     1.007825032230
         C            1.275861864209     0.517199558445     0.000539506247    12.000000000000
         H            1.274219864209     1.175413558445    -0.877433493753     1.007825032230
         H            1.273451864209     1.175095558445     0.878758506247     1.007825032230
         C            0.000004864209    -0.321388441555    -0.000180493753    12.000000000000
         H           -0.000020235791    -0.916955841555    -0.923455193753     1.007825032230
         H            0.000053864209    -0.981639441555     0.878012506247     1.007825032230
         C           -1.275860135791     0.517181558445     0.000652506247    12.000000000000
         H           -1.274207135791     1.175541558445    -0.877213493753     1.007825032230
         H           -1.273465135791     1.174940558445     0.878975506247     1.007825032230
         C           -2.542831135791    -0.333987441555     0.000970506247    12.000000000000
         H           -2.579127135791    -0.977666441555     0.885466506247     1.007825032230
         H           -3.443312135791     0.287335558445     0.000408506247     1.007825032230
         H           -2.578874135791    -0.978823441555    -0.882705493753     1.007825032230

  Basis Set: AUG-CC-PVTZ
    Blend: AUG-CC-PVTZ
  Basis Set: (AUG-CC-PVTZ AUX)
    Blend: AUG-CC-PVTZ-JKFIT
	 Reference Energy          =    -196.4032341592040325 [Eh]
	 Singles Energy            =      -0.0000000000000000 [Eh]
	 Same-Spin Energy          =      -0.2077607235570396 [Eh]
	 Opposite-Spin Energy      =      -0.7934477408563019 [Eh]
	 Correlation Energy        =      -1.0012084644133414 [Eh]
	 Total Energy              =    -197.4044426236173706 [Eh]

	 ================> DF-SCS-MP2 Energies <==================
	-----------------------------------------------------------
	 SCS Same-Spin Scale       =       0.3333333333333333 [-]
	 SCS Opposite-Spin Scale   =       1.2000000000000000 [-]
	 SCS Same-Spin Energy      =      -0.0692535745190132 [Eh]
	 SCS Opposite-Spin Energy  =      -0.9521372890275622 [Eh]
	 SCS Correlation Energy    =      -1.0213908635465754 [Eh]
	 SCS Total Energy          =    -197.4246250227506039 [Eh]
	-----------------------------------------------------------

  Dipole Moment: [D]
     X:    -0.0000      Y:     0.0985      Z:    -0.0067     Total:     0.0987

*** Psi4 exiting successfully. Buy a developer a beer!
