                               Psi4 1.3.2 release

  ==> Input File <==

--------------------------------------------------------------------------
#psi4
#
memory 32 gb

molecule  {
0 1
  C        2.5717604    -0.2814291     0.0004199
  H        2.5791480    -0.9696020     0.8850690
  H        2.5787950    -0.9712350    -0.8831070
  H        3.4433220     0.2951360    -0.0003880
  C        1.2758620     0.5250290    -0.0000810
  H        1.2742200     1.1832430    -0.8780540
  H        1.2734520     1.1829250     0.8781380
  C        0.0000050    -0.3135590    -0.0008010
  H       -0.0000170    -0.9720800    -0.8802820
  H        0.0000540    -0.9738100     0.8773920
  C       -1.2758600     0.5250110     0.0000320
  H       -1.2742070     1.1833710    -0.8778340
  H       -1.2734650     1.1827700     0.8783550
  C       -2.5428310    -0.3261580     0.0003500
  H       -2.5791270    -0.9698370     0.8848460
  H       -3.4433120     0.2951650    -0.0002120
  H       -2.5788740    -0.9709940    -0.8833260
units angstrom
no_reorient  #important for SAPT in psi4, default
symmetry c1  #important for SAPT in psi4, default
}

set PROPERTIES_ORIGIN ["COM"]
properties('MP2/aug-cc-pvtz', properties = ['dipole'])
--------------------------------------------------------------------------

    Molecular point group: c1
  Charge       = 0
  Multiplicity = 1
  Basis Set: AUG-CC-PVTZ
    Blend: AUG-CC-PVTZ
  Basis Set: (AUG-CC-PVTZ AUX)
    Blend: AUG-CC-PVTZ-JKFIT

    Orbital Energies [Eh]
    ---------------------

    Doubly Occupied:

       1A    -11.215419     2A    -11.214970     3A    -11.213458
       4A    -11.210021     5A    -11.209754     6A     -1.078772
       7A     -1.013817     8A     -0.918926     9A     -0.818727
      10A     -0.782757    11A     -0.644447    12A     -0.601881
      13A     -0.588251    14A     -0.556448    15A     -0.551338
      16A     -0.519956    17A     -0.491067    18A     -0.470938
      19A     -0.459565    20A     -0.456547    21A     -0.452656

  @DF-RHF Final Energy:  -196.40069286759893

   => Energetics <=

    Nuclear Repulsion Energy =            184.8621658767110603
    One-Electron Energy =                -629.5862813811482965
    Two-Electron Energy =                 248.3234226368383020
    Total Energy =                       -196.4006928675989343
  Basis Set: (AUG-CC-PVTZ AUX)
    Blend: AUG-CC-PVTZ-RI
    Molecular point group: c1

    Geometry (in Angstrom), charge = 0, multiplicity = 1:

       Center              X                  Y                   Z               Mass
    ------------   -----------------  -----------------  -----------------  -----------------
         C            2.566944101921    -0.295824597539     0.000424886947    12.000000000000
         H            2.574331701921    -0.983997497539     0.885073986947     1.007825032230
         H            2.573978701921    -0.985630497539    -0.883102013053     1.007825032230
         H            3.438505701921     0.280740502461    -0.000383013053     1.007825032230
         C            1.271045701921     0.510633502461    -0.000076013053    12.000000000000
         H            1.269403701921     1.168847502461    -0.878049013053     1.007825032230
         H            1.268635701921     1.168529502461     0.878142986947     1.007825032230
         C           -0.004811298079    -0.327954497539    -0.000796013053    12.000000000000
         H           -0.004833298079    -0.986475497539    -0.880277013053     1.007825032230
         H           -0.004762298079    -0.988205497539     0.877396986947     1.007825032230
         C           -1.280676298079     0.510615502461     0.000036986947    12.000000000000
         H           -1.279023298079     1.168975502461    -0.877829013053     1.007825032230
         H           -1.278281298079     1.168374502461     0.878359986947     1.007825032230
         C           -2.547647298079    -0.340553497539     0.000354986947    12.000000000000
         H           -2.583943298079    -0.984232497539     0.884850986947     1.007825032230
         H           -3.448128298079     0.280769502461    -0.000207013053     1.007825032230
         H           -2.583690298079    -0.985389497539    -0.883321013053     1.007825032230

  Basis Set: AUG-CC-PVTZ
    Blend: AUG-CC-PVTZ
  Basis Set: (AUG-CC-PVTZ AUX)
    Blend: AUG-CC-PVTZ-JKFIT
	 Reference Energy          =    -196.4006928675989343 [Eh]
	 Singles Energy            =      -0.0000000000000000 [Eh]
	 Same-Spin Energy          =      -0.2077420529257720 [Eh]
	 Opposite-Spin Energy      =      -0.7934412806480081 [Eh]
	 Correlation Energy        =      -1.0011833335737801 [Eh]
	 Total Energy              =    -197.4018762011727119 [Eh]

	 ================> DF-SCS-MP2 Energies <==================
	-----------------------------------------------------------
	 SCS Same-Spin Scale       =       0.3333333333333333 [-]
	 SCS Opposite-Spin Scale   =       1.2000000000000000 [-]
	 SCS Same-Spin Energy      =      -0.0692473509752573 [Eh]
	 SCS Opposite-Spin Energy  =      -0.9521295367776097 [Eh]
	 SCS Correlation Energy    =      -1.0213768877528671 [Eh]
	 SCS Total Energy          =    -197.4220697553517994 [Eh]
	-----------------------------------------------------------

  Dipole Moment: [D]
     X:    -0.0094      Y:     0.1067      Z:    -0.0000     Total:     0.1071

*** Psi4 exiting successfully. Buy a developer a beer!
