                               Psi4 1.3.2 release

  ==> Input File <==

--------------------------------------------------------------------------
#psi4
#
memory 32 gb

molecule  {
0 1
  C        2.5428260    -0.3261640     0.0004000
  H        2.6459037    -0.9965117     0.8594576
  H        2.5787950    -0.9712350    -0.8831070
  H        3.4433220     0.2951360    -0.0003880
  C        1.2758620     0.5250290    -0.0000810
  H        1.2742200     1.1832430    -0.8780540
  H        1.2734520     1.1829250     0.8781380
  C        0.0000050    -0.3135590    -0.0008010
  H       -0.0000170    -0.9720800    -0.8802820
  H        0.0000540    -0.9738100     0.8773920
  C       -1.2758600     0.5250110     0.0000320
  H       -1.2742070     1.1833710    -0.8778340
  H       -1.2734650     1.1827700     0.8783550
  C       -2.5428310    -0.3261580     0.0003500
  H       -2.5791270    -0.9698370     0.8848460
  H       -3.4433120     0.2951650    -0.0002120
  H       -2.5788740    -0.9709940    -0.8833260
units angstrom
no_reorient  #important for SAPT in psi4, default
symmetry c1  #important for SAPT in psi4, default
}

set PROPERTIES_ORIGIN ["COM"]
properties('MP2/aug-cc-pvtz', properties = ['dipole'])
--------------------------------------------------------------------------

    Molecular point group: c1
  Charge       = 0
  Multiplicity = 1
  Basis Set: AUG-CC-PVTZ
    Blend: AUG-CC-PVTZ
  Basis Set: (AUG-CC-PVTZ AUX)
    Blend: AUG-CC-PVTZ-JKFIT

    Orbital Energies [Eh]
    ---------------------

    Doubly Occupied:

       1A    -11.215806     2A    -11.214793     3A    -11.212451
       4A    -11.209394     5A    -11.209195     6A     -1.078701
       7A     -1.013223     8A     -0.917846     9A     -0.819613
      10A     -0.783497    11A     -0.644730    12A     -0.596208
      13A     -0.589948    14A     -0.554925    15A     -0.544966
      16A     -0.523381    17A     -0.495661    18A     -0.474678
      19A     -0.461486    20A     -0.458201    21A     -0.446177

  @DF-RHF Final Energy:  -196.40334853011387

   => Energetics <=

    Nuclear Repulsion Energy =            184.9306940615014128
    One-Electron Energy =                -629.7383232756394591
    Two-Electron Energy =                 248.4042806840241724
    Total Energy =                       -196.4033485301138739
  Basis Set: (AUG-CC-PVTZ AUX)
    Blend: AUG-CC-PVTZ-RI
    Molecular point group: c1

    Geometry (in Angstrom), charge = 0, multiplicity = 1:

       Center              X                  Y                   Z               Mass
    ------------   -----------------  -----------------  -----------------  -----------------
         C            2.541892620351    -0.332737212072     0.000766329722    12.000000000000
         H            2.644970320351    -1.003084912072     0.859823929722     1.007825032230
         H            2.577861620351    -0.977808212072    -0.882740670278     1.007825032230
         H            3.442388620351     0.288562787928    -0.000021670278     1.007825032230
         C            1.274928620351     0.518455787928     0.000285329722    12.000000000000
         H            1.273286620351     1.176669787928    -0.877687670278     1.007825032230
         H            1.272518620351     1.176351787928     0.878504329722     1.007825032230
         C           -0.000928379649    -0.320132212072    -0.000434670278    12.000000000000
         H           -0.000950379649    -0.978653212072    -0.879915670278     1.007825032230
         H           -0.000879379649    -0.980383212072     0.877758329722     1.007825032230
         C           -1.276793379649     0.518437787928     0.000398329722    12.000000000000
         H           -1.275140379649     1.176797787928    -0.877467670278     1.007825032230
         H           -1.274398379649     1.176196787928     0.878721329722     1.007825032230
         C           -2.543764379649    -0.332731212072     0.000716329722    12.000000000000
         H           -2.580060379649    -0.976410212072     0.885212329722     1.007825032230
         H           -3.444245379649     0.288591787928     0.000154329722     1.007825032230
         H           -2.579807379649    -0.977567212072    -0.882959670278     1.007825032230

  Basis Set: AUG-CC-PVTZ
    Blend: AUG-CC-PVTZ
  Basis Set: (AUG-CC-PVTZ AUX)
    Blend: AUG-CC-PVTZ-JKFIT
	 Reference Energy          =    -196.4033485301138739 [Eh]
	 Singles Energy            =      -0.0000000000000000 [Eh]
	 Same-Spin Energy          =      -0.2077040376265741 [Eh]
	 Opposite-Spin Energy      =      -0.7932717087668859 [Eh]
	 Correlation Energy        =      -1.0009757463934599 [Eh]
	 Total Energy              =    -197.4043242765073387 [Eh]

	 ================> DF-SCS-MP2 Energies <==================
	-----------------------------------------------------------
	 SCS Same-Spin Scale       =       0.3333333333333333 [-]
	 SCS Opposite-Spin Scale   =       1.2000000000000000 [-]
	 SCS Same-Spin Energy      =      -0.0692346792088580 [Eh]
	 SCS Opposite-Spin Energy  =      -0.9519260505202630 [Eh]
	 SCS Correlation Energy    =      -1.0211607297291210 [Eh]
	 SCS Total Energy          =    -197.4245092598430062 [Eh]
	-----------------------------------------------------------

  Dipole Moment: [D]
     X:     0.0065      Y:     0.0793      Z:     0.0046     Total:     0.0797

*** Psi4 exiting successfully. Buy a developer a beer!
