                               Psi4 1.3.2 release

  ==> Input File <==

--------------------------------------------------------------------------
#psi4
#
memory 32 gb

molecule  {
0 1
  C        2.5428260    -0.3261640     0.0004000
  H        2.5791480    -0.9696020     0.8850690
  H        2.5787950    -0.9712350    -0.8831070
  H        3.4433220     0.2951360    -0.0003880
  C        1.2758620     0.5250290    -0.0000810
  H        1.2742200     1.1832430    -0.8780540
  H        1.2734520     1.1829250     0.8781380
  C        0.0835705    -0.2586335    -0.0007538
  H       -0.0000170    -0.9720800    -0.8802820
  H        0.0000540    -0.9738100     0.8773920
  C       -1.2758600     0.5250110     0.0000320
  H       -1.2742070     1.1833710    -0.8778340
  H       -1.2734650     1.1827700     0.8783550
  C       -2.5428310    -0.3261580     0.0003500
  H       -2.5791270    -0.9698370     0.8848460
  H       -3.4433120     0.2951650    -0.0002120
  H       -2.5788740    -0.9709940    -0.8833260
units angstrom
no_reorient  #important for SAPT in psi4, default
symmetry c1  #important for SAPT in psi4, default
}

set PROPERTIES_ORIGIN ["COM"]
properties('MP2/aug-cc-pvtz', properties = ['dipole'])
--------------------------------------------------------------------------

    Molecular point group: c1
  Charge       = 0
  Multiplicity = 1
  Basis Set: AUG-CC-PVTZ
    Blend: AUG-CC-PVTZ
  Basis Set: (AUG-CC-PVTZ AUX)
    Blend: AUG-CC-PVTZ-JKFIT

    Orbital Energies [Eh]
    ---------------------

    Doubly Occupied:

       1A    -11.217199     2A    -11.216657     3A    -11.211297
       4A    -11.211236     5A    -11.210267     6A     -1.087985
       7A     -1.015537     8A     -0.919927     9A     -0.823021
      10A     -0.776594    11A     -0.645333    12A     -0.602242
      13A     -0.592616    14A     -0.559357    15A     -0.546062
      16A     -0.521114    17A     -0.495225    18A     -0.476541
      19A     -0.476362    20A     -0.444369    21A     -0.435962

  @DF-RHF Final Energy:  -196.39239832717084

   => Energetics <=

    Nuclear Repulsion Energy =            185.4716433129699453
    One-Electron Energy =                -630.7582740482299641
    Two-Electron Energy =                 248.8942324080891808
    Total Energy =                       -196.3923983271708380
  Basis Set: (AUG-CC-PVTZ AUX)
    Blend: AUG-CC-PVTZ-RI
    Molecular point group: c1

    Geometry (in Angstrom), charge = 0, multiplicity = 1:

       Center              X                  Y                   Z               Mass
    ------------   -----------------  -----------------  -----------------  -----------------
         C            2.528916377847    -0.342255718709     0.000400442873    12.000000000000
         H            2.565238377847    -0.985693718709     0.885069442873     1.007825032230
         H            2.564885377847    -0.987326718709    -0.883106557127     1.007825032230
         H            3.429412377847     0.279044281291    -0.000387557127     1.007825032230
         C            1.261952377847     0.508937281291    -0.000080557127    12.000000000000
         H            1.260310377847     1.167151281291    -0.878053557127     1.007825032230
         H            1.259542377847     1.166833281291     0.878138442873     1.007825032230
         C            0.069660877847    -0.274725218709    -0.000753357127    12.000000000000
         H           -0.013926622153    -0.988171718709    -0.880281557127     1.007825032230
         H           -0.013855622153    -0.989901718709     0.877392442873     1.007825032230
         C           -1.289769622153     0.508919281291     0.000032442873    12.000000000000
         H           -1.288116622153     1.167279281291    -0.877833557127     1.007825032230
         H           -1.287374622153     1.166678281291     0.878355442873     1.007825032230
         C           -2.556740622153    -0.342249718709     0.000350442873    12.000000000000
         H           -2.593036622153    -0.985928718709     0.884846442873     1.007825032230
         H           -3.457221622153     0.279073281291    -0.000211557127     1.007825032230
         H           -2.592783622153    -0.987085718709    -0.883325557127     1.007825032230

  Basis Set: AUG-CC-PVTZ
    Blend: AUG-CC-PVTZ
  Basis Set: (AUG-CC-PVTZ AUX)
    Blend: AUG-CC-PVTZ-JKFIT
	 Reference Energy          =    -196.3923983271708380 [Eh]
	 Singles Energy            =      -0.0000000000000000 [Eh]
	 Same-Spin Energy          =      -0.2085307743112714 [Eh]
	 Opposite-Spin Energy      =      -0.7944095592390742 [Eh]
	 Correlation Energy        =      -1.0029403335503455 [Eh]
	 Total Energy              =    -197.3953386607211939 [Eh]

	 ================> DF-SCS-MP2 Energies <==================
	-----------------------------------------------------------
	 SCS Same-Spin Scale       =       0.3333333333333333 [-]
	 SCS Opposite-Spin Scale   =       1.2000000000000000 [-]
	 SCS Same-Spin Energy      =      -0.0695102581037571 [Eh]
	 SCS Opposite-Spin Energy  =      -0.9532914710868889 [Eh]
	 SCS Correlation Energy    =      -1.0228017291906462 [Eh]
	 SCS Total Energy          =    -197.4152000563614706 [Eh]
	-----------------------------------------------------------

  Dipole Moment: [D]
     X:     0.0079      Y:     0.1134      Z:    -0.0000     Total:     0.1137

*** Psi4 exiting successfully. Buy a developer a beer!
