                               Psi4 1.4a3.dev225

  ==> Input File <==

--------------------------------------------------------------------------
#psi4
#
memory 32 gb

molecule  {
0 1
  C        2.5434150    -0.3258570     0.0000020
  H        2.5799190    -0.9700390     0.8840510
  H        2.5798870    -0.9701100    -0.8839970
  H        3.4436120     0.2958290    -0.0000390
  C        1.2759530     0.5247200    -0.0000120
  H        1.2740222     1.1528195    -0.8380198
  H        1.2739250     1.1828280     0.8779900
  C        0.0000000    -0.3137570    -0.0000050
  H       -0.0000060    -0.9732170    -0.8787350
  H        0.0000060    -0.9732200     0.8787230
  C       -1.2759530     0.5247200     0.0000030
  H       -1.2739340     1.1828180    -0.8780070
  H       -1.2739210     1.1828170     0.8780130
  C       -2.5434150    -0.3258570     0.0000110
  H       -2.5799100    -0.9700590     0.8840460
  H       -3.4436120     0.2958290    -0.0000090
  H       -2.5798950    -0.9700920    -0.8840020
units angstrom
no_reorient  #important for SAPT in psi4, default
symmetry c1  #important for SAPT in psi4, default
}

set PROPERTIES_ORIGIN ["COM"]
properties('MP2/aug-cc-pvtz', properties = ['dipole'])
--------------------------------------------------------------------------

    Molecular point group: c1
  Charge       = 0
  Multiplicity = 1
  Basis Set: AUG-CC-PVTZ
    Blend: AUG-CC-PVTZ
  Basis Set: (AUG-CC-PVTZ AUX)
    Blend: AUG-CC-PVTZ-JKFIT

    Orbital Energies [Eh]
    ---------------------

    Doubly Occupied:

       1A    -11.214743     2A    -11.211968     3A    -11.209321
       4A    -11.208962     5A    -11.208103     6A     -1.079752
       7A     -1.014479     8A     -0.917268     9A     -0.820839
      10A     -0.785544    11A     -0.646877    12A     -0.597368
      13A     -0.592756    14A     -0.552417    15A     -0.545935
      16A     -0.524704    17A     -0.494659    18A     -0.477352
      19A     -0.461603    20A     -0.458965    21A     -0.446223

  @DF-RHF Final Energy:  -196.40291214999959

   => Energetics <=

    Nuclear Repulsion Energy =            185.2283404024097138
    One-Electron Energy =                -630.3228303849871281
    Two-Electron Energy =                 248.6915778325778490
    Total Energy =                       -196.4029121499995938
  Basis Set: (AUG-CC-PVTZ AUX)
    Blend: AUG-CC-PVTZ-RI
    Molecular point group: c1

    Geometry (in Angstrom), charge = 0, multiplicity = 1:

       Center              X                  Y                   Z               Mass
    ------------   -----------------  -----------------  -----------------  -----------------
         C            2.543413697126    -0.332371483509    -0.000557205594    12.000000000000
         H            2.579917697126    -0.976553483509     0.883491794406     1.007825032230
         H            2.579885697126    -0.976624483509    -0.884556205594     1.007825032230
         H            3.443610697126     0.289314516491    -0.000598205594     1.007825032230
         C            1.275951697126     0.518205516491    -0.000571205594    12.000000000000
         H            1.274020897126     1.146305016491    -0.838579005594     1.007825032230
         H            1.273923697126     1.176313516491     0.877430794406     1.007825032230
         C           -0.000001302874    -0.320271483509    -0.000564205594    12.000000000000
         H           -0.000007302874    -0.979731483509    -0.879294205594     1.007825032230
         H            0.000004697126    -0.979734483509     0.878163794406     1.007825032230
         C           -1.275954302874     0.518205516491    -0.000556205594    12.000000000000
         H           -1.273935302874     1.176303516491    -0.878566205594     1.007825032230
         H           -1.273922302874     1.176302516491     0.877453794406     1.007825032230
         C           -2.543416302874    -0.332371483509    -0.000548205594    12.000000000000
         H           -2.579911302874    -0.976573483509     0.883486794406     1.007825032230
         H           -3.443613302874     0.289314516491    -0.000568205594     1.007825032230
         H           -2.579896302874    -0.976606483509    -0.884561205594     1.007825032230

  Basis Set: AUG-CC-PVTZ
    Blend: AUG-CC-PVTZ
  Basis Set: (AUG-CC-PVTZ AUX)
    Blend: AUG-CC-PVTZ-JKFIT
	 Reference Energy          =    -196.4029121499995938 [Eh]
	 Singles Energy            =      -0.0000000000000000 [Eh]
	 Same-Spin Energy          =      -0.2077247119841163 [Eh]
	 Opposite-Spin Energy      =      -0.7930577316963182 [Eh]
	 Correlation Energy        =      -1.0007824436804345 [Eh]
	 Total Energy              =    -197.4036945936800294 [Eh]

	 ================> DF-SCS-MP2 Energies <==================
	-----------------------------------------------------------
	 SCS Same-Spin Scale       =       0.3333333333333333 [-]
	 SCS Opposite-Spin Scale   =       1.2000000000000000 [-]
	 SCS Same-Spin Energy      =      -0.0692415706613721 [Eh]
	 SCS Opposite-Spin Energy  =      -0.9516692780355818 [Eh]
	 SCS Correlation Energy    =      -1.0209108486969538 [Eh]
	 SCS Total Energy          =    -197.4238229986965507 [Eh]
	-----------------------------------------------------------

  Dipole Moment: [D]
     X:    -0.0004      Y:     0.1151      Z:    -0.0245     Total:     0.1177

*** Psi4 exiting successfully. Buy a developer a beer!
