                               Psi4 1.3.2 release

  ==> Input File <==

--------------------------------------------------------------------------
#psi4
#
memory 32 gb

molecule  {
0 1
  C        2.5428260    -0.3261640     0.0004000
  H        2.5791480    -0.9696020     0.8850690
  H        2.5787950    -0.9712350    -0.8831070
  H        3.4433220     0.2951360    -0.0003880
  C        1.2758620     0.5250290    -0.0000810
  H        1.2740153     1.2428836    -0.8300005
  H        1.2734520     1.1829250     0.8781380
  C        0.0000050    -0.3135590    -0.0008010
  H       -0.0000170    -0.9720800    -0.8802820
  H        0.0000540    -0.9738100     0.8773920
  C       -1.2758600     0.5250110     0.0000320
  H       -1.2742070     1.1833710    -0.8778340
  H       -1.2734650     1.1827700     0.8783550
  C       -2.5428310    -0.3261580     0.0003500
  H       -2.5791270    -0.9698370     0.8848460
  H       -3.4433120     0.2951650    -0.0002120
  H       -2.5788740    -0.9709940    -0.8833260
units angstrom
no_reorient  #important for SAPT in psi4, default
symmetry c1  #important for SAPT in psi4, default
}

set PROPERTIES_ORIGIN ["COM"]
properties('MP2/aug-cc-pvtz', properties = ['dipole'])
--------------------------------------------------------------------------

    Molecular point group: c1
  Charge       = 0
  Multiplicity = 1
  Basis Set: AUG-CC-PVTZ
    Blend: AUG-CC-PVTZ
  Basis Set: (AUG-CC-PVTZ AUX)
    Blend: AUG-CC-PVTZ-JKFIT

    Orbital Energies [Eh]
    ---------------------

    Doubly Occupied:

       1A    -11.214833     2A    -11.214601     3A    -11.212850
       4A    -11.209796     5A    -11.209395     6A     -1.078615
       7A     -1.013368     8A     -0.917580     9A     -0.818931
      10A     -0.784619    11A     -0.643226    12A     -0.597988
      13A     -0.589477    14A     -0.552822    15A     -0.546395
      16A     -0.524920    17A     -0.495800    18A     -0.473117
      19A     -0.463306    20A     -0.456035    21A     -0.446693

  @DF-RHF Final Energy:  -196.40328889085461

   => Energetics <=

    Nuclear Repulsion Energy =            184.9818004072257907
    One-Electron Energy =                -629.8414475378776842
    Two-Electron Energy =                 248.4563582397972539
    Total Energy =                       -196.4032888908546113
  Basis Set: (AUG-CC-PVTZ AUX)
    Blend: AUG-CC-PVTZ-RI
    Molecular point group: c1

    Geometry (in Angstrom), charge = 0, multiplicity = 1:

       Center              X                  Y                   Z               Mass
    ------------   -----------------  -----------------  -----------------  -----------------
         C            2.542828682444    -0.333947128007    -0.000263456846    12.000000000000
         H            2.579150682444    -0.977385128007     0.884405543154     1.007825032230
         H            2.578797682444    -0.979018128007    -0.883770456846     1.007825032230
         H            3.443324682444     0.287352871993    -0.001051456846     1.007825032230
         C            1.275864682444     0.517245871993    -0.000744456846    12.000000000000
         H            1.274017982444     1.235100471993    -0.830663956846     1.007825032230
         H            1.273454682444     1.175141871993     0.877474543154     1.007825032230
         C            0.000007682444    -0.321342128007    -0.001464456846    12.000000000000
         H           -0.000014317556    -0.979863128007    -0.880945456846     1.007825032230
         H            0.000056682444    -0.981593128007     0.876728543154     1.007825032230
         C           -1.275857317556     0.517227871993    -0.000631456846    12.000000000000
         H           -1.274204317556     1.175587871993    -0.878497456846     1.007825032230
         H           -1.273462317556     1.174986871993     0.877691543154     1.007825032230
         C           -2.542828317556    -0.333941128007    -0.000313456846    12.000000000000
         H           -2.579124317556    -0.977620128007     0.884182543154     1.007825032230
         H           -3.443309317556     0.287381871993    -0.000875456846     1.007825032230
         H           -2.578871317556    -0.978777128007    -0.883989456846     1.007825032230

  Basis Set: AUG-CC-PVTZ
    Blend: AUG-CC-PVTZ
  Basis Set: (AUG-CC-PVTZ AUX)
    Blend: AUG-CC-PVTZ-JKFIT
	 Reference Energy          =    -196.4032888908546113 [Eh]
	 Singles Energy            =      -0.0000000000000000 [Eh]
	 Same-Spin Energy          =      -0.2077317454114739 [Eh]
	 Opposite-Spin Energy      =      -0.7933093181436253 [Eh]
	 Correlation Energy        =      -1.0010410635550993 [Eh]
	 Total Energy              =    -197.4043299544097181 [Eh]

	 ================> DF-SCS-MP2 Energies <==================
	-----------------------------------------------------------
	 SCS Same-Spin Scale       =       0.3333333333333333 [-]
	 SCS Opposite-Spin Scale   =       1.2000000000000000 [-]
	 SCS Same-Spin Energy      =      -0.0692439151371580 [Eh]
	 SCS Opposite-Spin Energy  =      -0.9519711817723503 [Eh]
	 SCS Correlation Energy    =      -1.0212150969095082 [Eh]
	 SCS Total Energy          =    -197.4245039877641261 [Eh]
	-----------------------------------------------------------

  Dipole Moment: [D]
     X:    -0.0002      Y:     0.0997      Z:     0.0107     Total:     0.1003

*** Psi4 exiting successfully. Buy a developer a beer!
