                               Psi4 1.3.2 release

  ==> Input File <==

--------------------------------------------------------------------------
#psi4
#
memory 32 gb

molecule  {
0 1
  C        2.5428260    -0.3261640     0.0004000
  H        2.5791480    -0.9696020     0.8850690
  H        2.5787950    -0.9712350    -0.8831070
  H        3.4433220     0.2951360    -0.0003880
  C        1.2758620     0.5250290    -0.0000810
  H        1.2742200     1.1832430    -0.8780540
  H        1.2734520     1.1829250     0.8781380
  C        0.0000050    -0.3135590    -0.0008010
  H       -0.0000215    -0.8765418    -0.9442983
  H        0.0000540    -0.9738100     0.8773920
  C       -1.2758600     0.5250110     0.0000320
  H       -1.2742070     1.1833710    -0.8778340
  H       -1.2734650     1.1827700     0.8783550
  C       -2.5428310    -0.3261580     0.0003500
  H       -2.5791270    -0.9698370     0.8848460
  H       -3.4433120     0.2951650    -0.0002120
  H       -2.5788740    -0.9709940    -0.8833260
units angstrom
no_reorient  #important for SAPT in psi4, default
symmetry c1  #important for SAPT in psi4, default
}

set PROPERTIES_ORIGIN ["COM"]
properties('MP2/aug-cc-pvtz', properties = ['dipole'])
--------------------------------------------------------------------------

    Molecular point group: c1
  Charge       = 0
  Multiplicity = 1
  Basis Set: AUG-CC-PVTZ
    Blend: AUG-CC-PVTZ
  Basis Set: (AUG-CC-PVTZ AUX)
    Blend: AUG-CC-PVTZ-JKFIT

    Orbital Energies [Eh]
    ---------------------

    Doubly Occupied:

       1A    -11.214332     2A    -11.214211     3A    -11.212753
       4A    -11.209358     5A    -11.209356     6A     -1.079558
       7A     -1.013554     8A     -0.917842     9A     -0.818260
      10A     -0.780055    11A     -0.649790    12A     -0.596691
      13A     -0.591557    14A     -0.550304    15A     -0.545523
      16A     -0.528593    17A     -0.493466    18A     -0.475167
      19A     -0.462584    20A     -0.454086    21A     -0.446653

  @DF-RHF Final Energy:  -196.40247094775458

   => Energetics <=

    Nuclear Repulsion Energy =            185.0722338860805678
    One-Electron Energy =                -630.0220224041191841
    Two-Electron Energy =                 248.5473175702840649
    Total Energy =                       -196.4024709477545798
  Basis Set: (AUG-CC-PVTZ AUX)
    Blend: AUG-CC-PVTZ-RI
    Molecular point group: c1

    Geometry (in Angstrom), charge = 0, multiplicity = 1:

       Center              X                  Y                   Z               Mass
    ------------   -----------------  -----------------  -----------------  -----------------
         C            2.542825883781    -0.334448952706     0.001303204816    12.000000000000
         H            2.579147883781    -0.977886952706     0.885972204816     1.007825032230
         H            2.578794883781    -0.979519952706    -0.882203795184     1.007825032230
         H            3.443321883781     0.286851047294     0.000515204816     1.007825032230
         C            1.275861883781     0.516744047294     0.000822204816    12.000000000000
         H            1.274219883781     1.174958047294    -0.877150795184     1.007825032230
         H            1.273451883781     1.174640047294     0.879041204816     1.007825032230
         C            0.000004883781    -0.321843952706     0.000102204816    12.000000000000
         H           -0.000021616219    -0.884826752706    -0.943395095184     1.007825032230
         H            0.000053883781    -0.982094952706     0.878295204816     1.007825032230
         C           -1.275860116219     0.516726047294     0.000935204816    12.000000000000
         H           -1.274207116219     1.175086047294    -0.876930795184     1.007825032230
         H           -1.273465116219     1.174485047294     0.879258204816     1.007825032230
         C           -2.542831116219    -0.334442952706     0.001253204816    12.000000000000
         H           -2.579127116219    -0.978121952706     0.885749204816     1.007825032230
         H           -3.443312116219     0.286880047294     0.000691204816     1.007825032230
         H           -2.578874116219    -0.979278952706    -0.882422795184     1.007825032230

  Basis Set: AUG-CC-PVTZ
    Blend: AUG-CC-PVTZ
  Basis Set: (AUG-CC-PVTZ AUX)
    Blend: AUG-CC-PVTZ-JKFIT
	 Reference Energy          =    -196.4024709477545798 [Eh]
	 Singles Energy            =      -0.0000000000000000 [Eh]
	 Same-Spin Energy          =      -0.2078032240457384 [Eh]
	 Opposite-Spin Energy      =      -0.7935411269336059 [Eh]
	 Correlation Energy        =      -1.0013443509793443 [Eh]
	 Total Energy              =    -197.4038152987339174 [Eh]

	 ================> DF-SCS-MP2 Energies <==================
	-----------------------------------------------------------
	 SCS Same-Spin Scale       =       0.3333333333333333 [-]
	 SCS Opposite-Spin Scale   =       1.2000000000000000 [-]
	 SCS Same-Spin Energy      =      -0.0692677413485795 [Eh]
	 SCS Opposite-Spin Energy  =      -0.9522493523203270 [Eh]
	 SCS Correlation Energy    =      -1.0215170936689064 [Eh]
	 SCS Total Energy          =    -197.4239880414234847 [Eh]
	-----------------------------------------------------------

  Dipole Moment: [D]
     X:    -0.0000      Y:     0.1037      Z:    -0.0091     Total:     0.1041

*** Psi4 exiting successfully. Buy a developer a beer!
