                               Psi4 1.4a3.dev225

  ==> Input File <==

--------------------------------------------------------------------------
#psi4
#
memory 32 gb

molecule  {
0 1
  C        2.5434150    -0.3258570     0.0000020
  H        2.5799190    -0.9700390     0.8840510
  H        2.5798870    -0.9701100    -0.8839970
  H        3.4436120     0.2958290    -0.0000390
  C        1.2759530     0.5247200    -0.0000120
  H        1.2739669     1.1708120    -0.8620253
  H        1.2739250     1.1828280     0.8779900
  C        0.0000000    -0.3137570    -0.0000050
  H       -0.0000060    -0.9732170    -0.8787350
  H        0.0000060    -0.9732200     0.8787230
  C       -1.2759530     0.5247200     0.0000030
  H       -1.2739340     1.1828180    -0.8780070
  H       -1.2739210     1.1828170     0.8780130
  C       -2.5434150    -0.3258570     0.0000110
  H       -2.5799100    -0.9700590     0.8840460
  H       -3.4436120     0.2958290    -0.0000090
  H       -2.5798950    -0.9700920    -0.8840020
units angstrom
no_reorient  #important for SAPT in psi4, default
symmetry c1  #important for SAPT in psi4, default
}

set PROPERTIES_ORIGIN ["COM"]
properties('MP2/aug-cc-pvtz', properties = ['dipole'])
--------------------------------------------------------------------------

    Molecular point group: c1
  Charge       = 0
  Multiplicity = 1
  Basis Set: AUG-CC-PVTZ
    Blend: AUG-CC-PVTZ
  Basis Set: (AUG-CC-PVTZ AUX)
    Blend: AUG-CC-PVTZ-JKFIT

    Orbital Energies [Eh]
    ---------------------

    Doubly Occupied:

       1A    -11.214767     2A    -11.212537     3A    -11.211920
       4A    -11.209353     5A    -11.209130     6A     -1.079163
       7A     -1.013891     8A     -0.917450     9A     -0.819264
      10A     -0.784083    11A     -0.645881    12A     -0.596870
      13A     -0.592079    14A     -0.552619    15A     -0.546088
      16A     -0.524854    17A     -0.493947    18A     -0.476046
      19A     -0.461039    20A     -0.458733    21A     -0.446512

  @DF-RHF Final Energy:  -196.40389597151815

   => Energetics <=

    Nuclear Repulsion Energy =            185.0936011984487379
    One-Electron Energy =                -630.0625463900240675
    Two-Electron Energy =                 248.5650492200572046
    Total Energy =                       -196.4038959715181534
  Basis Set: (AUG-CC-PVTZ AUX)
    Blend: AUG-CC-PVTZ-RI
    Molecular point group: c1

    Geometry (in Angstrom), charge = 0, multiplicity = 1:

       Center              X                  Y                   Z               Mass
    ------------   -----------------  -----------------  -----------------  -----------------
         C            2.543414470183    -0.332623006756    -0.000221624586    12.000000000000
         H            2.579918470183    -0.976805006756     0.883827375414     1.007825032230
         H            2.579886470183    -0.976876006756    -0.884220624586     1.007825032230
         H            3.443611470183     0.289062993244    -0.000262624586     1.007825032230
         C            1.275952470183     0.517953993244    -0.000235624586    12.000000000000
         H            1.273966370183     1.164045993244    -0.862248924586     1.007825032230
         H            1.273924470183     1.176061993244     0.877766375414     1.007825032230
         C           -0.000000529817    -0.320523006756    -0.000228624586    12.000000000000
         H           -0.000006529817    -0.979983006756    -0.878958624586     1.007825032230
         H            0.000005470183    -0.979986006756     0.878499375414     1.007825032230
         C           -1.275953529817     0.517953993244    -0.000220624586    12.000000000000
         H           -1.273934529817     1.176051993244    -0.878230624586     1.007825032230
         H           -1.273921529817     1.176050993244     0.877789375414     1.007825032230
         C           -2.543415529817    -0.332623006756    -0.000212624586    12.000000000000
         H           -2.579910529817    -0.976825006756     0.883822375414     1.007825032230
         H           -3.443612529817     0.289062993244    -0.000232624586     1.007825032230
         H           -2.579895529817    -0.976858006756    -0.884225624586     1.007825032230

  Basis Set: AUG-CC-PVTZ
    Blend: AUG-CC-PVTZ
  Basis Set: (AUG-CC-PVTZ AUX)
    Blend: AUG-CC-PVTZ-JKFIT
	 Reference Energy          =    -196.4038959715181534 [Eh]
	 Singles Energy            =      -0.0000000000000000 [Eh]
	 Same-Spin Energy          =      -0.2077169398507688 [Eh]
	 Opposite-Spin Energy      =      -0.7932080531079551 [Eh]
	 Correlation Energy        =      -1.0009249929587238 [Eh]
	 Total Energy              =    -197.4048209644768690 [Eh]

	 ================> DF-SCS-MP2 Energies <==================
	-----------------------------------------------------------
	 SCS Same-Spin Scale       =       0.3333333333333333 [-]
	 SCS Opposite-Spin Scale   =       1.2000000000000000 [-]
	 SCS Same-Spin Energy      =      -0.0692389799502562 [Eh]
	 SCS Opposite-Spin Energy  =      -0.9518496637295460 [Eh]
	 SCS Correlation Energy    =      -1.0210886436798023 [Eh]
	 SCS Total Energy          =    -197.4249846151979568 [Eh]
	-----------------------------------------------------------

  Dipole Moment: [D]
     X:    -0.0001      Y:     0.0990      Z:    -0.0103     Total:     0.0996

*** Psi4 exiting successfully. Buy a developer a beer!
