                               Psi4 1.4a3.dev225

  ==> Input File <==

--------------------------------------------------------------------------
#psi4
#
memory 32 gb

molecule  {
0 1
  C        2.5434150    -0.3258570     0.0000020
  H        2.5799190    -0.9700390     0.8840510
  H        2.5798870    -0.9701100    -0.8839970
  H        3.4436120     0.2958290    -0.0000390
  C        1.2759530     0.5247200    -0.0000120
  H        1.2739300     1.1828070    -0.8780290
  H        1.2739250     1.1828280     0.8779900
  C        0.0000000    -0.3137570    -0.0000050
  H       -0.0000061    -0.9852218    -0.8947314
  H        0.0000060    -0.9732200     0.8787230
  C       -1.2759530     0.5247200     0.0000030
  H       -1.2739340     1.1828180    -0.8780070
  H       -1.2739210     1.1828170     0.8780130
  C       -2.5434150    -0.3258570     0.0000110
  H       -2.5799100    -0.9700590     0.8840460
  H       -3.4436120     0.2958290    -0.0000090
  H       -2.5798950    -0.9700920    -0.8840020
units angstrom
no_reorient  #important for SAPT in psi4, default
symmetry c1  #important for SAPT in psi4, default
}

set PROPERTIES_ORIGIN ["COM"]
properties('MP2/aug-cc-pvtz', properties = ['dipole'])
--------------------------------------------------------------------------

    Molecular point group: c1
  Charge       = 0
  Multiplicity = 1
  Basis Set: AUG-CC-PVTZ
    Blend: AUG-CC-PVTZ
  Basis Set: (AUG-CC-PVTZ AUX)
    Blend: AUG-CC-PVTZ-JKFIT

    Orbital Energies [Eh]
    ---------------------

    Doubly Occupied:

       1A    -11.215481     2A    -11.215000     3A    -11.214603
       4A    -11.209403     5A    -11.209402     6A     -1.078428
       7A     -1.013650     8A     -0.917027     9A     -0.818512
      10A     -0.781704    11A     -0.644473    12A     -0.596794
      13A     -0.591584    14A     -0.552556    15A     -0.546021
      16A     -0.523997    17A     -0.493664    18A     -0.475287
      19A     -0.460699    20A     -0.457127    21A     -0.446962

  @DF-RHF Final Energy:  -196.40337271731318

   => Energetics <=

    Nuclear Repulsion Energy =            184.9200170097724936
    One-Electron Energy =                -629.7220297181750084
    Two-Electron Energy =                 248.3986399910893397
    Total Energy =                       -196.4033727173131751
  Basis Set: (AUG-CC-PVTZ AUX)
    Blend: AUG-CC-PVTZ-RI
    Molecular point group: c1

    Geometry (in Angstrom), charge = 0, multiplicity = 1:

       Center              X                  Y                   Z               Mass
    ------------   -----------------  -----------------  -----------------  -----------------
         C            2.543414987419    -0.332622869758     0.000225715642    12.000000000000
         H            2.579918987419    -0.976804869758     0.884274715642     1.007825032230
         H            2.579886987419    -0.976875869758    -0.883773284358     1.007825032230
         H            3.443611987419     0.289063130242     0.000184715642     1.007825032230
         C            1.275952987419     0.517954130242     0.000211715642    12.000000000000
         H            1.273929987419     1.176041130242    -0.877805284358     1.007825032230
         H            1.273924987419     1.176062130242     0.878213715642     1.007825032230
         C           -0.000000012581    -0.320522869758     0.000218715642    12.000000000000
         H           -0.000006112581    -0.991987669758    -0.894507684358     1.007825032230
         H            0.000005987419    -0.979985869758     0.878946715642     1.007825032230
         C           -1.275953012581     0.517954130242     0.000226715642    12.000000000000
         H           -1.273934012581     1.176052130242    -0.877783284358     1.007825032230
         H           -1.273921012581     1.176051130242     0.878236715642     1.007825032230
         C           -2.543415012581    -0.332622869758     0.000234715642    12.000000000000
         H           -2.579910012581    -0.976824869758     0.884269715642     1.007825032230
         H           -3.443612012581     0.289063130242     0.000214715642     1.007825032230
         H           -2.579895012581    -0.976857869758    -0.883778284358     1.007825032230

  Basis Set: AUG-CC-PVTZ
    Blend: AUG-CC-PVTZ
  Basis Set: (AUG-CC-PVTZ AUX)
    Blend: AUG-CC-PVTZ-JKFIT
	 Reference Energy          =    -196.4033727173131751 [Eh]
	 Singles Energy            =      -0.0000000000000000 [Eh]
	 Same-Spin Energy          =      -0.2077175138444265 [Eh]
	 Opposite-Spin Energy      =      -0.7934489453803011 [Eh]
	 Correlation Energy        =      -1.0011664592247276 [Eh]
	 Total Energy              =    -197.4045391765378952 [Eh]

	 ================> DF-SCS-MP2 Energies <==================
	-----------------------------------------------------------
	 SCS Same-Spin Scale       =       0.3333333333333333 [-]
	 SCS Opposite-Spin Scale   =       1.2000000000000000 [-]
	 SCS Same-Spin Energy      =      -0.0692391712814755 [Eh]
	 SCS Opposite-Spin Energy  =      -0.9521387344563612 [Eh]
	 SCS Correlation Energy    =      -1.0213779057378367 [Eh]
	 SCS Total Energy          =    -197.4247506230510112 [Eh]
	-----------------------------------------------------------

  Dipole Moment: [D]
     X:     0.0000      Y:     0.0994      Z:     0.0110     Total:     0.1000

*** Psi4 exiting successfully. Buy a developer a beer!
