                               Psi4 1.3.2 release

  ==> Input File <==

--------------------------------------------------------------------------
#psi4
#
memory 32 gb

molecule  {
0 1
  C        2.5991159    -0.2357116     0.0004392
  H        2.5791480    -0.9696020     0.8850690
  H        2.5787950    -0.9712350    -0.8831070
  H        3.4433220     0.2951360    -0.0003880
  C        1.2758620     0.5250290    -0.0000810
  H        1.2742200     1.1832430    -0.8780540
  H        1.2734520     1.1829250     0.8781380
  C        0.0000050    -0.3135590    -0.0008010
  H       -0.0000170    -0.9720800    -0.8802820
  H        0.0000540    -0.9738100     0.8773920
  C       -1.2758600     0.5250110     0.0000320
  H       -1.2742070     1.1833710    -0.8778340
  H       -1.2734650     1.1827700     0.8783550
  C       -2.5428310    -0.3261580     0.0003500
  H       -2.5791270    -0.9698370     0.8848460
  H       -3.4433120     0.2951650    -0.0002120
  H       -2.5788740    -0.9709940    -0.8833260
units angstrom
no_reorient  #important for SAPT in psi4, default
symmetry c1  #important for SAPT in psi4, default
}

set PROPERTIES_ORIGIN ["COM"]
properties('MP2/aug-cc-pvtz', properties = ['dipole'])
--------------------------------------------------------------------------

    Molecular point group: c1
  Charge       = 0
  Multiplicity = 1
  Basis Set: AUG-CC-PVTZ
    Blend: AUG-CC-PVTZ
  Basis Set: (AUG-CC-PVTZ AUX)
    Blend: AUG-CC-PVTZ-JKFIT

    Orbital Energies [Eh]
    ---------------------

    Doubly Occupied:

       1A    -11.216186     2A    -11.215676     3A    -11.214671
       4A    -11.211631     5A    -11.210224     6A     -1.078966
       7A     -1.014443     8A     -0.920908     9A     -0.820040
      10A     -0.782757    11A     -0.644082    12A     -0.608782
      13A     -0.585866    14A     -0.564960    15A     -0.550606
      16A     -0.515899    17A     -0.488476    18A     -0.467503
      19A     -0.460719    20A     -0.454901    21A     -0.452471

  @DF-RHF Final Energy:  -196.39045918234595

   => Energetics <=

    Nuclear Repulsion Energy =            184.7205268196640588
    One-Electron Energy =                -629.2624376798931962
    Two-Electron Energy =                 248.1514516778831592
    Total Energy =                       -196.3904591823459498
  Basis Set: (AUG-CC-PVTZ AUX)
    Blend: AUG-CC-PVTZ-RI
    Molecular point group: c1

    Geometry (in Angstrom), charge = 0, multiplicity = 1:

       Center              X                  Y                   Z               Mass
    ------------   -----------------  -----------------  -----------------  -----------------
         C            2.589746290223    -0.257716756568     0.000440974470    12.000000000000
         H            2.569778390223    -0.991607156568     0.885070774470     1.007825032230
         H            2.569425390223    -0.993240156568    -0.883105225530     1.007825032230
         H            3.433952390223     0.273130843432    -0.000386225530     1.007825032230
         C            1.266492390223     0.503023843432    -0.000079225530    12.000000000000
         H            1.264850390223     1.161237843432    -0.878052225530     1.007825032230
         H            1.264082390223     1.160919843432     0.878139774470     1.007825032230
         C           -0.009364609777    -0.335564156568    -0.000799225530    12.000000000000
         H           -0.009386609777    -0.994085156568    -0.880280225530     1.007825032230
         H           -0.009315609777    -0.995815156568     0.877393774470     1.007825032230
         C           -1.285229609777     0.503005843432     0.000033774470    12.000000000000
         H           -1.283576609777     1.161365843432    -0.877832225530     1.007825032230
         H           -1.282834609777     1.160764843432     0.878356774470     1.007825032230
         C           -2.552200609777    -0.348163156568     0.000351774470    12.000000000000
         H           -2.588496609777    -0.991842156568     0.884847774470     1.007825032230
         H           -3.452681609777     0.273159843432    -0.000210225530     1.007825032230
         H           -2.588243609777    -0.992999156568    -0.883324225530     1.007825032230

  Basis Set: AUG-CC-PVTZ
    Blend: AUG-CC-PVTZ
  Basis Set: (AUG-CC-PVTZ AUX)
    Blend: AUG-CC-PVTZ-JKFIT
	 Reference Energy          =    -196.3904591823459498 [Eh]
	 Singles Energy            =      -0.0000000000000000 [Eh]
	 Same-Spin Energy          =      -0.2078601412910274 [Eh]
	 Opposite-Spin Energy      =      -0.7938568989985626 [Eh]
	 Correlation Energy        =      -1.0017170402895901 [Eh]
	 Total Energy              =    -197.3921762226355270 [Eh]

	 ================> DF-SCS-MP2 Energies <==================
	-----------------------------------------------------------
	 SCS Same-Spin Scale       =       0.3333333333333333 [-]
	 SCS Opposite-Spin Scale   =       1.2000000000000000 [-]
	 SCS Same-Spin Energy      =      -0.0692867137636758 [Eh]
	 SCS Opposite-Spin Energy  =      -0.9526282787982751 [Eh]
	 SCS Correlation Energy    =      -1.0219149925619508 [Eh]
	 SCS Total Energy          =    -197.4123741749079102 [Eh]
	-----------------------------------------------------------

  Dipole Moment: [D]
     X:    -0.0344      Y:     0.1273      Z:    -0.0000     Total:     0.1319

*** Psi4 exiting successfully. Buy a developer a beer!
