                               Psi4 1.3.2 release

  ==> Input File <==

--------------------------------------------------------------------------
#psi4
#
memory 32 gb

molecule  {
0 1
  C        2.5428260    -0.3261640     0.0004000
  H        2.5791480    -0.9696020     0.8850690
  H        2.5787950    -0.9712350    -0.8831070
  H        3.4433220     0.2951360    -0.0003880
  C        1.2758620     0.5250290    -0.0000810
  H        1.2742200     1.1832430    -0.8780540
  H        1.2734520     1.1829250     0.8781380
  C        0.0000050    -0.3135590    -0.0008010
  H       -0.0000178    -0.9566306    -0.8916408
  H        0.0000540    -0.9738100     0.8773920
  C       -1.2758600     0.5250110     0.0000320
  H       -1.2742070     1.1833710    -0.8778340
  H       -1.2734650     1.1827700     0.8783550
  C       -2.5428310    -0.3261580     0.0003500
  H       -2.5791270    -0.9698370     0.8848460
  H       -3.4433120     0.2951650    -0.0002120
  H       -2.5788740    -0.9709940    -0.8833260
units angstrom
no_reorient  #important for SAPT in psi4, default
symmetry c1  #important for SAPT in psi4, default
}

set PROPERTIES_ORIGIN ["COM"]
properties('MP2/aug-cc-pvtz', properties = ['dipole'])
--------------------------------------------------------------------------

    Molecular point group: c1
  Charge       = 0
  Multiplicity = 1
  Basis Set: AUG-CC-PVTZ
    Blend: AUG-CC-PVTZ
  Basis Set: (AUG-CC-PVTZ AUX)
    Blend: AUG-CC-PVTZ-JKFIT

    Orbital Energies [Eh]
    ---------------------

    Doubly Occupied:

       1A    -11.214728     2A    -11.214650     3A    -11.212506
       4A    -11.209376     5A    -11.209374     6A     -1.078960
       7A     -1.013553     8A     -0.917572     9A     -0.818321
      10A     -0.782587    11A     -0.646007    12A     -0.596692
      13A     -0.591506    14A     -0.552253    15A     -0.546095
      16A     -0.525564    17A     -0.493577    18A     -0.475174
      19A     -0.460121    20A     -0.458758    21A     -0.446624

  @DF-RHF Final Energy:  -196.40381760817141

   => Energetics <=

    Nuclear Repulsion Energy =            185.0258566638877369
    One-Electron Energy =                -629.9313523129829946
    Two-Electron Energy =                 248.5016780409238493
    Total Energy =                       -196.4038176081714084
  Basis Set: (AUG-CC-PVTZ AUX)
    Blend: AUG-CC-PVTZ-RI
    Molecular point group: c1

    Geometry (in Angstrom), charge = 0, multiplicity = 1:

       Center              X                  Y                   Z               Mass
    ------------   -----------------  -----------------  -----------------  -----------------
         C            2.542825832057    -0.333329364267     0.000567087803    12.000000000000
         H            2.579147832057    -0.976767364267     0.885236087803     1.007825032230
         H            2.578794832057    -0.978400364267    -0.882939912197     1.007825032230
         H            3.443321832057     0.287970635733    -0.000220912197     1.007825032230
         C            1.275861832057     0.517863635733     0.000086087803    12.000000000000
         H            1.274219832057     1.176077635733    -0.877886912197     1.007825032230
         H            1.273451832057     1.175759635733     0.878305087803     1.007825032230
         C            0.000004832057    -0.320724364267    -0.000633912197    12.000000000000
         H           -0.000017967943    -0.963795964267    -0.891473712197     1.007825032230
         H            0.000053832057    -0.980975364267     0.877559087803     1.007825032230
         C           -1.275860167943     0.517845635733     0.000199087803    12.000000000000
         H           -1.274207167943     1.176205635733    -0.877666912197     1.007825032230
         H           -1.273465167943     1.175604635733     0.878522087803     1.007825032230
         C           -2.542831167943    -0.333323364267     0.000517087803    12.000000000000
         H           -2.579127167943    -0.977002364267     0.885013087803     1.007825032230
         H           -3.443312167943     0.287999635733    -0.000044912197     1.007825032230
         H           -2.578874167943    -0.978159364267    -0.883158912197     1.007825032230

  Basis Set: AUG-CC-PVTZ
    Blend: AUG-CC-PVTZ
  Basis Set: (AUG-CC-PVTZ AUX)
    Blend: AUG-CC-PVTZ-JKFIT
	 Reference Energy          =    -196.4038176081714084 [Eh]
	 Singles Energy            =      -0.0000000000000000 [Eh]
	 Same-Spin Energy          =      -0.2077227522461960 [Eh]
	 Opposite-Spin Energy      =      -0.7933495037677200 [Eh]
	 Correlation Energy        =      -1.0010722560139160 [Eh]
	 Total Energy              =    -197.4048898641853214 [Eh]

	 ================> DF-SCS-MP2 Energies <==================
	-----------------------------------------------------------
	 SCS Same-Spin Scale       =       0.3333333333333333 [-]
	 SCS Opposite-Spin Scale   =       1.2000000000000000 [-]
	 SCS Same-Spin Energy      =      -0.0692409174153987 [Eh]
	 SCS Opposite-Spin Energy  =      -0.9520194045212639 [Eh]
	 SCS Correlation Energy    =      -1.0212603219366625 [Eh]
	 SCS Total Energy          =    -197.4250779301080740 [Eh]
	-----------------------------------------------------------

  Dipole Moment: [D]
     X:    -0.0000      Y:     0.0904      Z:    -0.0019     Total:     0.0904

*** Psi4 exiting successfully. Buy a developer a beer!
