                               Psi4 1.3.2 release

  ==> Input File <==

--------------------------------------------------------------------------
#psi4
#
memory 32 gb

molecule  {
0 1
  C        2.5277777    -0.3481459     0.0003898
  H        2.5791480    -0.9696020     0.8850690
  H        2.5787950    -0.9712350    -0.8831070
  H        3.4433220     0.2951360    -0.0003880
  C        1.2758620     0.5250290    -0.0000810
  H        1.2742200     1.1832430    -0.8780540
  H        1.2734520     1.1829250     0.8781380
  C        0.0000050    -0.3135590    -0.0008010
  H       -0.0000170    -0.9720800    -0.8802820
  H        0.0000540    -0.9738100     0.8773920
  C       -1.2758600     0.5250110     0.0000320
  H       -1.2742070     1.1833710    -0.8778340
  H       -1.2734650     1.1827700     0.8783550
  C       -2.5428310    -0.3261580     0.0003500
  H       -2.5791270    -0.9698370     0.8848460
  H       -3.4433120     0.2951650    -0.0002120
  H       -2.5788740    -0.9709940    -0.8833260
units angstrom
no_reorient  #important for SAPT in psi4, default
symmetry c1  #important for SAPT in psi4, default
}

set PROPERTIES_ORIGIN ["COM"]
properties('MP2/aug-cc-pvtz', properties = ['dipole'])
--------------------------------------------------------------------------

    Molecular point group: c1
  Charge       = 0
  Multiplicity = 1
  Basis Set: AUG-CC-PVTZ
    Blend: AUG-CC-PVTZ
  Basis Set: (AUG-CC-PVTZ AUX)
    Blend: AUG-CC-PVTZ-JKFIT

    Orbital Energies [Eh]
    ---------------------

    Doubly Occupied:

       1A    -11.214873     2A    -11.214511     3A    -11.212038
       4A    -11.209435     5A    -11.209232     6A     -1.079013
       7A     -1.013554     8A     -0.917036     9A     -0.818433
      10A     -0.783374    11A     -0.645911    12A     -0.594726
      13A     -0.593446    14A     -0.553216    15A     -0.541250
      16A     -0.527607    17A     -0.494692    18A     -0.477172
      19A     -0.461495    20A     -0.458808    21A     -0.443029

  @DF-RHF Final Energy:  -196.40307864761334

   => Energetics <=

    Nuclear Repulsion Energy =            185.0993611781864843
    One-Electron Energy =                -630.0791772141822094
    Two-Electron Energy =                 248.5767373883823836
    Total Energy =                       -196.4030786476133414
  Basis Set: (AUG-CC-PVTZ AUX)
    Blend: AUG-CC-PVTZ-RI
    Molecular point group: c1

    Geometry (in Angstrom), charge = 0, multiplicity = 1:

       Center              X                  Y                   Z               Mass
    ------------   -----------------  -----------------  -----------------  -----------------
         C            2.530282304205    -0.351436413682     0.000399797080    12.000000000000
         H            2.581652604205    -0.972892513682     0.885078997080     1.007825032230
         H            2.581299604205    -0.974525513682    -0.883097002920     1.007825032230
         H            3.445826604205     0.291845486318    -0.000378002920     1.007825032230
         C            1.278366604205     0.521738486318    -0.000071002920    12.000000000000
         H            1.276724604205     1.179952486318    -0.878044002920     1.007825032230
         H            1.275956604205     1.179634486318     0.878147997080     1.007825032230
         C            0.002509604205    -0.316849513682    -0.000791002920    12.000000000000
         H            0.002487604205    -0.975370513682    -0.880272002920     1.007825032230
         H            0.002558604205    -0.977100513682     0.877401997080     1.007825032230
         C           -1.273355395795     0.521720486318     0.000041997080    12.000000000000
         H           -1.271702395795     1.180080486318    -0.877824002920     1.007825032230
         H           -1.270960395795     1.179479486318     0.878364997080     1.007825032230
         C           -2.540326395795    -0.329448513682     0.000359997080    12.000000000000
         H           -2.576622395795    -0.973127513682     0.884855997080     1.007825032230
         H           -3.440807395795     0.291874486318    -0.000202002920     1.007825032230
         H           -2.576369395795    -0.974284513682    -0.883316002920     1.007825032230

  Basis Set: AUG-CC-PVTZ
    Blend: AUG-CC-PVTZ
  Basis Set: (AUG-CC-PVTZ AUX)
    Blend: AUG-CC-PVTZ-JKFIT
	 Reference Energy          =    -196.4030786476133414 [Eh]
	 Singles Energy            =      -0.0000000000000000 [Eh]
	 Same-Spin Energy          =      -0.2077380483529686 [Eh]
	 Opposite-Spin Energy      =      -0.7933807438209215 [Eh]
	 Correlation Energy        =      -1.0011187921738900 [Eh]
	 Total Energy              =    -197.4041974397872252 [Eh]

	 ================> DF-SCS-MP2 Energies <==================
	-----------------------------------------------------------
	 SCS Same-Spin Scale       =       0.3333333333333333 [-]
	 SCS Opposite-Spin Scale   =       1.2000000000000000 [-]
	 SCS Same-Spin Energy      =      -0.0692460161176562 [Eh]
	 SCS Opposite-Spin Energy  =      -0.9520568925851057 [Eh]
	 SCS Correlation Energy    =      -1.0213029087027619 [Eh]
	 SCS Total Energy          =    -197.4243815563160922 [Eh]
	-----------------------------------------------------------

  Dipole Moment: [D]
     X:    -0.0011      Y:     0.0786      Z:    -0.0001     Total:     0.0786

*** Psi4 exiting successfully. Buy a developer a beer!
