                               Psi4 1.3.2 release

  ==> Input File <==

--------------------------------------------------------------------------
#psi4
#
memory 32 gb

molecule  {
0 1
  C        2.4803635    -0.4124695     0.0003585
  H        2.5791480    -0.9696020     0.8850690
  H        2.5787950    -0.9712350    -0.8831070
  H        3.4433220     0.2951360    -0.0003880
  C        1.2758620     0.5250290    -0.0000810
  H        1.2742200     1.1832430    -0.8780540
  H        1.2734520     1.1829250     0.8781380
  C        0.0000050    -0.3135590    -0.0008010
  H       -0.0000170    -0.9720800    -0.8802820
  H        0.0000540    -0.9738100     0.8773920
  C       -1.2758600     0.5250110     0.0000320
  H       -1.2742070     1.1833710    -0.8778340
  H       -1.2734650     1.1827700     0.8783550
  C       -2.5428310    -0.3261580     0.0003500
  H       -2.5791270    -0.9698370     0.8848460
  H       -3.4433120     0.2951650    -0.0002120
  H       -2.5788740    -0.9709940    -0.8833260
units angstrom
no_reorient  #important for SAPT in psi4, default
symmetry c1  #important for SAPT in psi4, default
}

set PROPERTIES_ORIGIN ["COM"]
properties('MP2/aug-cc-pvtz', properties = ['dipole'])
--------------------------------------------------------------------------

    Molecular point group: c1
  Charge       = 0
  Multiplicity = 1
  Basis Set: AUG-CC-PVTZ
    Blend: AUG-CC-PVTZ
  Basis Set: (AUG-CC-PVTZ AUX)
    Blend: AUG-CC-PVTZ-JKFIT

    Orbital Energies [Eh]
    ---------------------

    Doubly Occupied:

       1A    -11.215820     2A    -11.213898     3A    -11.211158
       4A    -11.211106     5A    -11.208935     6A     -1.079922
       7A     -1.014002     8A     -0.916208     9A     -0.819620
      10A     -0.784353    11A     -0.648812    12A     -0.600296
      13A     -0.590863    14A     -0.554967    15A     -0.535533
      16A     -0.528648    17A     -0.496049    18A     -0.482033
      19A     -0.463269    20A     -0.459758    21A     -0.430199

  @DF-RHF Final Energy:  -196.39268250261750

   => Energetics <=

    Nuclear Repulsion Energy =            185.3584220478736029
    One-Electron Energy =                -630.5713094074063747
    Two-Electron Energy =                 248.8202048569152680
    Total Energy =                       -196.3926825026175038
  Basis Set: (AUG-CC-PVTZ AUX)
    Blend: AUG-CC-PVTZ-RI
    Molecular point group: c1

    Geometry (in Angstrom), charge = 0, multiplicity = 1:

       Center              X                  Y                   Z               Mass
    ------------   -----------------  -----------------  -----------------  -----------------
         C            2.490760178250    -0.405053376978     0.000373706952    12.000000000000
         H            2.589544678250    -0.962185876978     0.885084206952     1.007825032230
         H            2.589191678250    -0.963818876978    -0.883091793048     1.007825032230
         H            3.453718678250     0.302552123022    -0.000372793048     1.007825032230
         C            1.286258678250     0.532445123022    -0.000065793048    12.000000000000
         H            1.284616678250     1.190659123022    -0.878038793048     1.007825032230
         H            1.283848678250     1.190341123022     0.878153206952     1.007825032230
         C            0.010401678250    -0.306142876978    -0.000785793048    12.000000000000
         H            0.010379678250    -0.964663876978    -0.880266793048     1.007825032230
         H            0.010450678250    -0.966393876978     0.877407206952     1.007825032230
         C           -1.265463321750     0.532427123022     0.000047206952    12.000000000000
         H           -1.263810321750     1.190787123022    -0.877818793048     1.007825032230
         H           -1.263068321750     1.190186123022     0.878370206952     1.007825032230
         C           -2.532434321750    -0.318741876978     0.000365206952    12.000000000000
         H           -2.568730321750    -0.962420876978     0.884861206952     1.007825032230
         H           -3.432915321750     0.302581123022    -0.000196793048     1.007825032230
         H           -2.568477321750    -0.963577876978    -0.883310793048     1.007825032230

  Basis Set: AUG-CC-PVTZ
    Blend: AUG-CC-PVTZ
  Basis Set: (AUG-CC-PVTZ AUX)
    Blend: AUG-CC-PVTZ-JKFIT
	 Reference Energy          =    -196.3926825026175038 [Eh]
	 Singles Energy            =      -0.0000000000000000 [Eh]
	 Same-Spin Energy          =      -0.2079305825685925 [Eh]
	 Opposite-Spin Energy      =      -0.7939555226977069 [Eh]
	 Correlation Energy        =      -1.0018861052662993 [Eh]
	 Total Energy              =    -197.3945686078837980 [Eh]

	 ================> DF-SCS-MP2 Energies <==================
	-----------------------------------------------------------
	 SCS Same-Spin Scale       =       0.3333333333333333 [-]
	 SCS Opposite-Spin Scale   =       1.2000000000000000 [-]
	 SCS Same-Spin Energy      =      -0.0693101941895308 [Eh]
	 SCS Opposite-Spin Energy  =      -0.9527466272372482 [Eh]
	 SCS Correlation Energy    =      -1.0220568214267791 [Eh]
	 SCS Total Energy          =    -197.4147393240442909 [Eh]
	-----------------------------------------------------------

  Dipole Moment: [D]
     X:    -0.0254      Y:     0.0538      Z:    -0.0000     Total:     0.0595

*** Psi4 exiting successfully. Buy a developer a beer!
