                               Psi4 1.4a3.dev225

  ==> Input File <==

--------------------------------------------------------------------------
#psi4
#
memory 32 gb

molecule  {
0 1
  C        2.5434150    -0.3258570     0.0000020
  H        2.5782513    -0.9406098     0.8436636
  H        2.5798870    -0.9701100    -0.8839970
  H        3.4436120     0.2958290    -0.0000390
  C        1.2759530     0.5247200    -0.0000120
  H        1.2739300     1.1828070    -0.8780290
  H        1.2739250     1.1828280     0.8779900
  C        0.0000000    -0.3137570    -0.0000050
  H       -0.0000060    -0.9732170    -0.8787350
  H        0.0000060    -0.9732200     0.8787230
  C       -1.2759530     0.5247200     0.0000030
  H       -1.2739340     1.1828180    -0.8780070
  H       -1.2739210     1.1828170     0.8780130
  C       -2.5434150    -0.3258570     0.0000110
  H       -2.5799100    -0.9700590     0.8840460
  H       -3.4436120     0.2958290    -0.0000090
  H       -2.5798950    -0.9700920    -0.8840020
units angstrom
no_reorient  #important for SAPT in psi4, default
symmetry c1  #important for SAPT in psi4, default
}

set PROPERTIES_ORIGIN ["COM"]
properties('MP2/aug-cc-pvtz', properties = ['dipole'])
--------------------------------------------------------------------------

    Molecular point group: c1
  Charge       = 0
  Multiplicity = 1
  Basis Set: AUG-CC-PVTZ
    Blend: AUG-CC-PVTZ
  Basis Set: (AUG-CC-PVTZ AUX)
    Blend: AUG-CC-PVTZ-JKFIT

    Orbital Energies [Eh]
    ---------------------

    Doubly Occupied:

       1A    -11.214705     2A    -11.214188     3A    -11.212369
       4A    -11.209317     5A    -11.202993     6A     -1.079068
       7A     -1.014755     8A     -0.919662     9A     -0.820224
      10A     -0.783554    11A     -0.645795    12A     -0.597165
      13A     -0.593265    14A     -0.553599    15A     -0.546335
      16A     -0.527538    17A     -0.494295    18A     -0.476442
      19A     -0.460761    20A     -0.458376    21A     -0.446380

  @DF-RHF Final Energy:  -196.40281680542611

   => Energetics <=

    Nuclear Repulsion Energy =            185.2060482669739656
    One-Electron Energy =                -630.2761604402114699
    Two-Electron Energy =                 248.6672953678113629
    Total Energy =                       -196.4028168054261130
  Basis Set: (AUG-CC-PVTZ AUX)
    Blend: AUG-CC-PVTZ-RI
    Molecular point group: c1

    Geometry (in Angstrom), charge = 0, multiplicity = 1:

       Center              X                  Y                   Z               Mass
    ------------   -----------------  -----------------  -----------------  -----------------
         C            2.543438299363    -0.333202089667     0.000566685686    12.000000000000
         H            2.578274599363    -0.947954889667     0.844228285686     1.007825032230
         H            2.579910299363    -0.977455089667    -0.883432314314     1.007825032230
         H            3.443635299363     0.288483910333     0.000525685686     1.007825032230
         C            1.275976299363     0.517374910333     0.000552685686    12.000000000000
         H            1.273953299363     1.175461910333    -0.877464314314     1.007825032230
         H            1.273948299363     1.175482910333     0.878554685686     1.007825032230
         C            0.000023299363    -0.321102089667     0.000559685686    12.000000000000
         H            0.000017299363    -0.980562089667    -0.878170314314     1.007825032230
         H            0.000029299363    -0.980565089667     0.879287685686     1.007825032230
         C           -1.275929700637     0.517374910333     0.000567685686    12.000000000000
         H           -1.273910700637     1.175472910333    -0.877442314314     1.007825032230
         H           -1.273897700637     1.175471910333     0.878577685686     1.007825032230
         C           -2.543391700637    -0.333202089667     0.000575685686    12.000000000000
         H           -2.579886700637    -0.977404089667     0.884610685686     1.007825032230
         H           -3.443588700637     0.288483910333     0.000555685686     1.007825032230
         H           -2.579871700637    -0.977437089667    -0.883437314314     1.007825032230

  Basis Set: AUG-CC-PVTZ
    Blend: AUG-CC-PVTZ
  Basis Set: (AUG-CC-PVTZ AUX)
    Blend: AUG-CC-PVTZ-JKFIT
	 Reference Energy          =    -196.4028168054261130 [Eh]
	 Singles Energy            =      -0.0000000000000000 [Eh]
	 Same-Spin Energy          =      -0.2077474185929283 [Eh]
	 Opposite-Spin Energy      =      -0.7930820211628830 [Eh]
	 Correlation Energy        =      -1.0008294397558113 [Eh]
	 Total Energy              =    -197.4036462451819318 [Eh]

	 ================> DF-SCS-MP2 Energies <==================
	-----------------------------------------------------------
	 SCS Same-Spin Scale       =       0.3333333333333333 [-]
	 SCS Opposite-Spin Scale   =       1.2000000000000000 [-]
	 SCS Same-Spin Energy      =      -0.0692491395309761 [Eh]
	 SCS Opposite-Spin Energy  =      -0.9516984253954595 [Eh]
	 SCS Correlation Energy    =      -1.0209475649264355 [Eh]
	 SCS Total Energy          =    -197.4237643703525578 [Eh]
	-----------------------------------------------------------

  Dipole Moment: [D]
     X:     0.0094      Y:     0.0660      Z:     0.0235     Total:     0.0707

*** Psi4 exiting successfully. Buy a developer a beer!
