                               Psi4 1.3.2 release

  ==> Input File <==

--------------------------------------------------------------------------
#psi4
#
memory 32 gb

molecule  {
0 1
  C        2.5428260    -0.3261640     0.0004000
  H        2.5791480    -0.9696020     0.8850690
  H        2.5787950    -0.9712350    -0.8831070
  H        3.4433220     0.2951360    -0.0003880
  C        1.2758620     0.5250290    -0.0000810
  H        1.2743254     1.1522014    -0.9004906
  H        1.2734520     1.1829250     0.8781380
  C        0.0000050    -0.3135590    -0.0008010
  H       -0.0000170    -0.9720800    -0.8802820
  H        0.0000540    -0.9738100     0.8773920
  C       -1.2758600     0.5250110     0.0000320
  H       -1.2742070     1.1833710    -0.8778340
  H       -1.2734650     1.1827700     0.8783550
  C       -2.5428310    -0.3261580     0.0003500
  H       -2.5791270    -0.9698370     0.8848460
  H       -3.4433120     0.2951650    -0.0002120
  H       -2.5788740    -0.9709940    -0.8833260
units angstrom
no_reorient  #important for SAPT in psi4, default
symmetry c1  #important for SAPT in psi4, default
}

set PROPERTIES_ORIGIN ["COM"]
properties('MP2/aug-cc-pvtz', properties = ['dipole'])
--------------------------------------------------------------------------

    Molecular point group: c1
  Charge       = 0
  Multiplicity = 1
  Basis Set: AUG-CC-PVTZ
    Blend: AUG-CC-PVTZ
  Basis Set: (AUG-CC-PVTZ AUX)
    Blend: AUG-CC-PVTZ-JKFIT

    Orbital Energies [Eh]
    ---------------------

    Doubly Occupied:

       1A    -11.214884     2A    -11.214758     3A    -11.212269
       4A    -11.209377     5A    -11.209189     6A     -1.079012
       7A     -1.013677     8A     -0.917518     9A     -0.818090
      10A     -0.782368    11A     -0.646403    12A     -0.596107
      13A     -0.592470    14A     -0.552725    15A     -0.546059
      16A     -0.524938    17A     -0.492642    18A     -0.476271
      19A     -0.459945    20A     -0.458596    21A     -0.446581

  @DF-RHF Final Energy:  -196.40370243884666

   => Energetics <=

    Nuclear Repulsion Energy =            185.0369549429458118
    One-Electron Energy =                -629.9535575826831746
    Two-Electron Energy =                 248.5129002008906696
    Total Energy =                       -196.4037024388466648
  Basis Set: (AUG-CC-PVTZ AUX)
    Blend: AUG-CC-PVTZ-RI
    Molecular point group: c1

    Geometry (in Angstrom), charge = 0, multiplicity = 1:

       Center              X                  Y                   Z               Mass
    ------------   -----------------  -----------------  -----------------  -----------------
         C            2.542824347451    -0.332679450844     0.000721948118    12.000000000000
         H            2.579146347451    -0.976117450844     0.885390948118     1.007825032230
         H            2.578793347451    -0.977750450844    -0.882785051882     1.007825032230
         H            3.443320347451     0.288620549156    -0.000066051882     1.007825032230
         C            1.275860347451     0.518513549156     0.000240948118    12.000000000000
         H            1.274323747451     1.145685949156    -0.900168651882     1.007825032230
         H            1.273450347451     1.176409549156     0.878459948118     1.007825032230
         C            0.000003347451    -0.320074450844    -0.000479051882    12.000000000000
         H           -0.000018652549    -0.978595450844    -0.879960051882     1.007825032230
         H            0.000052347451    -0.980325450844     0.877713948118     1.007825032230
         C           -1.275861652549     0.518495549156     0.000353948118    12.000000000000
         H           -1.274208652549     1.176855549156    -0.877512051882     1.007825032230
         H           -1.273466652549     1.176254549156     0.878676948118     1.007825032230
         C           -2.542832652549    -0.332673450844     0.000671948118    12.000000000000
         H           -2.579128652549    -0.976352450844     0.885167948118     1.007825032230
         H           -3.443313652549     0.288649549156     0.000109948118     1.007825032230
         H           -2.578875652549    -0.977509450844    -0.883004051882     1.007825032230

  Basis Set: AUG-CC-PVTZ
    Blend: AUG-CC-PVTZ
  Basis Set: (AUG-CC-PVTZ AUX)
    Blend: AUG-CC-PVTZ-JKFIT
	 Reference Energy          =    -196.4037024388466648 [Eh]
	 Singles Energy            =      -0.0000000000000000 [Eh]
	 Same-Spin Energy          =      -0.2077299333703442 [Eh]
	 Opposite-Spin Energy      =      -0.7933730382594145 [Eh]
	 Correlation Energy        =      -1.0011029716297588 [Eh]
	 Total Energy              =    -197.4048054104764276 [Eh]

	 ================> DF-SCS-MP2 Energies <==================
	-----------------------------------------------------------
	 SCS Same-Spin Scale       =       0.3333333333333333 [-]
	 SCS Opposite-Spin Scale   =       1.2000000000000000 [-]
	 SCS Same-Spin Energy      =      -0.0692433111234481 [Eh]
	 SCS Opposite-Spin Energy  =      -0.9520476459112974 [Eh]
	 SCS Correlation Energy    =      -1.0212909570347455 [Eh]
	 SCS Total Energy          =    -197.4249933958814154 [Eh]
	-----------------------------------------------------------

  Dipole Moment: [D]
     X:     0.0000      Y:     0.0819      Z:    -0.0044     Total:     0.0820

*** Psi4 exiting successfully. Buy a developer a beer!
