                               Psi4 1.3.2 release

  ==> Input File <==

--------------------------------------------------------------------------
#psi4
#
memory 32 gb

molecule  {
0 1
  C        2.5428260    -0.3261640     0.0004000
  H        2.5791480    -0.9696020     0.8850690
  H        2.5787950    -0.9712350    -0.8831070
  H        3.4433220     0.2951360    -0.0003880
  C        1.2758620     0.5250290    -0.0000810
  H        1.2742200     1.1832430    -0.8780540
  H        1.2734520     1.1829250     0.8781380
  C        0.0000050    -0.3135590    -0.0008010
  H       -0.0000170    -0.9720800    -0.8802820
  H        0.0000540    -0.9738100     0.8773920
  C       -1.2758600     0.5250110     0.0000320
  H       -1.2742070     1.1833710    -0.8778340
  H       -1.2734650     1.1827700     0.8783550
  C       -2.5428310    -0.3261580     0.0003500
  H       -2.5791270    -0.9698370     0.8848460
  H       -3.4433120     0.2951650    -0.0002120
  H       -2.5788740    -0.9709940    -0.8833260
units angstrom
no_reorient  #important for SAPT in psi4, default
symmetry c1  #important for SAPT in psi4, default
}

set PROPERTIES_ORIGIN ["COM"]
properties('MP2/aug-cc-pvtz', properties = ['dipole'])
--------------------------------------------------------------------------

    Molecular point group: c1
  Charge       = 0
  Multiplicity = 1
  Basis Set: AUG-CC-PVTZ
    Blend: AUG-CC-PVTZ
  Basis Set: (AUG-CC-PVTZ AUX)
    Blend: AUG-CC-PVTZ-JKFIT

    Orbital Energies [Eh]
    ---------------------

    Doubly Occupied:

       1A    -11.214818     2A    -11.214746     3A    -11.212455
       4A    -11.209382     5A    -11.209381     6A     -1.078860
       7A     -1.013557     8A     -0.917534     9A     -0.818337
      10A     -0.783111    11A     -0.645283    12A     -0.596695
      13A     -0.591499    14A     -0.552752    15A     -0.546164
      16A     -0.524928    17A     -0.493602    18A     -0.475180
      19A     -0.460828    20A     -0.458321    21A     -0.446622

  @DF-RHF Final Energy:  -196.40386282696525

   => Energetics <=

    Nuclear Repulsion Energy =            185.0174021413169498
    One-Electron Energy =                -629.9144184801206166
    Two-Electron Energy =                 248.4931535118384147
    Total Energy =                       -196.4038628269652520
  Basis Set: (AUG-CC-PVTZ AUX)
    Blend: AUG-CC-PVTZ-RI
    Molecular point group: c1

    Geometry (in Angstrom), charge = 0, multiplicity = 1:

       Center              X                  Y                   Z               Mass
    ------------   -----------------  -----------------  -----------------  -----------------
         C            2.542825820874    -0.333113391876     0.000408299294    12.000000000000
         H            2.579147820874    -0.976551391876     0.885077299294     1.007825032230
         H            2.578794820874    -0.978184391876    -0.883098700706     1.007825032230
         H            3.443321820874     0.288186608124    -0.000379700706     1.007825032230
         C            1.275861820874     0.518079608124    -0.000072700706    12.000000000000
         H            1.274219820874     1.176293608124    -0.878045700706     1.007825032230
         H            1.273451820874     1.175975608124     0.878146299294     1.007825032230
         C            0.000004820874    -0.320508391876    -0.000792700706    12.000000000000
         H           -0.000017179126    -0.979029391876    -0.880273700706     1.007825032230
         H            0.000053820874    -0.980759391876     0.877400299294     1.007825032230
         C           -1.275860179126     0.518061608124     0.000040299294    12.000000000000
         H           -1.274207179126     1.176421608124    -0.877825700706     1.007825032230
         H           -1.273465179126     1.175820608124     0.878363299294     1.007825032230
         C           -2.542831179126    -0.333107391876     0.000358299294    12.000000000000
         H           -2.579127179126    -0.976786391876     0.884854299294     1.007825032230
         H           -3.443312179126     0.288215608124    -0.000203700706     1.007825032230
         H           -2.578874179126    -0.977943391876    -0.883317700706     1.007825032230

  Basis Set: AUG-CC-PVTZ
    Blend: AUG-CC-PVTZ
  Basis Set: (AUG-CC-PVTZ AUX)
    Blend: AUG-CC-PVTZ-JKFIT
	 Reference Energy          =    -196.4038628269652520 [Eh]
	 Singles Energy            =      -0.0000000000000000 [Eh]
	 Same-Spin Energy          =      -0.2077169730368628 [Eh]
	 Opposite-Spin Energy      =      -0.7933283624202421 [Eh]
	 Correlation Energy        =      -1.0010453354571047 [Eh]
	 Total Energy              =    -197.4049081624223447 [Eh]

	 ================> DF-SCS-MP2 Energies <==================
	-----------------------------------------------------------
	 SCS Same-Spin Scale       =       0.3333333333333333 [-]
	 SCS Opposite-Spin Scale   =       1.2000000000000000 [-]
	 SCS Same-Spin Energy      =      -0.0692389910122876 [Eh]
	 SCS Opposite-Spin Energy  =      -0.9519940349042905 [Eh]
	 SCS Correlation Energy    =      -1.0212330259165781 [Eh]
	 SCS Total Energy          =    -197.4250958528818387 [Eh]
	-----------------------------------------------------------

  Dipole Moment: [D]
     X:    -0.0000      Y:     0.0876      Z:    -0.0001     Total:     0.0876

*** Psi4 exiting successfully. Buy a developer a beer!
