                               Psi4 1.4a3.dev225

  ==> Input File <==

--------------------------------------------------------------------------
#psi4
#
memory 32 gb

molecule  {
0 1
  C        2.5434150    -0.3258570     0.0000020
  H        2.5799190    -0.9700390     0.8840510
  H        2.5798870    -0.9701100    -0.8839970
  H        3.4436120     0.2958290    -0.0000390
  C        1.2759530     0.5247200    -0.0000120
  H        1.2738378     1.2127945    -0.9180382
  H        1.2739250     1.1828280     0.8779900
  C        0.0000000    -0.3137570    -0.0000050
  H       -0.0000060    -0.9732170    -0.8787350
  H        0.0000060    -0.9732200     0.8787230
  C       -1.2759530     0.5247200     0.0000030
  H       -1.2739340     1.1828180    -0.8780070
  H       -1.2739210     1.1828170     0.8780130
  C       -2.5434150    -0.3258570     0.0000110
  H       -2.5799100    -0.9700590     0.8840460
  H       -3.4436120     0.2958290    -0.0000090
  H       -2.5798950    -0.9700920    -0.8840020
units angstrom
no_reorient  #important for SAPT in psi4, default
symmetry c1  #important for SAPT in psi4, default
}

set PROPERTIES_ORIGIN ["COM"]
properties('MP2/aug-cc-pvtz', properties = ['dipole'])
--------------------------------------------------------------------------

    Molecular point group: c1
  Charge       = 0
  Multiplicity = 1
  Basis Set: AUG-CC-PVTZ
    Blend: AUG-CC-PVTZ
  Basis Set: (AUG-CC-PVTZ AUX)
    Blend: AUG-CC-PVTZ-JKFIT

    Orbital Energies [Eh]
    ---------------------

    Doubly Occupied:

       1A    -11.221075     2A    -11.214854     3A    -11.213125
       4A    -11.210024     5A    -11.209449     6A     -1.078195
       7A     -1.012858     8A     -0.917949     9A     -0.816633
      10A     -0.780807    11A     -0.643866    12A     -0.596570
      13A     -0.589798    14A     -0.553187    15A     -0.546496
      16A     -0.525264    17A     -0.492946    18A     -0.473276
      19A     -0.460726    20A     -0.455898    21A     -0.447279

  @DF-RHF Final Energy:  -196.40185254564577

   => Energetics <=

    Nuclear Repulsion Energy =            184.7977136440509298
    One-Electron Energy =                -629.4785860130888295
    Two-Electron Energy =                 248.2790198233921330
    Total Energy =                       -196.4018525456457667
  Basis Set: (AUG-CC-PVTZ AUX)
    Blend: AUG-CC-PVTZ-RI
    Molecular point group: c1

    Geometry (in Angstrom), charge = 0, multiplicity = 1:

       Center              X                  Y                   Z               Mass
    ------------   -----------------  -----------------  -----------------  -----------------
         C            2.543416274916    -0.333209894332     0.000561398700    12.000000000000
         H            2.579920274916    -0.977391894332     0.884610398700     1.007825032230
         H            2.579888274916    -0.977462894332    -0.883437601300     1.007825032230
         H            3.443613274916     0.288476105668     0.000520398700     1.007825032230
         C            1.275954274916     0.517367105668     0.000547398700    12.000000000000
         H            1.273839074916     1.205441605668    -0.917478801300     1.007825032230
         H            1.273926274916     1.175475105668     0.878549398700     1.007825032230
         C            0.000001274916    -0.321109894332     0.000554398700    12.000000000000
         H           -0.000004725084    -0.980569894332    -0.878175601300     1.007825032230
         H            0.000007274916    -0.980572894332     0.879282398700     1.007825032230
         C           -1.275951725084     0.517367105668     0.000562398700    12.000000000000
         H           -1.273932725084     1.175465105668    -0.877447601300     1.007825032230
         H           -1.273919725084     1.175464105668     0.878572398700     1.007825032230
         C           -2.543413725084    -0.333209894332     0.000570398700    12.000000000000
         H           -2.579908725084    -0.977411894332     0.884605398700     1.007825032230
         H           -3.443610725084     0.288476105668     0.000550398700     1.007825032230
         H           -2.579893725084    -0.977444894332    -0.883442601300     1.007825032230

  Basis Set: AUG-CC-PVTZ
    Blend: AUG-CC-PVTZ
  Basis Set: (AUG-CC-PVTZ AUX)
    Blend: AUG-CC-PVTZ-JKFIT
	 Reference Energy          =    -196.4018525456457667 [Eh]
	 Singles Energy            =      -0.0000000000000000 [Eh]
	 Same-Spin Energy          =      -0.2077051738276338 [Eh]
	 Opposite-Spin Energy      =      -0.7936414565866554 [Eh]
	 Correlation Energy        =      -1.0013466304142891 [Eh]
	 Total Energy              =    -197.4031991760600420 [Eh]

	 ================> DF-SCS-MP2 Energies <==================
	-----------------------------------------------------------
	 SCS Same-Spin Scale       =       0.3333333333333333 [-]
	 SCS Opposite-Spin Scale   =       1.2000000000000000 [-]
	 SCS Same-Spin Energy      =      -0.0692350579425446 [Eh]
	 SCS Opposite-Spin Energy  =      -0.9523697479039864 [Eh]
	 SCS Correlation Energy    =      -1.0216048058465310 [Eh]
	 SCS Total Energy          =    -197.4234573514922886 [Eh]
	-----------------------------------------------------------

  Dipole Moment: [D]
     X:     0.0002      Y:     0.0563      Z:     0.0284     Total:     0.0630

*** Psi4 exiting successfully. Buy a developer a beer!
