                               Psi4 1.3.2 release

  ==> Input File <==

--------------------------------------------------------------------------
#psi4
#
memory 32 gb

molecule  {
0 1
  C        2.5428260    -0.3261640     0.0004000
  H        2.5791480    -0.9696020     0.8850690
  H        2.5787950    -0.9712350    -0.8831070
  H        3.4433220     0.2951360    -0.0003880
  C        1.2758620     0.5250290    -0.0000810
  H        1.2742200     1.1832430    -0.8780540
  H        1.2734520     1.1829250     0.8781380
  C        0.0000050    -0.3135590    -0.0008010
  H       -0.0000122    -1.0604034    -0.8066299
  H        0.0000540    -0.9738100     0.8773920
  C       -1.2758600     0.5250110     0.0000320
  H       -1.2742070     1.1833710    -0.8778340
  H       -1.2734650     1.1827700     0.8783550
  C       -2.5428310    -0.3261580     0.0003500
  H       -2.5791270    -0.9698370     0.8848460
  H       -3.4433120     0.2951650    -0.0002120
  H       -2.5788740    -0.9709940    -0.8833260
units angstrom
no_reorient  #important for SAPT in psi4, default
symmetry c1  #important for SAPT in psi4, default
}

set PROPERTIES_ORIGIN ["COM"]
properties('MP2/aug-cc-pvtz', properties = ['dipole'])
--------------------------------------------------------------------------

    Molecular point group: c1
  Charge       = 0
  Multiplicity = 1
  Basis Set: AUG-CC-PVTZ
    Blend: AUG-CC-PVTZ
  Basis Set: (AUG-CC-PVTZ AUX)
    Blend: AUG-CC-PVTZ-JKFIT

    Orbital Energies [Eh]
    ---------------------

    Doubly Occupied:

       1A    -11.215420     2A    -11.215372     3A    -11.212158
       4A    -11.209437     5A    -11.209436     6A     -1.078391
       7A     -1.013597     8A     -0.917429     9A     -0.818449
      10A     -0.786399    11A     -0.641185    12A     -0.596734
      13A     -0.591479    14A     -0.556213    15A     -0.546431
      16A     -0.521083    17A     -0.493766    18A     -0.475231
      19A     -0.466356    20A     -0.453138    21A     -0.446636

  @DF-RHF Final Energy:  -196.40257319626119

   => Energetics <=

    Nuclear Repulsion Energy =            184.9723807854938968
    One-Electron Energy =                -629.8212279533610172
    Two-Electron Energy =                 248.4462739716059332
    Total Energy =                       -196.4025731962611871
  Basis Set: (AUG-CC-PVTZ AUX)
    Blend: AUG-CC-PVTZ-RI
    Molecular point group: c1

    Geometry (in Angstrom), charge = 0, multiplicity = 1:

       Center              X                  Y                   Z               Mass
    ------------   -----------------  -----------------  -----------------  -----------------
         C            2.542825753773    -0.331878689176    -0.000621308338    12.000000000000
         H            2.579147753773    -0.975316689176     0.884047691662     1.007825032230
         H            2.578794753773    -0.976949689176    -0.884128308338     1.007825032230
         H            3.443321753773     0.289421310824    -0.001409308338     1.007825032230
         C            1.275861753773     0.519314310824    -0.001102308338    12.000000000000
         H            1.274219753773     1.177528310824    -0.879075308338     1.007825032230
         H            1.273451753773     1.177210310824     0.877116691662     1.007825032230
         C            0.000004753773    -0.319273689176    -0.001822308338    12.000000000000
         H           -0.000012446227    -1.066118089176    -0.807651208338     1.007825032230
         H            0.000053753773    -0.979524689176     0.876370691662     1.007825032230
         C           -1.275860246227     0.519296310824    -0.000989308338    12.000000000000
         H           -1.274207246227     1.177656310824    -0.878855308338     1.007825032230
         H           -1.273465246227     1.177055310824     0.877333691662     1.007825032230
         C           -2.542831246227    -0.331872689176    -0.000671308338    12.000000000000
         H           -2.579127246227    -0.975551689176     0.883824691662     1.007825032230
         H           -3.443312246227     0.289450310824    -0.001233308338     1.007825032230
         H           -2.578874246227    -0.976708689176    -0.884347308338     1.007825032230

  Basis Set: AUG-CC-PVTZ
    Blend: AUG-CC-PVTZ
  Basis Set: (AUG-CC-PVTZ AUX)
    Blend: AUG-CC-PVTZ-JKFIT
	 Reference Energy          =    -196.4025731962611871 [Eh]
	 Singles Energy            =      -0.0000000000000000 [Eh]
	 Same-Spin Energy          =      -0.2077551299349445 [Eh]
	 Opposite-Spin Energy      =      -0.7933308764646396 [Eh]
	 Correlation Energy        =      -1.0010860063995841 [Eh]
	 Total Energy              =    -197.4036592026607764 [Eh]

	 ================> DF-SCS-MP2 Energies <==================
	-----------------------------------------------------------
	 SCS Same-Spin Scale       =       0.3333333333333333 [-]
	 SCS Opposite-Spin Scale   =       1.2000000000000000 [-]
	 SCS Same-Spin Energy      =      -0.0692517099783148 [Eh]
	 SCS Opposite-Spin Energy  =      -0.9519970517575675 [Eh]
	 SCS Correlation Energy    =      -1.0212487617358823 [Eh]
	 SCS Total Energy          =    -197.4238219579970632 [Eh]
	-----------------------------------------------------------

  Dipole Moment: [D]
     X:    -0.0000      Y:     0.0695      Z:     0.0147     Total:     0.0711

*** Psi4 exiting successfully. Buy a developer a beer!
