                               Psi4 1.3.2 release

  ==> Input File <==

--------------------------------------------------------------------------
#psi4
#
memory 32 gb

molecule  {
0 1
  C        2.5428260    -0.3261640     0.0004000
  H        2.5758295    -0.9108147     0.8042418
  H        2.5787950    -0.9712350    -0.8831070
  H        3.4433220     0.2951360    -0.0003880
  C        1.2758620     0.5250290    -0.0000810
  H        1.2742200     1.1832430    -0.8780540
  H        1.2734520     1.1829250     0.8781380
  C        0.0000050    -0.3135590    -0.0008010
  H       -0.0000170    -0.9720800    -0.8802820
  H        0.0000540    -0.9738100     0.8773920
  C       -1.2758600     0.5250110     0.0000320
  H       -1.2742070     1.1833710    -0.8778340
  H       -1.2734650     1.1827700     0.8783550
  C       -2.5428310    -0.3261580     0.0003500
  H       -2.5791270    -0.9698370     0.8848460
  H       -3.4433120     0.2951650    -0.0002120
  H       -2.5788740    -0.9709940    -0.8833260
units angstrom
no_reorient  #important for SAPT in psi4, default
symmetry c1  #important for SAPT in psi4, default
}

set PROPERTIES_ORIGIN ["COM"]
properties('MP2/aug-cc-pvtz', properties = ['dipole'])
--------------------------------------------------------------------------

    Molecular point group: c1
  Charge       = 0
  Multiplicity = 1
  Basis Set: AUG-CC-PVTZ
    Blend: AUG-CC-PVTZ
  Basis Set: (AUG-CC-PVTZ AUX)
    Blend: AUG-CC-PVTZ-JKFIT

    Orbital Energies [Eh]
    ---------------------

    Doubly Occupied:

       1A    -11.214634     2A    -11.213679     3A    -11.212279
       4A    -11.209272     5A    -11.196531     6A     -1.079482
       7A     -1.016354     8A     -0.922140     9A     -0.822343
      10A     -0.784008    11A     -0.646528    12A     -0.598992
      13A     -0.594252    14A     -0.554812    15A     -0.546421
      16A     -0.529724    17A     -0.494978    18A     -0.477343
      19A     -0.460777    20A     -0.458412    21A     -0.445994

  @DF-RHF Final Energy:  -196.39770868131271

   => Energetics <=

    Nuclear Repulsion Energy =            185.4310369789407673
    One-Electron Energy =                -630.6995823268716777
    Two-Electron Energy =                 248.8708366666182030
    Total Energy =                       -196.3977086813127073
  Basis Set: (AUG-CC-PVTZ AUX)
    Blend: AUG-CC-PVTZ-RI
    Molecular point group: c1

    Geometry (in Angstrom), charge = 0, multiplicity = 1:

       Center              X                  Y                   Z               Mass
    ------------   -----------------  -----------------  -----------------  -----------------
         C            2.542872211308    -0.333935199438     0.001538210077    12.000000000000
         H            2.575875711308    -0.918585899438     0.805380010077     1.007825032230
         H            2.578841211308    -0.979006199438    -0.881968789923     1.007825032230
         H            3.443368211308     0.287364800562     0.000750210077     1.007825032230
         C            1.275908211308     0.517257800562     0.001057210077    12.000000000000
         H            1.274266211308     1.175471800562    -0.876915789923     1.007825032230
         H            1.273498211308     1.175153800562     0.879276210077     1.007825032230
         C            0.000051211308    -0.321330199438     0.000337210077    12.000000000000
         H            0.000029211308    -0.979851199438    -0.879143789923     1.007825032230
         H            0.000100211308    -0.981581199438     0.878530210077     1.007825032230
         C           -1.275813788692     0.517239800562     0.001170210077    12.000000000000
         H           -1.274160788692     1.175599800562    -0.876695789923     1.007825032230
         H           -1.273418788692     1.174998800562     0.879493210077     1.007825032230
         C           -2.542784788692    -0.333929199438     0.001488210077    12.000000000000
         H           -2.579080788692    -0.977608199438     0.885984210077     1.007825032230
         H           -3.443265788692     0.287393800562     0.000926210077     1.007825032230
         H           -2.578827788692    -0.978765199438    -0.882187789923     1.007825032230

  Basis Set: AUG-CC-PVTZ
    Blend: AUG-CC-PVTZ
  Basis Set: (AUG-CC-PVTZ AUX)
    Blend: AUG-CC-PVTZ-JKFIT
	 Reference Energy          =    -196.3977086813127073 [Eh]
	 Singles Energy            =      -0.0000000000000000 [Eh]
	 Same-Spin Energy          =      -0.2077945618643591 [Eh]
	 Opposite-Spin Energy      =      -0.7929213825375820 [Eh]
	 Correlation Energy        =      -1.0007159444019411 [Eh]
	 Total Energy              =    -197.3984246257146538 [Eh]

	 ================> DF-SCS-MP2 Energies <==================
	-----------------------------------------------------------
	 SCS Same-Spin Scale       =       0.3333333333333333 [-]
	 SCS Opposite-Spin Scale   =       1.2000000000000000 [-]
	 SCS Same-Spin Energy      =      -0.0692648539547863 [Eh]
	 SCS Opposite-Spin Energy  =      -0.9515056590450984 [Eh]
	 SCS Correlation Energy    =      -1.0207705129998847 [Eh]
	 SCS Total Energy          =    -197.4184791943125958 [Eh]
	-----------------------------------------------------------

  Dipole Moment: [D]
     X:     0.0177      Y:     0.0472      Z:     0.0437     Total:     0.0667

*** Psi4 exiting successfully. Buy a developer a beer!
