                               Psi4 1.3.2 release

  ==> Input File <==

--------------------------------------------------------------------------
#psi4
#
memory 32 gb

molecule  {
0 1
  C        2.5428260    -0.3261640     0.0004000
  H        2.5791480    -0.9696020     0.8850690
  H        2.5787950    -0.9712350    -0.8831070
  H        3.4433220     0.2951360    -0.0003880
  C        1.3588684     0.4692622    -0.0000495
  H        1.2742200     1.1832430    -0.8780540
  H        1.2734520     1.1829250     0.8781380
  C        0.0000050    -0.3135590    -0.0008010
  H       -0.0000170    -0.9720800    -0.8802820
  H        0.0000540    -0.9738100     0.8773920
  C       -1.2758600     0.5250110     0.0000320
  H       -1.2742070     1.1833710    -0.8778340
  H       -1.2734650     1.1827700     0.8783550
  C       -2.5428310    -0.3261580     0.0003500
  H       -2.5791270    -0.9698370     0.8848460
  H       -3.4433120     0.2951650    -0.0002120
  H       -2.5788740    -0.9709940    -0.8833260
units angstrom
no_reorient  #important for SAPT in psi4, default
symmetry c1  #important for SAPT in psi4, default
}

set PROPERTIES_ORIGIN ["COM"]
properties('MP2/aug-cc-pvtz', properties = ['dipole'])
--------------------------------------------------------------------------

    Molecular point group: c1
  Charge       = 0
  Multiplicity = 1
  Basis Set: AUG-CC-PVTZ
    Blend: AUG-CC-PVTZ
  Basis Set: (AUG-CC-PVTZ AUX)
    Blend: AUG-CC-PVTZ-JKFIT

    Orbital Energies [Eh]
    ---------------------

    Doubly Occupied:

       1A    -11.218814     2A    -11.216424     3A    -11.214424
       4A    -11.210461     5A    -11.206277     6A     -1.080668
       7A     -1.025982     8A     -0.920085     9A     -0.814924
      10A     -0.777665    11A     -0.642652    12A     -0.600895
      13A     -0.594482    14A     -0.564685    15A     -0.550506
      16A     -0.525496    17A     -0.501035    18A     -0.469331
      19A     -0.464443    20A     -0.446394    21A     -0.436614

  @DF-RHF Final Energy:  -196.39234336510955

   => Energetics <=

    Nuclear Repulsion Energy =            185.1136850512095009
    One-Electron Energy =                -630.0475432091137691
    Two-Electron Energy =                 248.5415147927947430
    Total Energy =                       -196.3923433651095536
  Basis Set: (AUG-CC-PVTZ AUX)
    Blend: AUG-CC-PVTZ-RI
    Molecular point group: c1

    Geometry (in Angstrom), charge = 0, multiplicity = 1:

       Center              X                  Y                   Z               Mass
    ------------   -----------------  -----------------  -----------------  -----------------
         C            2.529009439811    -0.323831031004     0.000403056132    12.000000000000
         H            2.565331439811    -0.967269031004     0.885072056132     1.007825032230
         H            2.564978439811    -0.968902031004    -0.883103943868     1.007825032230
         H            3.429505439811     0.297468968996    -0.000384943868     1.007825032230
         C            1.345051839811     0.471595168996    -0.000046443868    12.000000000000
         H            1.260403439811     1.185575968996    -0.878050943868     1.007825032230
         H            1.259635439811     1.185257968996     0.878141056132     1.007825032230
         C           -0.013811560189    -0.311226031004    -0.000797943868    12.000000000000
         H           -0.013833560189    -0.969747031004    -0.880278943868     1.007825032230
         H           -0.013762560189    -0.971477031004     0.877395056132     1.007825032230
         C           -1.289676560189     0.527343968996     0.000035056132    12.000000000000
         H           -1.288023560189     1.185703968996    -0.877830943868     1.007825032230
         H           -1.287281560189     1.185102968996     0.878358056132     1.007825032230
         C           -2.556647560189    -0.323825031004     0.000353056132    12.000000000000
         H           -2.592943560189    -0.967504031004     0.884849056132     1.007825032230
         H           -3.457128560189     0.297497968996    -0.000208943868     1.007825032230
         H           -2.592690560189    -0.968661031004    -0.883322943868     1.007825032230

  Basis Set: AUG-CC-PVTZ
    Blend: AUG-CC-PVTZ
  Basis Set: (AUG-CC-PVTZ AUX)
    Blend: AUG-CC-PVTZ-JKFIT
	 Reference Energy          =    -196.3923433651095536 [Eh]
	 Singles Energy            =      -0.0000000000000000 [Eh]
	 Same-Spin Energy          =      -0.2084372133704470 [Eh]
	 Opposite-Spin Energy      =      -0.7943072789857306 [Eh]
	 Correlation Energy        =      -1.0027444923561777 [Eh]
	 Total Energy              =    -197.3950878574657395 [Eh]

	 ================> DF-SCS-MP2 Energies <==================
	-----------------------------------------------------------
	 SCS Same-Spin Scale       =       0.3333333333333333 [-]
	 SCS Opposite-Spin Scale   =       1.2000000000000000 [-]
	 SCS Same-Spin Energy      =      -0.0694790711234823 [Eh]
	 SCS Opposite-Spin Energy  =      -0.9531687347828767 [Eh]
	 SCS Correlation Energy    =      -1.0226478059063591 [Eh]
	 SCS Total Energy          =    -197.4149911710159131 [Eh]
	-----------------------------------------------------------

  Dipole Moment: [D]
     X:     0.0256      Y:     0.0491      Z:     0.0000     Total:     0.0553

*** Psi4 exiting successfully. Buy a developer a beer!
