                               Psi4 1.3.2 release

  ==> Input File <==

--------------------------------------------------------------------------
#psi4
#
memory 32 gb

molecule  {
0 1
  C        2.5428260    -0.3261640     0.0004000
  H        2.5791480    -0.9696020     0.8850690
  H        2.5787950    -0.9712350    -0.8831070
  H        3.4433220     0.2951360    -0.0003880
  C        1.2758620     0.5250290    -0.0000810
  H        1.2742200     1.1832430    -0.8780540
  H        1.2734520     1.1829250     0.8781380
  C        0.1671360    -0.2037081    -0.0007067
  H       -0.0000170    -0.9720800    -0.8802820
  H        0.0000540    -0.9738100     0.8773920
  C       -1.2758600     0.5250110     0.0000320
  H       -1.2742070     1.1833710    -0.8778340
  H       -1.2734650     1.1827700     0.8783550
  C       -2.5428310    -0.3261580     0.0003500
  H       -2.5791270    -0.9698370     0.8848460
  H       -3.4433120     0.2951650    -0.0002120
  H       -2.5788740    -0.9709940    -0.8833260
units angstrom
no_reorient  #important for SAPT in psi4, default
symmetry c1  #important for SAPT in psi4, default
}

set PROPERTIES_ORIGIN ["COM"]
properties('MP2/aug-cc-pvtz', properties = ['dipole'])
--------------------------------------------------------------------------

    Molecular point group: c1
  Charge       = 0
  Multiplicity = 1
  Basis Set: AUG-CC-PVTZ
    Blend: AUG-CC-PVTZ
  Basis Set: (AUG-CC-PVTZ AUX)
    Blend: AUG-CC-PVTZ-JKFIT

    Orbital Energies [Eh]
    ---------------------

    Doubly Occupied:

       1A    -11.222963     2A    -11.219879     3A    -11.213317
       4A    -11.211913     5A    -11.206690     6A     -1.105624
       7A     -1.016294     8A     -0.923327     9A     -0.827484
      10A     -0.769212    11A     -0.648871    12A     -0.611347
      13A     -0.593806    14A     -0.567457    15A     -0.546279
      16A     -0.519651    17A     -0.501143    18A     -0.490836
      19A     -0.477724    20A     -0.425596    21A     -0.414192

  @DF-RHF Final Energy:  -196.35423030924136

   => Energetics <=

    Nuclear Repulsion Energy =            186.0506946450042278
    One-Electron Energy =                -631.7826443265000762
    Two-Electron Energy =                 249.3777193722544894
    Total Energy =                       -196.3542303092413590
  Basis Set: (AUG-CC-PVTZ AUX)
    Blend: AUG-CC-PVTZ-RI
    Molecular point group: c1

    Geometry (in Angstrom), charge = 0, multiplicity = 1:

       Center              X                  Y                   Z               Mass
    ------------   -----------------  -----------------  -----------------  -----------------
         C            2.515006934820    -0.351398028897     0.000392603098    12.000000000000
         H            2.551328934820    -0.994836028897     0.885061603098     1.007825032230
         H            2.550975934820    -0.996469028897    -0.883114396902     1.007825032230
         H            3.415502934820     0.269901971103    -0.000395396902     1.007825032230
         C            1.248042934820     0.499794971103    -0.000088396902    12.000000000000
         H            1.246400934820     1.158008971103    -0.878061396902     1.007825032230
         H            1.245632934820     1.157690971103     0.878130603098     1.007825032230
         C            0.139316934820    -0.228942128897    -0.000714096902    12.000000000000
         H           -0.027836065180    -0.997314028897    -0.880289396902     1.007825032230
         H           -0.027765065180    -0.999044028897     0.877384603098     1.007825032230
         C           -1.303679065180     0.499776971103     0.000024603098    12.000000000000
         H           -1.302026065180     1.158136971103    -0.877841396902     1.007825032230
         H           -1.301284065180     1.157535971103     0.878347603098     1.007825032230
         C           -2.570650065180    -0.351392028897     0.000342603098    12.000000000000
         H           -2.606946065180    -0.995071028897     0.884838603098     1.007825032230
         H           -3.471131065180     0.269930971103    -0.000219396902     1.007825032230
         H           -2.606693065180    -0.996228028897    -0.883333396902     1.007825032230

  Basis Set: AUG-CC-PVTZ
    Blend: AUG-CC-PVTZ
  Basis Set: (AUG-CC-PVTZ AUX)
    Blend: AUG-CC-PVTZ-JKFIT
	 Reference Energy          =    -196.3542303092413590 [Eh]
	 Singles Energy            =      -0.0000000000000000 [Eh]
	 Same-Spin Energy          =      -0.2103221178309493 [Eh]
	 Opposite-Spin Energy      =      -0.7971115718573207 [Eh]
	 Correlation Energy        =      -1.0074336896882701 [Eh]
	 Total Energy              =    -197.3616639989296289 [Eh]

	 ================> DF-SCS-MP2 Energies <==================
	-----------------------------------------------------------
	 SCS Same-Spin Scale       =       0.3333333333333333 [-]
	 SCS Opposite-Spin Scale   =       1.2000000000000000 [-]
	 SCS Same-Spin Energy      =      -0.0701073726103164 [Eh]
	 SCS Opposite-Spin Energy  =      -0.9565338862287849 [Eh]
	 SCS Correlation Energy    =      -1.0266412588391014 [Eh]
	 SCS Total Energy          =    -197.3808715680804653 [Eh]
	-----------------------------------------------------------

  Dipole Moment: [D]
     X:     0.0339      Y:     0.1634      Z:     0.0000     Total:     0.1669

*** Psi4 exiting successfully. Buy a developer a beer!
