                               Psi4 1.4a3.dev225

  ==> Input File <==

--------------------------------------------------------------------------
#psi4
#
memory 32 gb

molecule  {
0 1
  C        2.5434150    -0.3258570     0.0000020
  H        2.5799190    -0.9700390     0.8840510
  H        2.5798870    -0.9701100    -0.8839970
  H        3.4436120     0.2958290    -0.0000390
  C        1.2759530     0.5247200    -0.0000120
  H        1.2739300     1.1828070    -0.8780290
  H        1.2739250     1.1828280     0.8779900
  C        0.0417854    -0.2862983    -0.0000052
  H       -0.0000060    -0.9732170    -0.8787350
  H        0.0000060    -0.9732200     0.8787230
  C       -1.2759530     0.5247200     0.0000030
  H       -1.2739340     1.1828180    -0.8780070
  H       -1.2739210     1.1828170     0.8780130
  C       -2.5434150    -0.3258570     0.0000110
  H       -2.5799100    -0.9700590     0.8840460
  H       -3.4436120     0.2958290    -0.0000090
  H       -2.5798950    -0.9700920    -0.8840020
units angstrom
no_reorient  #important for SAPT in psi4, default
symmetry c1  #important for SAPT in psi4, default
}

set PROPERTIES_ORIGIN ["COM"]
properties('MP2/aug-cc-pvtz', properties = ['dipole'])
--------------------------------------------------------------------------

    Molecular point group: c1
  Charge       = 0
  Multiplicity = 1
  Basis Set: AUG-CC-PVTZ
    Blend: AUG-CC-PVTZ
  Basis Set: (AUG-CC-PVTZ AUX)
    Blend: AUG-CC-PVTZ-JKFIT

    Orbital Energies [Eh]
    ---------------------

    Doubly Occupied:

       1A    -11.215833     2A    -11.214456     3A    -11.213008
       4A    -11.210308     5A    -11.209809     6A     -1.082440
       7A     -1.014678     8A     -0.918682     9A     -0.820686
      10A     -0.779978    11A     -0.644906    12A     -0.598924
      13A     -0.592047    14A     -0.555874    15A     -0.546150
      16A     -0.522799    17A     -0.494134    18A     -0.475753
      19A     -0.466417    20A     -0.451932    21A     -0.444868

  @DF-RHF Final Energy:  -196.40099275548806

   => Energetics <=

    Nuclear Repulsion Energy =            185.2208825239124508
    One-Electron Energy =                -630.2963893322029207
    Two-Electron Energy =                 248.6745140528024081
    Total Energy =                       -196.4009927554880619
  Basis Set: (AUG-CC-PVTZ AUX)
    Blend: AUG-CC-PVTZ-RI
    Molecular point group: c1

    Geometry (in Angstrom), charge = 0, multiplicity = 1:

       Center              X                  Y                   Z               Mass
    ------------   -----------------  -----------------  -----------------  -----------------
         C            2.536459823416    -0.337361178216     0.000002129843    12.000000000000
         H            2.572963823416    -0.981543178216     0.884051129843     1.007825032230
         H            2.572931823416    -0.981614178216    -0.883996870157     1.007825032230
         H            3.436656823416     0.284324821784    -0.000038870157     1.007825032230
         C            1.268997823416     0.513215821784    -0.000011870157    12.000000000000
         H            1.266974823416     1.171302821784    -0.878028870157     1.007825032230
         H            1.266969823416     1.171323821784     0.877990129843     1.007825032230
         C            0.034830223416    -0.297802478216    -0.000005070157    12.000000000000
         H           -0.006961176584    -0.984721178216    -0.878734870157     1.007825032230
         H           -0.006949176584    -0.984724178216     0.878723129843     1.007825032230
         C           -1.282908176584     0.513215821784     0.000003129843    12.000000000000
         H           -1.280889176584     1.171313821784    -0.878006870157     1.007825032230
         H           -1.280876176584     1.171312821784     0.878013129843     1.007825032230
         C           -2.550370176584    -0.337361178216     0.000011129843    12.000000000000
         H           -2.586865176584    -0.981563178216     0.884046129843     1.007825032230
         H           -3.450567176584     0.284324821784    -0.000008870157     1.007825032230
         H           -2.586850176584    -0.981596178216    -0.884001870157     1.007825032230

  Basis Set: AUG-CC-PVTZ
    Blend: AUG-CC-PVTZ
  Basis Set: (AUG-CC-PVTZ AUX)
    Blend: AUG-CC-PVTZ-JKFIT
	 Reference Energy          =    -196.4009927554880619 [Eh]
	 Singles Energy            =      -0.0000000000000000 [Eh]
	 Same-Spin Energy          =      -0.2080066328727303 [Eh]
	 Opposite-Spin Energy      =      -0.7936677356296828 [Eh]
	 Correlation Energy        =      -1.0016743685024132 [Eh]
	 Total Energy              =    -197.4026671239904829 [Eh]

	 ================> DF-SCS-MP2 Energies <==================
	-----------------------------------------------------------
	 SCS Same-Spin Scale       =       0.3333333333333333 [-]
	 SCS Opposite-Spin Scale   =       1.2000000000000000 [-]
	 SCS Same-Spin Energy      =      -0.0693355442909101 [Eh]
	 SCS Opposite-Spin Energy  =      -0.9524012827556194 [Eh]
	 SCS Correlation Energy    =      -1.0217368270465295 [Eh]
	 SCS Total Energy          =    -197.4227295825346005 [Eh]
	-----------------------------------------------------------

  Dipole Moment: [D]
     X:     0.0027      Y:     0.0980      Z:    -0.0000     Total:     0.0980

*** Psi4 exiting successfully. Buy a developer a beer!
