                               Psi4 1.3.2 release

  ==> Input File <==

--------------------------------------------------------------------------
#psi4
#
memory 32 gb

molecule  {
0 1
  C        2.5428260    -0.3261640     0.0004000
  H        2.5791480    -0.9696020     0.8850690
  H        2.5787950    -0.9712350    -0.8831070
  H        3.4433220     0.2951360    -0.0003880
  C        1.2142571     0.6119855     0.0000022
  H        1.2742200     1.1832430    -0.8780540
  H        1.2734520     1.1829250     0.8781380
  C        0.0000050    -0.3135590    -0.0008010
  H       -0.0000170    -0.9720800    -0.8802820
  H        0.0000540    -0.9738100     0.8773920
  C       -1.2758600     0.5250110     0.0000320
  H       -1.2742070     1.1833710    -0.8778340
  H       -1.2734650     1.1827700     0.8783550
  C       -2.5428310    -0.3261580     0.0003500
  H       -2.5791270    -0.9698370     0.8848460
  H       -3.4433120     0.2951650    -0.0002120
  H       -2.5788740    -0.9709940    -0.8833260
units angstrom
no_reorient  #important for SAPT in psi4, default
symmetry c1  #important for SAPT in psi4, default
}

set PROPERTIES_ORIGIN ["COM"]
properties('MP2/aug-cc-pvtz', properties = ['dipole'])
--------------------------------------------------------------------------

    Molecular point group: c1
  Charge       = 0
  Multiplicity = 1
  Basis Set: AUG-CC-PVTZ
    Blend: AUG-CC-PVTZ
  Basis Set: (AUG-CC-PVTZ AUX)
    Blend: AUG-CC-PVTZ-JKFIT

    Orbital Energies [Eh]
    ---------------------

    Doubly Occupied:

       1A    -11.213264     2A    -11.212678     3A    -11.211932
       4A    -11.211166     5A    -11.208114     6A     -1.076812
       7A     -1.003965     8A     -0.912059     9A     -0.823382
      10A     -0.788125    11A     -0.650244    12A     -0.593292
      13A     -0.591711    14A     -0.550244    15A     -0.537833
      16A     -0.523751    17A     -0.491297    18A     -0.487928
      19A     -0.468459    20A     -0.463514    21A     -0.425844

  @DF-RHF Final Energy:  -196.39422612070513

   => Energetics <=

    Nuclear Repulsion Energy =            184.6190464961678401
    One-Electron Energy =                -629.1353176324165588
    Two-Electron Energy =                 248.1220450155436197
    Total Energy =                       -196.3942261207051274
  Basis Set: (AUG-CC-PVTZ AUX)
    Blend: AUG-CC-PVTZ-RI
    Molecular point group: c1

    Geometry (in Angstrom), charge = 0, multiplicity = 1:

       Center              X                  Y                   Z               Mass
    ------------   -----------------  -----------------  -----------------  -----------------
         C            2.553079931083    -0.347587265454     0.000394450688    12.000000000000
         H            2.589401931083    -0.991025265454     0.885063450688     1.007825032230
         H            2.589048931083    -0.992658265454    -0.883112549312     1.007825032230
         H            3.453575931083     0.273712734546    -0.000393549312     1.007825032230
         C            1.224511031083     0.590562234546    -0.000003349312    12.000000000000
         H            1.284473931083     1.161819734546    -0.878059549312     1.007825032230
         H            1.283705931083     1.161501734546     0.878132450688     1.007825032230
         C            0.010258931083    -0.334982265454    -0.000806549312    12.000000000000
         H            0.010236931083    -0.993503265454    -0.880287549312     1.007825032230
         H            0.010307931083    -0.995233265454     0.877386450688     1.007825032230
         C           -1.265606068917     0.503587734546     0.000026450688    12.000000000000
         H           -1.263953068917     1.161947734546    -0.877839549312     1.007825032230
         H           -1.263211068917     1.161346734546     0.878349450688     1.007825032230
         C           -2.532577068917    -0.347581265454     0.000344450688    12.000000000000
         H           -2.568873068917    -0.991260265454     0.884840450688     1.007825032230
         H           -3.433058068917     0.273741734546    -0.000217549312     1.007825032230
         H           -2.568620068917    -0.992417265454    -0.883331549312     1.007825032230

  Basis Set: AUG-CC-PVTZ
    Blend: AUG-CC-PVTZ
  Basis Set: (AUG-CC-PVTZ AUX)
    Blend: AUG-CC-PVTZ-JKFIT
	 Reference Energy          =    -196.3942261207051274 [Eh]
	 Singles Energy            =      -0.0000000000000000 [Eh]
	 Same-Spin Energy          =      -0.2075508770840846 [Eh]
	 Opposite-Spin Energy      =      -0.7936319716360377 [Eh]
	 Correlation Energy        =      -1.0011828487201222 [Eh]
	 Total Energy              =    -197.3954089694252616 [Eh]

	 ================> DF-SCS-MP2 Energies <==================
	-----------------------------------------------------------
	 SCS Same-Spin Scale       =       0.3333333333333333 [-]
	 SCS Opposite-Spin Scale   =       1.2000000000000000 [-]
	 SCS Same-Spin Energy      =      -0.0691836256946949 [Eh]
	 SCS Opposite-Spin Energy  =      -0.9523583659632452 [Eh]
	 SCS Correlation Energy    =      -1.0215419916579400 [Eh]
	 SCS Total Energy          =    -197.4157681123630539 [Eh]
	-----------------------------------------------------------

  Dipole Moment: [D]
     X:    -0.0196      Y:     0.1213      Z:    -0.0001     Total:     0.1229

*** Psi4 exiting successfully. Buy a developer a beer!
