                               Psi4 1.4a3.dev225

  ==> Input File <==

--------------------------------------------------------------------------
#psi4
#
memory 32 gb

molecule  {
0 1
 Cl       -0.6563840     0.0000000     0.0000000
  C        1.1723120     0.0000010    -0.0000021
  H        1.4748890    -0.1793410     1.0140600
  H        1.4748870    -0.7885380    -0.6623380
  H        1.4748860     0.9678750    -0.3517150
units angstrom
no_reorient  #important for SAPT in psi4, default
symmetry c1  #important for SAPT in psi4, default
}

set PROPERTIES_ORIGIN ["COM"]
properties('MP2/aug-cc-pvtz', properties = ['dipole'])
--------------------------------------------------------------------------

    Molecular point group: c1
  Charge       = 0
  Multiplicity = 1
  Basis Set: AUG-CC-PVTZ
    Blend: AUG-CC-PVTZ
  Basis Set: (AUG-CC-PVTZ AUX)
    Blend: AUG-CC-PVTZ-JKFIT

    Orbital Energies [Eh]
    ---------------------

    Doubly Occupied:

       1A   -104.823453     2A    -11.292926     3A    -10.547218
       4A     -8.014029     5A     -8.012277     6A     -8.012277
       7A     -1.117378     8A     -0.921599     9A     -0.624820
      10A     -0.624817    11A     -0.531899    12A     -0.435607
      13A     -0.435607

  @DF-RHF Final Energy:  -499.14821370237149

   => Energetics <=

    Nuclear Repulsion Energy =             50.6823086099740223
    One-Electron Energy =                -788.8732321212538636
    Two-Electron Energy =                 239.0427098089083415
    Total Energy =                       -499.1482137023714927
  Basis Set: (AUG-CC-PVTZ AUX)
    Blend: AUG-CC-PVTZ-RI
    Molecular point group: c1

    Geometry (in Angstrom), charge = 0, multiplicity = 1:

       Center              X                  Y                   Z               Mass
    ------------   -----------------  -----------------  -----------------  -----------------
         CL          -0.567851089597    -0.000000159398     0.000000362960    34.968852682000
         C            1.260844910403     0.000000840602    -0.000001737040    12.000000000000
         H            1.563421910403    -0.179341159398     1.014060362960     1.007825032230
         H            1.563419910403    -0.788538159398    -0.662337637040     1.007825032230
         H            1.563418910403     0.967874840602    -0.351714637040     1.007825032230

  Basis Set: AUG-CC-PVTZ
    Blend: AUG-CC-PVTZ
  Basis Set: (AUG-CC-PVTZ AUX)
    Blend: AUG-CC-PVTZ-JKFIT
	 Reference Energy          =    -499.1482137023714927 [Eh]
	 Singles Energy            =      -0.0000000000000000 [Eh]
	 Same-Spin Energy          =      -0.0989503001064911 [Eh]
	 Opposite-Spin Energy      =      -0.3353404275328904 [Eh]
	 Correlation Energy        =      -0.4342907276393815 [Eh]
	 Total Energy              =    -499.5825044300108857 [Eh]

	 ================> DF-SCS-MP2 Energies <==================
	-----------------------------------------------------------
	 SCS Same-Spin Scale       =       0.3333333333333333 [-]
	 SCS Opposite-Spin Scale   =       1.2000000000000000 [-]
	 SCS Same-Spin Energy      =      -0.0329834333688304 [Eh]
	 SCS Opposite-Spin Energy  =      -0.4024085130394685 [Eh]
	 SCS Correlation Energy    =      -0.4353919464082988 [Eh]
	 SCS Total Energy          =    -499.5836056487797805 [Eh]
	-----------------------------------------------------------

  Dipole Moment: [D]
     X:     2.0580      Y:    -0.0000      Z:     0.0000     Total:     2.0580

*** Psi4 exiting successfully. Buy a developer a beer!
