                               Psi4 1.3.2 release

  ==> Input File <==

--------------------------------------------------------------------------
#psi4
#
memory 32 gb

molecule  {
0 1
 Cl       -0.6563322    -0.0250684    -0.0183336
  C        1.1229320     0.0000030    -0.0000230
  H        1.4748470    -0.1110530     1.0242360
  H        1.4749130    -0.8315830    -0.6082020
  H        1.4748990     0.9426220    -0.4158890
units angstrom
no_reorient  #important for SAPT in psi4, default
symmetry c1  #important for SAPT in psi4, default
}

set PROPERTIES_ORIGIN ["COM"]
properties('MP2/aug-cc-pvtz', properties = ['dipole'])
--------------------------------------------------------------------------

    Molecular point group: c1
  Charge       = 0
  Multiplicity = 1
  Basis Set: AUG-CC-PVTZ
    Blend: AUG-CC-PVTZ
  Basis Set: (AUG-CC-PVTZ AUX)
    Blend: AUG-CC-PVTZ-JKFIT

    Orbital Energies [Eh]
    ---------------------

    Doubly Occupied:

       1A   -104.826965     2A    -11.291390     3A    -10.551267
       4A     -8.018180     5A     -8.016305     6A     -8.016302
       7A     -1.128666     8A     -0.914418     9A     -0.616794
      10A     -0.616503    11A     -0.547240    12A     -0.436005
      13A     -0.435592

  @DF-RHF Final Energy:  -499.14858213934065

   => Energetics <=

    Nuclear Repulsion Energy =             51.3703865439649405
    One-Electron Energy =                -790.2066832550384561
    Two-Electron Energy =                 239.6877145717328403
    Total Energy =                       -499.1485821393406468
  Basis Set: (AUG-CC-PVTZ AUX)
    Blend: AUG-CC-PVTZ-RI
    Molecular point group: c1

    Geometry (in Angstrom), charge = 0, multiplicity = 1:

       Center              X                  Y                   Z               Mass
    ------------   -----------------  -----------------  -----------------  -----------------
         CL          -0.555982443630    -0.007533883504    -0.005506935362    34.968852682000
         C            1.223281756370     0.017537516496     0.012803664638    12.000000000000
         H            1.575196756370    -0.093518483504     1.037062664638     1.007825032230
         H            1.575262756370    -0.814048483504    -0.595375335362     1.007825032230
         H            1.575248756370     0.960156516496    -0.403062335362     1.007825032230

  Basis Set: AUG-CC-PVTZ
    Blend: AUG-CC-PVTZ
  Basis Set: (AUG-CC-PVTZ AUX)
    Blend: AUG-CC-PVTZ-JKFIT
	 Reference Energy          =    -499.1485821393406468 [Eh]
	 Singles Energy            =      -0.0000000000000000 [Eh]
	 Same-Spin Energy          =      -0.0993636684441701 [Eh]
	 Opposite-Spin Energy      =      -0.3356830986876869 [Eh]
	 Correlation Energy        =      -0.4350467671318570 [Eh]
	 Total Energy              =    -499.5836289064724838 [Eh]

	 ================> DF-SCS-MP2 Energies <==================
	-----------------------------------------------------------
	 SCS Same-Spin Scale       =       0.3333333333333333 [-]
	 SCS Opposite-Spin Scale   =       1.2000000000000000 [-]
	 SCS Same-Spin Energy      =      -0.0331212228147234 [Eh]
	 SCS Opposite-Spin Energy  =      -0.4028197184252243 [Eh]
	 SCS Correlation Energy    =      -0.4359409412399476 [Eh]
	 SCS Total Energy          =    -499.5845230805805954 [Eh]
	-----------------------------------------------------------

  Dipole Moment: [D]
     X:     1.9093      Y:     0.0215      Z:     0.0158     Total:     1.9095

*** Psi4 exiting successfully. Buy a developer a beer!
