                               Psi4 1.3.2 release

  ==> Input File <==

--------------------------------------------------------------------------
#psi4
#
memory 32 gb

molecule  {
0 1
 Cl       -0.6566030     0.0000000     0.0000000
  C        0.9229320     0.0000027    -0.0000204
  H        1.4748470    -0.1110530     1.0242360
  H        1.4749130    -0.8315830    -0.6082020
  H        1.4748990     0.9426220    -0.4158890
units angstrom
no_reorient  #important for SAPT in psi4, default
symmetry c1  #important for SAPT in psi4, default
}

set PROPERTIES_ORIGIN ["COM"]
properties('MP2/aug-cc-pvtz', properties = ['dipole'])
--------------------------------------------------------------------------

    Molecular point group: c1
  Charge       = 0
  Multiplicity = 1
  Basis Set: AUG-CC-PVTZ
    Blend: AUG-CC-PVTZ
  Basis Set: (AUG-CC-PVTZ AUX)
    Blend: AUG-CC-PVTZ-JKFIT

    Orbital Energies [Eh]
    ---------------------

    Doubly Occupied:

       1A   -104.837247     2A    -11.294275     3A    -10.565831
       4A     -8.033389     5A     -8.030585     6A     -8.030585
       7A     -1.191432     8A     -0.881863     9A     -0.608903
      10A     -0.598633    11A     -0.598617    12A     -0.422610
      13A     -0.422597

  @DF-RHF Final Energy:  -499.10781993521744

   => Energetics <=

    Nuclear Repulsion Energy =             54.6110558696402393
    One-Electron Energy =                -796.4046153945317883
    Two-Electron Energy =                 242.6857395896740570
    Total Energy =                       -499.1078199352174352
  Basis Set: (AUG-CC-PVTZ AUX)
    Blend: AUG-CC-PVTZ-RI
    Molecular point group: c1

    Geometry (in Angstrom), charge = 0, multiplicity = 1:

       Center              X                  Y                   Z               Mass
    ------------   -----------------  -----------------  -----------------  -----------------
         CL          -0.508056456795    -0.000000365865     0.000001973610    34.968852682000
         C            1.071478543205     0.000002334135    -0.000018426390    12.000000000000
         H            1.623393543205    -0.111053365865     1.024237973610     1.007825032230
         H            1.623459543205    -0.831583365865    -0.608200026390     1.007825032230
         H            1.623445543205     0.942621634135    -0.415887026390     1.007825032230

  Basis Set: AUG-CC-PVTZ
    Blend: AUG-CC-PVTZ
  Basis Set: (AUG-CC-PVTZ AUX)
    Blend: AUG-CC-PVTZ-JKFIT
	 Reference Energy          =    -499.1078199352174352 [Eh]
	 Singles Energy            =      -0.0000000000000000 [Eh]
	 Same-Spin Energy          =      -0.1022221376418117 [Eh]
	 Opposite-Spin Energy      =      -0.3388579290963118 [Eh]
	 Correlation Energy        =      -0.4410800667381236 [Eh]
	 Total Energy              =    -499.5489000019555306 [Eh]

	 ================> DF-SCS-MP2 Energies <==================
	-----------------------------------------------------------
	 SCS Same-Spin Scale       =       0.3333333333333333 [-]
	 SCS Opposite-Spin Scale   =       1.2000000000000000 [-]
	 SCS Same-Spin Energy      =      -0.0340740458806039 [Eh]
	 SCS Opposite-Spin Energy  =      -0.4066295149155742 [Eh]
	 SCS Correlation Energy    =      -0.4407035607961781 [Eh]
	 SCS Total Energy          =    -499.5485234960136154 [Eh]
	-----------------------------------------------------------

  Dipole Moment: [D]
     X:     1.2839      Y:    -0.0000      Z:     0.0001     Total:     1.2839

*** Psi4 exiting successfully. Buy a developer a beer!
