                               Psi4 1.3.2 release

  ==> Input File <==

--------------------------------------------------------------------------
#psi4
#
memory 32 gb

molecule  {
0 1
 Cl       -0.6566030     0.0000000     0.0000000
  C        1.1229320     0.0000030    -0.0000230
  H        1.4748470    -0.1110530     1.0242360
  H        1.4749130    -0.8315830    -0.6082020
  H        1.4748990     0.9426220    -0.4158890
units angstrom
no_reorient  #important for SAPT in psi4, default
symmetry c1  #important for SAPT in psi4, default
}

set PROPERTIES_ORIGIN ["COM"]
properties('MP2/aug-cc-pvtz', properties = ['dipole'])
--------------------------------------------------------------------------

    Molecular point group: c1
  Charge       = 0
  Multiplicity = 1
  Basis Set: AUG-CC-PVTZ
    Blend: AUG-CC-PVTZ
  Basis Set: (AUG-CC-PVTZ AUX)
    Blend: AUG-CC-PVTZ-JKFIT

    Orbital Energies [Eh]
    ---------------------

    Doubly Occupied:

       1A   -104.826963     2A    -11.291392     3A    -10.551265
       4A     -8.018177     5A     -8.016302     6A     -8.016301
       7A     -1.128657     8A     -0.914421     9A     -0.616651
      10A     -0.616621    11A     -0.547264    12A     -0.435809
      13A     -0.435803

  @DF-RHF Final Energy:  -499.14862454843615

   => Energetics <=

    Nuclear Repulsion Energy =             51.3699166266750069
    One-Electron Energy =                -790.2058309151593676
    Two-Electron Energy =                 239.6872897400481861
    Total Energy =                       -499.1486245484361461
  Basis Set: (AUG-CC-PVTZ AUX)
    Blend: AUG-CC-PVTZ-RI
    Molecular point group: c1

    Geometry (in Angstrom), charge = 0, multiplicity = 1:

       Center              X                  Y                   Z               Mass
    ------------   -----------------  -----------------  -----------------  -----------------
         CL          -0.556063823258    -0.000000437876     0.000002597706    34.968852682000
         C            1.223471176742     0.000002562124    -0.000020402294    12.000000000000
         H            1.575386176742    -0.111053437876     1.024238597706     1.007825032230
         H            1.575452176742    -0.831583437876    -0.608199402294     1.007825032230
         H            1.575438176742     0.942621562124    -0.415886402294     1.007825032230

  Basis Set: AUG-CC-PVTZ
    Blend: AUG-CC-PVTZ
  Basis Set: (AUG-CC-PVTZ AUX)
    Blend: AUG-CC-PVTZ-JKFIT
	 Reference Energy          =    -499.1486245484361461 [Eh]
	 Singles Energy            =      -0.0000000000000000 [Eh]
	 Same-Spin Energy          =      -0.0993619932543219 [Eh]
	 Opposite-Spin Energy      =      -0.3356800506379317 [Eh]
	 Correlation Energy        =      -0.4350420438922535 [Eh]
	 Total Energy              =    -499.5836665923284272 [Eh]

	 ================> DF-SCS-MP2 Energies <==================
	-----------------------------------------------------------
	 SCS Same-Spin Scale       =       0.3333333333333333 [-]
	 SCS Opposite-Spin Scale   =       1.2000000000000000 [-]
	 SCS Same-Spin Energy      =      -0.0331206644181073 [Eh]
	 SCS Opposite-Spin Energy  =      -0.4028160607655180 [Eh]
	 SCS Correlation Energy    =      -0.4359367251836253 [Eh]
	 SCS Total Energy          =    -499.5845612736197836 [Eh]
	-----------------------------------------------------------

  Dipole Moment: [D]
     X:     1.9096      Y:    -0.0000      Z:     0.0001     Total:     1.9096

*** Psi4 exiting successfully. Buy a developer a beer!
