                               Psi4 1.3.2 release

  ==> Input File <==

--------------------------------------------------------------------------
#psi4
#
memory 32 gb

molecule  {
0 1
 Cl       -0.6566030     0.0000000     0.0000000
  C        1.3229320     0.0000033    -0.0000256
  H        1.4748470    -0.1110530     1.0242360
  H        1.4749130    -0.8315830    -0.6082020
  H        1.4748990     0.9426220    -0.4158890
units angstrom
no_reorient  #important for SAPT in psi4, default
symmetry c1  #important for SAPT in psi4, default
}

set PROPERTIES_ORIGIN ["COM"]
properties('MP2/aug-cc-pvtz', properties = ['dipole'])
--------------------------------------------------------------------------

    Molecular point group: c1
  Charge       = 0
  Multiplicity = 1
  Basis Set: AUG-CC-PVTZ
    Blend: AUG-CC-PVTZ
  Basis Set: (AUG-CC-PVTZ AUX)
    Blend: AUG-CC-PVTZ-JKFIT

    Orbital Energies [Eh]
    ---------------------

    Doubly Occupied:

       1A   -104.810740     2A    -11.304209     3A    -10.533658
       4A     -8.000254     5A     -7.998744     6A     -7.998744
       7A     -1.090177     8A     -0.939833     9A     -0.650641
      10A     -0.650598    11A     -0.487732    12A     -0.429952
      13A     -0.429949

  @DF-RHF Final Energy:  -499.13207771771442

   => Energetics <=

    Nuclear Repulsion Energy =             48.7028782917568464
    One-Electron Energy =                -785.0194520243287570
    Two-Electron Energy =                 237.1844960148574728
    Total Energy =                       -499.1320777177144237
  Basis Set: (AUG-CC-PVTZ AUX)
    Blend: AUG-CC-PVTZ-RI
    Molecular point group: c1

    Geometry (in Angstrom), charge = 0, multiplicity = 1:

       Center              X                  Y                   Z               Mass
    ------------   -----------------  -----------------  -----------------  -----------------
         CL          -0.604071189721    -0.000000509887     0.000003221802    34.968852682000
         C            1.375463810279     0.000002790113    -0.000022378198    12.000000000000
         H            1.527378810279    -0.111053509887     1.024239221802     1.007825032230
         H            1.527444810279    -0.831583509887    -0.608198778198     1.007825032230
         H            1.527430810279     0.942621490113    -0.415885778198     1.007825032230

  Basis Set: AUG-CC-PVTZ
    Blend: AUG-CC-PVTZ
  Basis Set: (AUG-CC-PVTZ AUX)
    Blend: AUG-CC-PVTZ-JKFIT
	 Reference Energy          =    -499.1320777177144237 [Eh]
	 Singles Energy            =      -0.0000000000000000 [Eh]
	 Same-Spin Energy          =      -0.0981221464839430 [Eh]
	 Opposite-Spin Energy      =      -0.3350178663158280 [Eh]
	 Correlation Energy        =      -0.4331400127997709 [Eh]
	 Total Energy              =    -499.5652177305141777 [Eh]

	 ================> DF-SCS-MP2 Energies <==================
	-----------------------------------------------------------
	 SCS Same-Spin Scale       =       0.3333333333333333 [-]
	 SCS Opposite-Spin Scale   =       1.2000000000000000 [-]
	 SCS Same-Spin Energy      =      -0.0327073821613143 [Eh]
	 SCS Opposite-Spin Energy  =      -0.4020214395789936 [Eh]
	 SCS Correlation Energy    =      -0.4347288217403079 [Eh]
	 SCS Total Energy          =    -499.5668065394547170 [Eh]
	-----------------------------------------------------------

  Dipole Moment: [D]
     X:     2.4911      Y:    -0.0000      Z:     0.0001     Total:     2.4911

*** Psi4 exiting successfully. Buy a developer a beer!
