                               Psi4 1.3.2 release

  ==> Input File <==

--------------------------------------------------------------------------
#psi4
#
memory 32 gb

molecule  {
0 1
 Cl       -0.6555186     0.0501292     0.0366616
  C        1.1229320     0.0000030    -0.0000230
  H        1.4748470    -0.1110530     1.0242360
  H        1.4749130    -0.8315830    -0.6082020
  H        1.4748990     0.9426220    -0.4158890
units angstrom
no_reorient  #important for SAPT in psi4, default
symmetry c1  #important for SAPT in psi4, default
}

set PROPERTIES_ORIGIN ["COM"]
properties('MP2/aug-cc-pvtz', properties = ['dipole'])
--------------------------------------------------------------------------

    Molecular point group: c1
  Charge       = 0
  Multiplicity = 1
  Basis Set: AUG-CC-PVTZ
    Blend: AUG-CC-PVTZ
  Basis Set: (AUG-CC-PVTZ AUX)
    Blend: AUG-CC-PVTZ-JKFIT

    Orbital Energies [Eh]
    ---------------------

    Doubly Occupied:

       1A   -104.826972     2A    -11.291384     3A    -10.551274
       4A     -8.018186     5A     -8.016313     6A     -8.016307
       7A     -1.128692     8A     -0.914408     9A     -0.616899
      10A     -0.616475    11A     -0.547165    12A     -0.436152
      13A     -0.435401

  @DF-RHF Final Energy:  -499.14845473872407

   => Energetics <=

    Nuclear Repulsion Energy =             51.3718031718324184
    One-Electron Energy =                -790.2092609158971754
    Two-Electron Energy =                 239.6890030053406804
    Total Energy =                       -499.1484547387240696
  Basis Set: (AUG-CC-PVTZ AUX)
    Blend: AUG-CC-PVTZ-RI
    Molecular point group: c1

    Geometry (in Angstrom), charge = 0, multiplicity = 1:

       Center              X                  Y                   Z               Mass
    ------------   -----------------  -----------------  -----------------  -----------------
         CL          -0.555737944126     0.015064169460     0.011019980954    34.968852682000
         C            1.222712655874    -0.035062030540    -0.025664619046    12.000000000000
         H            1.574627655874    -0.146118030540     0.998594380954     1.007825032230
         H            1.574693655874    -0.866648030540    -0.633843619046     1.007825032230
         H            1.574679655874     0.907556969460    -0.441530619046     1.007825032230

  Basis Set: AUG-CC-PVTZ
    Blend: AUG-CC-PVTZ
  Basis Set: (AUG-CC-PVTZ AUX)
    Blend: AUG-CC-PVTZ-JKFIT
	 Reference Energy          =    -499.1484547387240696 [Eh]
	 Singles Energy            =      -0.0000000000000000 [Eh]
	 Same-Spin Energy          =      -0.0993686743394159 [Eh]
	 Opposite-Spin Energy      =      -0.3356922957036370 [Eh]
	 Correlation Energy        =      -0.4350609700430529 [Eh]
	 Total Energy              =    -499.5835157087670950 [Eh]

	 ================> DF-SCS-MP2 Energies <==================
	-----------------------------------------------------------
	 SCS Same-Spin Scale       =       0.3333333333333333 [-]
	 SCS Opposite-Spin Scale   =       1.2000000000000000 [-]
	 SCS Same-Spin Energy      =      -0.0331228914464720 [Eh]
	 SCS Opposite-Spin Energy  =      -0.4028307548443643 [Eh]
	 SCS Correlation Energy    =      -0.4359536462908363 [Eh]
	 SCS Total Energy          =    -499.5844083850149104 [Eh]
	-----------------------------------------------------------

  Dipole Moment: [D]
     X:     1.9086      Y:    -0.0431      Z:    -0.0314     Total:     1.9094

*** Psi4 exiting successfully. Buy a developer a beer!
