                               Psi4 1.3.2 release

  ==> Input File <==

--------------------------------------------------------------------------
#psi4
#
memory 32 gb

molecule  {
0 1
 Cl       -0.6566030     0.0000000     0.0000000
  C        1.2229320     0.0000032    -0.0000243
  H        1.4748470    -0.1110530     1.0242360
  H        1.4749130    -0.8315830    -0.6082020
  H        1.4748990     0.9426220    -0.4158890
units angstrom
no_reorient  #important for SAPT in psi4, default
symmetry c1  #important for SAPT in psi4, default
}

set PROPERTIES_ORIGIN ["COM"]
properties('MP2/aug-cc-pvtz', properties = ['dipole'])
--------------------------------------------------------------------------

    Molecular point group: c1
  Charge       = 0
  Multiplicity = 1
  Basis Set: AUG-CC-PVTZ
    Blend: AUG-CC-PVTZ
  Basis Set: (AUG-CC-PVTZ AUX)
    Blend: AUG-CC-PVTZ-JKFIT

    Orbital Energies [Eh]
    ---------------------

    Doubly Occupied:

       1A   -104.819462     2A    -11.295895     3A    -10.542823
       4A     -8.009548     5A     -8.007897     6A     -8.007897
       7A     -1.107006     8A     -0.928208     9A     -0.633514
      10A     -0.633477    11A     -0.516381    12A     -0.434388
      13A     -0.434384

  @DF-RHF Final Energy:  -499.14488057001859

   => Energetics <=

    Nuclear Repulsion Energy =             49.9879077778394603
    One-Electron Energy =                -787.5238175966700283
    Two-Electron Energy =                 238.3910292488119467
    Total Energy =                       -499.1448805700185858
  Basis Set: (AUG-CC-PVTZ AUX)
    Blend: AUG-CC-PVTZ-RI
    Molecular point group: c1

    Geometry (in Angstrom), charge = 0, multiplicity = 1:

       Center              X                  Y                   Z               Mass
    ------------   -----------------  -----------------  -----------------  -----------------
         CL          -0.580067506490    -0.000000485884     0.000002909754    34.968852682000
         C            1.299467493510     0.000002714116    -0.000021390246    12.000000000000
         H            1.551382493510    -0.111053485884     1.024238909754     1.007825032230
         H            1.551448493510    -0.831583485884    -0.608199090246     1.007825032230
         H            1.551434493510     0.942621514116    -0.415886090246     1.007825032230

  Basis Set: AUG-CC-PVTZ
    Blend: AUG-CC-PVTZ
  Basis Set: (AUG-CC-PVTZ AUX)
    Blend: AUG-CC-PVTZ-JKFIT
	 Reference Energy          =    -499.1448805700185858 [Eh]
	 Singles Energy            =      -0.0000000000000000 [Eh]
	 Same-Spin Energy          =      -0.0986086819601741 [Eh]
	 Opposite-Spin Energy      =      -0.3351370035417299 [Eh]
	 Correlation Energy        =      -0.4337456855019040 [Eh]
	 Total Energy              =    -499.5786262555204758 [Eh]

	 ================> DF-SCS-MP2 Energies <==================
	-----------------------------------------------------------
	 SCS Same-Spin Scale       =       0.3333333333333333 [-]
	 SCS Opposite-Spin Scale   =       1.2000000000000000 [-]
	 SCS Same-Spin Energy      =      -0.0328695606533914 [Eh]
	 SCS Opposite-Spin Energy  =      -0.4021644042500758 [Eh]
	 SCS Correlation Energy    =      -0.4350339649034672 [Eh]
	 SCS Total Energy          =    -499.5799145349220680 [Eh]
	-----------------------------------------------------------

  Dipole Moment: [D]
     X:     2.2088      Y:    -0.0000      Z:     0.0001     Total:     2.2088

*** Psi4 exiting successfully. Buy a developer a beer!
