                               Psi4 1.4a3.dev225

  ==> Input File <==

--------------------------------------------------------------------------
#psi4
#
memory 32 gb

molecule  {
0 1
 Cl       -0.6563840     0.0000000     0.0000000
  C        1.1023120     0.0000010    -0.0000020
  H        1.4748890    -0.1793410     1.0140600
  H        1.4748870    -0.7885380    -0.6623380
  H        1.4748860     0.9678750    -0.3517150
units angstrom
no_reorient  #important for SAPT in psi4, default
symmetry c1  #important for SAPT in psi4, default
}

set PROPERTIES_ORIGIN ["COM"]
properties('MP2/aug-cc-pvtz', properties = ['dipole'])
--------------------------------------------------------------------------

    Molecular point group: c1
  Charge       = 0
  Multiplicity = 1
  Basis Set: AUG-CC-PVTZ
    Blend: AUG-CC-PVTZ
  Basis Set: (AUG-CC-PVTZ AUX)
    Blend: AUG-CC-PVTZ-JKFIT

    Orbital Energies [Eh]
    ---------------------

    Doubly Occupied:

       1A   -104.828302     2A    -11.290799     3A    -10.552884
       4A     -8.019845     5A     -8.017908     6A     -8.017908
       7A     -1.133905     8A     -0.911473     9A     -0.613654
      10A     -0.613652    11A     -0.553835    12A     -0.435564
      13A     -0.435564

  @DF-RHF Final Energy:  -499.14784398212356

   => Energetics <=

    Nuclear Repulsion Energy =             51.6805025178331547
    One-Electron Energy =                -790.8061055096906102
    Two-Electron Energy =                 239.9777590097339157
    Total Energy =                       -499.1478439821235611
  Basis Set: (AUG-CC-PVTZ AUX)
    Blend: AUG-CC-PVTZ-RI
    Molecular point group: c1

    Geometry (in Angstrom), charge = 0, multiplicity = 1:

       Center              X                  Y                   Z               Mass
    ------------   -----------------  -----------------  -----------------  -----------------
         CL          -0.551048511335    -0.000000159398     0.000000338957    34.968852682000
         C            1.207647488665     0.000000840602    -0.000001661043    12.000000000000
         H            1.580224488665    -0.179341159398     1.014060338957     1.007825032230
         H            1.580222488665    -0.788538159398    -0.662337661043     1.007825032230
         H            1.580221488665     0.967874840602    -0.351714661043     1.007825032230

  Basis Set: AUG-CC-PVTZ
    Blend: AUG-CC-PVTZ
  Basis Set: (AUG-CC-PVTZ AUX)
    Blend: AUG-CC-PVTZ-JKFIT
	 Reference Energy          =    -499.1478439821235611 [Eh]
	 Singles Energy            =      -0.0000000000000000 [Eh]
	 Same-Spin Energy          =      -0.0995634996230264 [Eh]
	 Opposite-Spin Energy      =      -0.3358528061933027 [Eh]
	 Correlation Energy        =      -0.4354163058163291 [Eh]
	 Total Energy              =    -499.5832602879398792 [Eh]

	 ================> DF-SCS-MP2 Energies <==================
	-----------------------------------------------------------
	 SCS Same-Spin Scale       =       0.3333333333333333 [-]
	 SCS Opposite-Spin Scale   =       1.2000000000000000 [-]
	 SCS Same-Spin Energy      =      -0.0331878332076755 [Eh]
	 SCS Opposite-Spin Energy  =      -0.4030233674319633 [Eh]
	 SCS Correlation Energy    =      -0.4362112006396387 [Eh]
	 SCS Total Energy          =    -499.5840551827632225 [Eh]
	-----------------------------------------------------------

  Dipole Moment: [D]
     X:     1.8472      Y:    -0.0000      Z:     0.0000     Total:     1.8472

*** Psi4 exiting successfully. Buy a developer a beer!
