                               Psi4 1.3.2 release

  ==> Input File <==

--------------------------------------------------------------------------
#psi4
#
memory 32 gb

molecule  {
0 1
 Cl       -0.6468557    -0.1501435    -0.1098064
  C        1.1229320     0.0000030    -0.0000230
  H        1.4748470    -0.1110530     1.0242360
  H        1.4749130    -0.8315830    -0.6082020
  H        1.4748990     0.9426220    -0.4158890
units angstrom
no_reorient  #important for SAPT in psi4, default
symmetry c1  #important for SAPT in psi4, default
}

set PROPERTIES_ORIGIN ["COM"]
properties('MP2/aug-cc-pvtz', properties = ['dipole'])
--------------------------------------------------------------------------

    Molecular point group: c1
  Charge       = 0
  Multiplicity = 1
  Basis Set: AUG-CC-PVTZ
    Blend: AUG-CC-PVTZ
  Basis Set: (AUG-CC-PVTZ AUX)
    Blend: AUG-CC-PVTZ-JKFIT

    Orbital Energies [Eh]
    ---------------------

    Doubly Occupied:

       1A   -104.827052     2A    -11.291310     3A    -10.551361
       4A     -8.018273     5A     -8.016398     6A     -8.016381
       7A     -1.129000     8A     -0.914300     9A     -0.618216
      10A     -0.615953    11A     -0.546411    12A     -0.437011
      13A     -0.434059

  @DF-RHF Final Energy:  -499.14707731328809

   => Energetics <=

    Nuclear Repulsion Energy =             51.3872212702329207
    One-Electron Energy =                -790.2371450403431936
    Two-Electron Energy =                 239.7028464568222148
    Total Energy =                       -499.1470773132880936
  Basis Set: (AUG-CC-PVTZ AUX)
    Blend: AUG-CC-PVTZ-RI
    Molecular point group: c1

    Geometry (in Angstrom), charge = 0, multiplicity = 1:

       Center              X                  Y                   Z               Mass
    ------------   -----------------  -----------------  -----------------  -----------------
         CL          -0.553134607410    -0.045120904024    -0.032995940053    34.968852682000
         C            1.216653092590     0.105025595976     0.076787459947    12.000000000000
         H            1.568568092590    -0.006030404024     1.101046459947     1.007825032230
         H            1.568634092590    -0.726560404024    -0.531391540053     1.007825032230
         H            1.568620092590     1.047644595976    -0.339078540053     1.007825032230

  Basis Set: AUG-CC-PVTZ
    Blend: AUG-CC-PVTZ
  Basis Set: (AUG-CC-PVTZ AUX)
    Blend: AUG-CC-PVTZ-JKFIT
	 Reference Energy          =    -499.1470773132880936 [Eh]
	 Singles Energy            =      -0.0000000000000000 [Eh]
	 Same-Spin Energy          =      -0.0994238724183979 [Eh]
	 Opposite-Spin Energy      =      -0.3357911418632235 [Eh]
	 Correlation Energy        =      -0.4352150142816214 [Eh]
	 Total Energy              =    -499.5822923275696894 [Eh]

	 ================> DF-SCS-MP2 Energies <==================
	-----------------------------------------------------------
	 SCS Same-Spin Scale       =       0.3333333333333333 [-]
	 SCS Opposite-Spin Scale   =       1.2000000000000000 [-]
	 SCS Same-Spin Energy      =      -0.0331412908061326 [Eh]
	 SCS Opposite-Spin Energy  =      -0.4029493702358682 [Eh]
	 SCS Correlation Energy    =      -0.4360906610420008 [Eh]
	 SCS Total Energy          =    -499.5831679743300811 [Eh]
	-----------------------------------------------------------

  Dipole Moment: [D]
     X:     1.9006      Y:     0.1284      Z:     0.0940     Total:     1.9073

*** Psi4 exiting successfully. Buy a developer a beer!
