                               Psi4 1.3.2 release

  ==> Input File <==

--------------------------------------------------------------------------
#psi4
#
memory 32 gb

molecule  {
0 1
 Cl       -0.6522689    -0.1001974    -0.0732787
  C        1.1229320     0.0000030    -0.0000230
  H        1.4748470    -0.1110530     1.0242360
  H        1.4749130    -0.8315830    -0.6082020
  H        1.4748990     0.9426220    -0.4158890
units angstrom
no_reorient  #important for SAPT in psi4, default
symmetry c1  #important for SAPT in psi4, default
}

set PROPERTIES_ORIGIN ["COM"]
properties('MP2/aug-cc-pvtz', properties = ['dipole'])
--------------------------------------------------------------------------

    Molecular point group: c1
  Charge       = 0
  Multiplicity = 1
  Basis Set: AUG-CC-PVTZ
    Blend: AUG-CC-PVTZ
  Basis Set: (AUG-CC-PVTZ AUX)
    Blend: AUG-CC-PVTZ-JKFIT

    Orbital Energies [Eh]
    ---------------------

    Doubly Occupied:

       1A   -104.827001     2A    -11.291357     3A    -10.551306
       4A     -8.018218     5A     -8.016345     6A     -8.016333
       7A     -1.128806     8A     -0.914368     9A     -0.617516
      10A     -0.616159    11A     -0.546878    12A     -0.436607
      13A     -0.434766

  @DF-RHF Final Energy:  -499.14793999580161

   => Energetics <=

    Nuclear Repulsion Energy =             51.3775559820593557
    One-Electron Energy =                -790.2196724649522821
    Two-Electron Energy =                 239.6941764870913119
    Total Energy =                       -499.1479399958016074
  Basis Set: (AUG-CC-PVTZ AUX)
    Blend: AUG-CC-PVTZ-RI
    Molecular point group: c1

    Geometry (in Angstrom), charge = 0, multiplicity = 1:

       Center              X                  Y                   Z               Mass
    ------------   -----------------  -----------------  -----------------  -----------------
         CL          -0.554761358534    -0.030111321096    -0.022018795845    34.968852682000
         C            1.220439541466     0.070089078904     0.051236904155    12.000000000000
         H            1.572354541466    -0.040966921096     1.075495904155     1.007825032230
         H            1.572420541466    -0.761496921096    -0.556942095845     1.007825032230
         H            1.572406541466     1.012708078904    -0.364629095845     1.007825032230

  Basis Set: AUG-CC-PVTZ
    Blend: AUG-CC-PVTZ
  Basis Set: (AUG-CC-PVTZ AUX)
    Blend: AUG-CC-PVTZ-JKFIT
	 Reference Energy          =    -499.1479399958016074 [Eh]
	 Singles Energy            =      -0.0000000000000000 [Eh]
	 Same-Spin Energy          =      -0.0993892415086893 [Eh]
	 Opposite-Spin Energy      =      -0.3357292080174177 [Eh]
	 Correlation Energy        =      -0.4351184495261070 [Eh]
	 Total Energy              =    -499.5830584453277083 [Eh]

	 ================> DF-SCS-MP2 Energies <==================
	-----------------------------------------------------------
	 SCS Same-Spin Scale       =       0.3333333333333333 [-]
	 SCS Opposite-Spin Scale   =       1.2000000000000000 [-]
	 SCS Same-Spin Energy      =      -0.0331297471695631 [Eh]
	 SCS Opposite-Spin Energy  =      -0.4028750496209012 [Eh]
	 SCS Correlation Energy    =      -0.4360047967904643 [Eh]
	 SCS Total Energy          =    -499.5839447925920922 [Eh]
	-----------------------------------------------------------

  Dipole Moment: [D]
     X:     1.9056      Y:     0.0858      Z:     0.0628     Total:     1.9086

*** Psi4 exiting successfully. Buy a developer a beer!
