                               Psi4 1.3.2 release

  ==> Input File <==

--------------------------------------------------------------------------
#psi4
#
memory 32 gb

molecule  {
0 1
 Cl       -0.6468534     0.1501435     0.1098062
  C        1.1229320     0.0000030    -0.0000230
  H        1.4748470    -0.1110530     1.0242360
  H        1.4749130    -0.8315830    -0.6082020
  H        1.4748990     0.9426220    -0.4158890
units angstrom
no_reorient  #important for SAPT in psi4, default
symmetry c1  #important for SAPT in psi4, default
}

set PROPERTIES_ORIGIN ["COM"]
properties('MP2/aug-cc-pvtz', properties = ['dipole'])
--------------------------------------------------------------------------

    Molecular point group: c1
  Charge       = 0
  Multiplicity = 1
  Basis Set: AUG-CC-PVTZ
    Blend: AUG-CC-PVTZ
  Basis Set: (AUG-CC-PVTZ AUX)
    Blend: AUG-CC-PVTZ-JKFIT

    Orbital Energies [Eh]
    ---------------------

    Doubly Occupied:

       1A   -104.827035     2A    -11.291328     3A    -10.551343
       4A     -8.018255     5A     -8.016380     6A     -8.016363
       7A     -1.128971     8A     -0.914306     9A     -0.617517
      10A     -0.616665    11A     -0.546371    12A     -0.436503
      13A     -0.434578

  @DF-RHF Final Energy:  -499.14710714269120

   => Energetics <=

    Nuclear Repulsion Energy =             51.3866862648646077
    One-Electron Energy =                -790.2363552861260132
    Two-Electron Energy =                 239.7025618785702363
    Total Energy =                       -499.1471071426911976
  Basis Set: (AUG-CC-PVTZ AUX)
    Blend: AUG-CC-PVTZ-RI
    Molecular point group: c1

    Geometry (in Angstrom), charge = 0, multiplicity = 1:

       Center              X                  Y                   Z               Mass
    ------------   -----------------  -----------------  -----------------  -----------------
         CL          -0.553133916224     0.045120028271     0.033001075362    34.968852682000
         C            1.216651483776    -0.105020471729    -0.076828124638    12.000000000000
         H            1.568566483776    -0.216076471729     0.947430875362     1.007825032230
         H            1.568632483776    -0.936606471729    -0.685007124638     1.007825032230
         H            1.568618483776     0.837598528271    -0.492694124638     1.007825032230

  Basis Set: AUG-CC-PVTZ
    Blend: AUG-CC-PVTZ
  Basis Set: (AUG-CC-PVTZ AUX)
    Blend: AUG-CC-PVTZ-JKFIT
	 Reference Energy          =    -499.1471071426911976 [Eh]
	 Singles Energy            =      -0.0000000000000000 [Eh]
	 Same-Spin Energy          =      -0.0994211933252609 [Eh]
	 Opposite-Spin Energy      =      -0.3357898104861154 [Eh]
	 Correlation Energy        =      -0.4352110038113763 [Eh]
	 Total Energy              =    -499.5823181465025868 [Eh]

	 ================> DF-SCS-MP2 Energies <==================
	-----------------------------------------------------------
	 SCS Same-Spin Scale       =       0.3333333333333333 [-]
	 SCS Opposite-Spin Scale   =       1.2000000000000000 [-]
	 SCS Same-Spin Energy      =      -0.0331403977750870 [Eh]
	 SCS Opposite-Spin Energy  =      -0.4029477725833385 [Eh]
	 SCS Correlation Energy    =      -0.4360881703584255 [Eh]
	 SCS Total Energy          =    -499.5831953130496004 [Eh]
	-----------------------------------------------------------

  Dipole Moment: [D]
     X:     1.9010      Y:    -0.1292      Z:    -0.0944     Total:     1.9078

*** Psi4 exiting successfully. Buy a developer a beer!
