                               Psi4 1.3.2 release

  ==> Input File <==

--------------------------------------------------------------------------
#psi4
#
memory 32 gb

molecule  {
0 1
 Cl       -0.6566030     0.0000000     0.0000000
  C        1.0229320     0.0000028    -0.0000217
  H        1.4748470    -0.1110530     1.0242360
  H        1.4749130    -0.8315830    -0.6082020
  H        1.4748990     0.9426220    -0.4158890
units angstrom
no_reorient  #important for SAPT in psi4, default
symmetry c1  #important for SAPT in psi4, default
}

set PROPERTIES_ORIGIN ["COM"]
properties('MP2/aug-cc-pvtz', properties = ['dipole'])
--------------------------------------------------------------------------

    Molecular point group: c1
  Charge       = 0
  Multiplicity = 1
  Basis Set: AUG-CC-PVTZ
    Blend: AUG-CC-PVTZ
  Basis Set: (AUG-CC-PVTZ AUX)
    Blend: AUG-CC-PVTZ-JKFIT

    Orbital Energies [Eh]
    ---------------------

    Doubly Occupied:

       1A   -104.832816     2A    -11.290976     3A    -10.558779
       4A     -8.025960     5A     -8.023727     6A     -8.023727
       7A     -1.156332     8A     -0.898855     9A     -0.603859
      10A     -0.603835    11A     -0.578718    12A     -0.432378
      13A     -0.432369

  @DF-RHF Final Energy:  -499.13823236366721

   => Energetics <=

    Nuclear Repulsion Energy =             52.8934653917605502
    One-Electron Energy =                -793.1387368287206527
    Two-Electron Energy =                 241.1070390732929241
    Total Energy =                       -499.1382323636672140
  Basis Set: (AUG-CC-PVTZ AUX)
    Blend: AUG-CC-PVTZ-RI
    Molecular point group: c1

    Geometry (in Angstrom), charge = 0, multiplicity = 1:

       Center              X                  Y                   Z               Mass
    ------------   -----------------  -----------------  -----------------  -----------------
         CL          -0.532060140027    -0.000000389869     0.000002285658    34.968852682000
         C            1.147474859973     0.000002410131    -0.000019414342    12.000000000000
         H            1.599389859973    -0.111053389869     1.024238285658     1.007825032230
         H            1.599455859973    -0.831583389869    -0.608199714342     1.007825032230
         H            1.599441859973     0.942621610131    -0.415886714342     1.007825032230

  Basis Set: AUG-CC-PVTZ
    Blend: AUG-CC-PVTZ
  Basis Set: (AUG-CC-PVTZ AUX)
    Blend: AUG-CC-PVTZ-JKFIT
	 Reference Energy          =    -499.1382323636672140 [Eh]
	 Singles Energy            =      -0.0000000000000000 [Eh]
	 Same-Spin Energy          =      -0.1005143267305752 [Eh]
	 Opposite-Spin Energy      =      -0.3368357428920546 [Eh]
	 Correlation Energy        =      -0.4373500696226299 [Eh]
	 Total Energy              =    -499.5755824332898669 [Eh]

	 ================> DF-SCS-MP2 Energies <==================
	-----------------------------------------------------------
	 SCS Same-Spin Scale       =       0.3333333333333333 [-]
	 SCS Opposite-Spin Scale   =       1.2000000000000000 [-]
	 SCS Same-Spin Energy      =      -0.0335047755768584 [Eh]
	 SCS Opposite-Spin Energy  =      -0.4042028914704656 [Eh]
	 SCS Correlation Energy    =      -0.4377076670473240 [Eh]
	 SCS Total Energy          =    -499.5759400307145484 [Eh]
	-----------------------------------------------------------

  Dipole Moment: [D]
     X:     1.6053      Y:    -0.0000      Z:     0.0001     Total:     1.6053

*** Psi4 exiting successfully. Buy a developer a beer!
