                               Psi4 1.3.2 release

  ==> Input File <==

--------------------------------------------------------------------------
#psi4
#
memory 32 gb

molecule  {
0 1
 Cl       -0.6563318     0.0250684     0.0183336
  C        1.1229320     0.0000030    -0.0000230
  H        1.4748470    -0.1110530     1.0242360
  H        1.4749130    -0.8315830    -0.6082020
  H        1.4748990     0.9426220    -0.4158890
units angstrom
no_reorient  #important for SAPT in psi4, default
symmetry c1  #important for SAPT in psi4, default
}

set PROPERTIES_ORIGIN ["COM"]
properties('MP2/aug-cc-pvtz', properties = ['dipole'])
--------------------------------------------------------------------------

    Molecular point group: c1
  Charge       = 0
  Multiplicity = 1
  Basis Set: AUG-CC-PVTZ
    Blend: AUG-CC-PVTZ
  Basis Set: (AUG-CC-PVTZ AUX)
    Blend: AUG-CC-PVTZ-JKFIT

    Orbital Energies [Eh]
    ---------------------

    Doubly Occupied:

       1A   -104.826965     2A    -11.291390     3A    -10.551267
       4A     -8.018180     5A     -8.016305     6A     -8.016302
       7A     -1.128666     8A     -0.914417     9A     -0.616761
      10A     -0.616536    11A     -0.547239    12A     -0.435994
      13A     -0.435603

  @DF-RHF Final Energy:  -499.14858194045962

   => Energetics <=

    Nuclear Repulsion Energy =             51.3703908442787949
    One-Electron Energy =                -790.2066929530425341
    Two-Electron Energy =                 239.6877201683041676
    Total Energy =                       -499.1485819404596214
  Basis Set: (AUG-CC-PVTZ AUX)
    Blend: AUG-CC-PVTZ-RI
    Molecular point group: c1

    Geometry (in Angstrom), charge = 0, multiplicity = 1:

       Center              X                  Y                   Z               Mass
    ------------   -----------------  -----------------  -----------------  -----------------
         CL          -0.555982323424     0.007533007751     0.005512130774    34.968852682000
         C            1.223281476576    -0.017532392249    -0.012844469226    12.000000000000
         H            1.575196476576    -0.128588392249     1.011414530774     1.007825032230
         H            1.575262476576    -0.849118392249    -0.621023469226     1.007825032230
         H            1.575248476576     0.925086607751    -0.428710469226     1.007825032230

  Basis Set: AUG-CC-PVTZ
    Blend: AUG-CC-PVTZ
  Basis Set: (AUG-CC-PVTZ AUX)
    Blend: AUG-CC-PVTZ-JKFIT
	 Reference Energy          =    -499.1485819404596214 [Eh]
	 Singles Energy            =      -0.0000000000000000 [Eh]
	 Same-Spin Energy          =      -0.0993636740002673 [Eh]
	 Opposite-Spin Energy      =      -0.3356831217793287 [Eh]
	 Correlation Energy        =      -0.4350467957795960 [Eh]
	 Total Energy              =    -499.5836287362392341 [Eh]

	 ================> DF-SCS-MP2 Energies <==================
	-----------------------------------------------------------
	 SCS Same-Spin Scale       =       0.3333333333333333 [-]
	 SCS Opposite-Spin Scale   =       1.2000000000000000 [-]
	 SCS Same-Spin Energy      =      -0.0331212246667558 [Eh]
	 SCS Opposite-Spin Energy  =      -0.4028197461351944 [Eh]
	 SCS Correlation Energy    =      -0.4359409708019502 [Eh]
	 SCS Total Energy          =    -499.5845229112615584 [Eh]
	-----------------------------------------------------------

  Dipole Moment: [D]
     X:     1.9093      Y:    -0.0216      Z:    -0.0157     Total:     1.9095

*** Psi4 exiting successfully. Buy a developer a beer!
