                               Psi4 1.4a3.dev225

  ==> Input File <==

--------------------------------------------------------------------------
#psi4
#
memory 32 gb

molecule  {
0 1
 Cl       -0.6563840     0.0000000     0.0000000
  C        1.1423120     0.0000010    -0.0000020
  H        1.4748890    -0.1793410     1.0140600
  H        1.4748870    -0.7885380    -0.6623380
  H        1.4748860     0.9678750    -0.3517150
units angstrom
no_reorient  #important for SAPT in psi4, default
symmetry c1  #important for SAPT in psi4, default
}

set PROPERTIES_ORIGIN ["COM"]
properties('MP2/aug-cc-pvtz', properties = ['dipole'])
--------------------------------------------------------------------------

    Molecular point group: c1
  Charge       = 0
  Multiplicity = 1
  Basis Set: AUG-CC-PVTZ
    Blend: AUG-CC-PVTZ
  Basis Set: (AUG-CC-PVTZ AUX)
    Blend: AUG-CC-PVTZ-JKFIT

    Orbital Energies [Eh]
    ---------------------

    Doubly Occupied:

       1A   -104.825632     2A    -11.291766     3A    -10.549705
       4A     -8.016576     5A     -8.014752     6A     -8.014752
       7A     -1.124113     8A     -0.917369     9A     -0.619827
      10A     -0.619824    11A     -0.541248    12A     -0.435863
      13A     -0.435862

  @DF-RHF Final Energy:  -499.14884894785877

   => Energetics <=

    Nuclear Repulsion Energy =             51.1021081759439753
    One-Electron Energy =                -789.6873336103909651
    Two-Electron Energy =                 239.4363764865882445
    Total Energy =                       -499.1488489478587667
  Basis Set: (AUG-CC-PVTZ AUX)
    Blend: AUG-CC-PVTZ-RI
    Molecular point group: c1

    Geometry (in Angstrom), charge = 0, multiplicity = 1:

       Center              X                  Y                   Z               Mass
    ------------   -----------------  -----------------  -----------------  -----------------
         CL          -0.560649984628    -0.000000159398     0.000000338957    34.968852682000
         C            1.238046015372     0.000000840602    -0.000001661043    12.000000000000
         H            1.570623015372    -0.179341159398     1.014060338957     1.007825032230
         H            1.570621015372    -0.788538159398    -0.662337661043     1.007825032230
         H            1.570620015372     0.967874840602    -0.351714661043     1.007825032230

  Basis Set: AUG-CC-PVTZ
    Blend: AUG-CC-PVTZ
  Basis Set: (AUG-CC-PVTZ AUX)
    Blend: AUG-CC-PVTZ-JKFIT
	 Reference Energy          =    -499.1488489478587667 [Eh]
	 Singles Energy            =      -0.0000000000000000 [Eh]
	 Same-Spin Energy          =      -0.0991906745656416 [Eh]
	 Opposite-Spin Energy      =      -0.3355255410661708 [Eh]
	 Correlation Energy        =      -0.4347162156318124 [Eh]
	 Total Energy              =    -499.5835651634905616 [Eh]

	 ================> DF-SCS-MP2 Energies <==================
	-----------------------------------------------------------
	 SCS Same-Spin Scale       =       0.3333333333333333 [-]
	 SCS Opposite-Spin Scale   =       1.2000000000000000 [-]
	 SCS Same-Spin Energy      =      -0.0330635581885472 [Eh]
	 SCS Opposite-Spin Energy  =      -0.4026306492794050 [Eh]
	 SCS Correlation Energy    =      -0.4356942074679522 [Eh]
	 SCS Total Energy          =    -499.5845431553267417 [Eh]
	-----------------------------------------------------------

  Dipole Moment: [D]
     X:     1.9679      Y:    -0.0000      Z:     0.0000     Total:     1.9679

*** Psi4 exiting successfully. Buy a developer a beer!
