                               Psi4 1.3.2 release

  ==> Input File <==

--------------------------------------------------------------------------
#psi4
#
memory 32 gb

molecule  {
0 1
 Cl       -0.6555193    -0.0501292    -0.0366616
  C        1.1229320     0.0000030    -0.0000230
  H        1.4748470    -0.1110530     1.0242360
  H        1.4749130    -0.8315830    -0.6082020
  H        1.4748990     0.9426220    -0.4158890
units angstrom
no_reorient  #important for SAPT in psi4, default
symmetry c1  #important for SAPT in psi4, default
}

set PROPERTIES_ORIGIN ["COM"]
properties('MP2/aug-cc-pvtz', properties = ['dipole'])
--------------------------------------------------------------------------

    Molecular point group: c1
  Charge       = 0
  Multiplicity = 1
  Basis Set: AUG-CC-PVTZ
    Blend: AUG-CC-PVTZ
  Basis Set: (AUG-CC-PVTZ AUX)
    Blend: AUG-CC-PVTZ-JKFIT

    Orbital Energies [Eh]
    ---------------------

    Doubly Occupied:

       1A   -104.826972     2A    -11.291384     3A    -10.551275
       4A     -8.018187     5A     -8.016313     6A     -8.016308
       7A     -1.128693     8A     -0.914408     9A     -0.616990
      10A     -0.616383    11A     -0.547166    12A     -0.436206
      13A     -0.435347

  @DF-RHF Final Energy:  -499.14845425093108

   => Energetics <=

    Nuclear Repulsion Energy =             51.3718126288146451
    One-Electron Energy =                -790.2092698204867247
    Two-Electron Energy =                 239.6890029407410623
    Total Energy =                       -499.1484542509310813
  Basis Set: (AUG-CC-PVTZ AUX)
    Blend: AUG-CC-PVTZ-RI
    Molecular point group: c1

    Geometry (in Angstrom), charge = 0, multiplicity = 1:

       Center              X                  Y                   Z               Mass
    ------------   -----------------  -----------------  -----------------  -----------------
         CL          -0.555738154487    -0.015065045213    -0.011014785542    34.968852682000
         C            1.222713145513     0.035067154787     0.025623814458    12.000000000000
         H            1.574628145513    -0.075988845213     1.049882814458     1.007825032230
         H            1.574694145513    -0.796518845213    -0.582555185542     1.007825032230
         H            1.574680145513     0.977686154787    -0.390242185542     1.007825032230

  Basis Set: AUG-CC-PVTZ
    Blend: AUG-CC-PVTZ
  Basis Set: (AUG-CC-PVTZ AUX)
    Blend: AUG-CC-PVTZ-JKFIT
	 Reference Energy          =    -499.1484542509310813 [Eh]
	 Singles Energy            =      -0.0000000000000000 [Eh]
	 Same-Spin Energy          =      -0.0993687405726145 [Eh]
	 Opposite-Spin Energy      =      -0.3356922876544448 [Eh]
	 Correlation Energy        =      -0.4350610282270593 [Eh]
	 Total Energy              =    -499.5835152791581208 [Eh]

	 ================> DF-SCS-MP2 Energies <==================
	-----------------------------------------------------------
	 SCS Same-Spin Scale       =       0.3333333333333333 [-]
	 SCS Opposite-Spin Scale   =       1.2000000000000000 [-]
	 SCS Same-Spin Energy      =      -0.0331229135242048 [Eh]
	 SCS Opposite-Spin Energy  =      -0.4028307451853337 [Eh]
	 SCS Correlation Energy    =      -0.4359536587095386 [Eh]
	 SCS Total Energy          =    -499.5844079096406176 [Eh]
	-----------------------------------------------------------

  Dipole Moment: [D]
     X:     1.9086      Y:     0.0430      Z:     0.0315     Total:     1.9093

*** Psi4 exiting successfully. Buy a developer a beer!
