                               Psi4 1.4a3.dev225

  ==> Input File <==

--------------------------------------------------------------------------
#psi4
#
memory 32 gb

molecule  {
0 1
 Cl       -0.6563840     0.0000000     0.0000000
  C        1.0723120     0.0000010    -0.0000019
  H        1.4748890    -0.1793410     1.0140600
  H        1.4748870    -0.7885380    -0.6623380
  H        1.4748860     0.9678750    -0.3517150
units angstrom
no_reorient  #important for SAPT in psi4, default
symmetry c1  #important for SAPT in psi4, default
}

set PROPERTIES_ORIGIN ["COM"]
properties('MP2/aug-cc-pvtz', properties = ['dipole'])
--------------------------------------------------------------------------

    Molecular point group: c1
  Charge       = 0
  Multiplicity = 1
  Basis Set: AUG-CC-PVTZ
    Blend: AUG-CC-PVTZ
  Basis Set: (AUG-CC-PVTZ AUX)
    Blend: AUG-CC-PVTZ-JKFIT

    Orbital Energies [Eh]
    ---------------------

    Doubly Occupied:

       1A   -104.830126     2A    -11.290506     3A    -10.555169
       4A     -8.022206     5A     -8.020169     6A     -8.020169
       7A     -1.141905     8A     -0.906870     9A     -0.609524
      10A     -0.609522    11A     -0.563304    12A     -0.434795
      13A     -0.434795

  @DF-RHF Final Energy:  -499.14551000217597

   => Energetics <=

    Nuclear Repulsion Energy =             52.1299980479584590
    One-Electron Energy =                -791.6728956064298472
    Two-Electron Energy =                 240.3973875562954277
    Total Energy =                       -499.1455100021759677
  Basis Set: (AUG-CC-PVTZ AUX)
    Blend: AUG-CC-PVTZ-RI
    Molecular point group: c1

    Geometry (in Angstrom), charge = 0, multiplicity = 1:

       Center              X                  Y                   Z               Mass
    ------------   -----------------  -----------------  -----------------  -----------------
         CL          -0.543847406366    -0.000000159398     0.000000314953    34.968852682000
         C            1.184848593634     0.000000840602    -0.000001585047    12.000000000000
         H            1.587425593634    -0.179341159398     1.014060314953     1.007825032230
         H            1.587423593634    -0.788538159398    -0.662337685047     1.007825032230
         H            1.587422593634     0.967874840602    -0.351714685047     1.007825032230

  Basis Set: AUG-CC-PVTZ
    Blend: AUG-CC-PVTZ
  Basis Set: (AUG-CC-PVTZ AUX)
    Blend: AUG-CC-PVTZ-JKFIT
	 Reference Energy          =    -499.1455100021759677 [Eh]
	 Singles Energy            =      -0.0000000000000000 [Eh]
	 Same-Spin Energy          =      -0.0998876143075433 [Eh]
	 Opposite-Spin Energy      =      -0.3361663712313392 [Eh]
	 Correlation Energy        =      -0.4360539855388825 [Eh]
	 Total Energy              =    -499.5815639877148442 [Eh]

	 ================> DF-SCS-MP2 Energies <==================
	-----------------------------------------------------------
	 SCS Same-Spin Scale       =       0.3333333333333333 [-]
	 SCS Opposite-Spin Scale   =       1.2000000000000000 [-]
	 SCS Same-Spin Energy      =      -0.0332958714358478 [Eh]
	 SCS Opposite-Spin Energy  =      -0.4033996454776070 [Eh]
	 SCS Correlation Energy    =      -0.4366955169134548 [Eh]
	 SCS Total Energy          =    -499.5822055190894275 [Eh]
	-----------------------------------------------------------

  Dipole Moment: [D]
     X:     1.7564      Y:    -0.0000      Z:     0.0000     Total:     1.7564

*** Psi4 exiting successfully. Buy a developer a beer!
