                               Psi4 1.3.2 release

  ==> Input File <==

--------------------------------------------------------------------------
#psi4
#
memory 32 gb

molecule  {
0 1
 Cl       -0.6522674     0.1001974     0.0732785
  C        1.1229320     0.0000030    -0.0000230
  H        1.4748470    -0.1110530     1.0242360
  H        1.4749130    -0.8315830    -0.6082020
  H        1.4748990     0.9426220    -0.4158890
units angstrom
no_reorient  #important for SAPT in psi4, default
symmetry c1  #important for SAPT in psi4, default
}

set PROPERTIES_ORIGIN ["COM"]
properties('MP2/aug-cc-pvtz', properties = ['dipole'])
--------------------------------------------------------------------------

    Molecular point group: c1
  Charge       = 0
  Multiplicity = 1
  Basis Set: AUG-CC-PVTZ
    Blend: AUG-CC-PVTZ
  Basis Set: (AUG-CC-PVTZ AUX)
    Blend: AUG-CC-PVTZ-JKFIT

    Orbital Energies [Eh]
    ---------------------

    Doubly Occupied:

       1A   -104.826996     2A    -11.291363     3A    -10.551301
       4A     -8.018213     5A     -8.016339     6A     -8.016328
       7A     -1.128798     8A     -0.914369     9A     -0.617194
      10A     -0.616485    11A     -0.546866    12A     -0.436383
      13A     -0.434992

  @DF-RHF Final Energy:  -499.14794805817240

   => Energetics <=

    Nuclear Repulsion Energy =             51.3774118229883925
    One-Electron Energy =                -790.2194663702872504
    Two-Electron Energy =                 239.6941064891264546
    Total Energy =                       -499.1479480581724033
  Basis Set: (AUG-CC-PVTZ AUX)
    Blend: AUG-CC-PVTZ-RI
    Molecular point group: c1

    Geometry (in Angstrom), charge = 0, multiplicity = 1:

       Center              X                  Y                   Z               Mass
    ------------   -----------------  -----------------  -----------------  -----------------
         CL          -0.554760907760     0.030110445344     0.022023931154    34.968852682000
         C            1.220438492240    -0.070083954656    -0.051277568846    12.000000000000
         H            1.572353492240    -0.181139954656     0.972981431154     1.007825032230
         H            1.572419492240    -0.901669954656    -0.659456568846     1.007825032230
         H            1.572405492240     0.872535045344    -0.467143568846     1.007825032230

  Basis Set: AUG-CC-PVTZ
    Blend: AUG-CC-PVTZ
  Basis Set: (AUG-CC-PVTZ AUX)
    Blend: AUG-CC-PVTZ-JKFIT
	 Reference Energy          =    -499.1479480581724033 [Eh]
	 Singles Energy            =      -0.0000000000000000 [Eh]
	 Same-Spin Energy          =      -0.0993884946381305 [Eh]
	 Opposite-Spin Energy      =      -0.3357289048814359 [Eh]
	 Correlation Energy        =      -0.4351173995195664 [Eh]
	 Total Energy              =    -499.5830654576919869 [Eh]

	 ================> DF-SCS-MP2 Energies <==================
	-----------------------------------------------------------
	 SCS Same-Spin Scale       =       0.3333333333333333 [-]
	 SCS Opposite-Spin Scale   =       1.2000000000000000 [-]
	 SCS Same-Spin Energy      =      -0.0331294982127102 [Eh]
	 SCS Opposite-Spin Energy  =      -0.4028746858577231 [Eh]
	 SCS Correlation Energy    =      -0.4360041840704332 [Eh]
	 SCS Total Energy          =    -499.5839522422428445 [Eh]
	-----------------------------------------------------------

  Dipole Moment: [D]
     X:     1.9058      Y:    -0.0862      Z:    -0.0629     Total:     1.9087

*** Psi4 exiting successfully. Buy a developer a beer!
