                               Psi4 1.3.2 release

  ==> Input File <==

--------------------------------------------------------------------------
#psi4
#
memory 32 gb

molecule  {
0 1
  S        2.2579180    -0.2726900    -0.2934460
  O       -2.2551230    -0.6936910    -0.5624970
  O       -0.5935940    -1.5242440     0.7320250
  N       -1.2606890     1.7473760     0.2743420
  C       -0.4950604     0.8469647    -0.1871575
  C        0.9828140     0.8061630     0.4219110
  C       -1.0384360    -0.6244090     0.0410490
  H       -0.2310720     0.7525000    -1.3524110
  H        1.3604600     1.8262100     0.3009430
  H        0.8701070     0.6147400     1.4903500
  H       -2.1754500     1.6690270    -0.1683570
  H       -0.8885410     2.6612730     0.0174870
  H        1.7688800    -1.4122240     0.2118940
  H       -2.6365250    -1.5573750    -0.2997250
units angstrom
no_reorient  #important for SAPT in psi4, default
symmetry c1  #important for SAPT in psi4, default
}

set PROPERTIES_ORIGIN ["COM"]
properties('MP2/aug-cc-pvtz', properties = ['dipole'])
--------------------------------------------------------------------------

    Molecular point group: c1
  Charge       = 0
  Multiplicity = 1
  Basis Set: AUG-CC-PVTZ
    Blend: AUG-CC-PVTZ
  Basis Set: (AUG-CC-PVTZ AUX)
    Blend: AUG-CC-PVTZ-JKFIT

    Orbital Energies [Eh]
    ---------------------

    Doubly Occupied:

       1A    -91.951632     2A    -20.624452     3A    -20.564435
       4A    -15.572824     5A    -11.398030     6A    -11.301144
       7A    -11.265857     8A     -8.952558     9A     -6.633928
      10A     -6.632950    11A     -6.631990    12A     -1.469862
      13A     -1.367521    14A     -1.289166    15A     -1.050253
      16A     -0.948858    17A     -0.873949    18A     -0.787766
      19A     -0.727702    20A     -0.711200    21A     -0.707219
      22A     -0.666479    23A     -0.622077    24A     -0.617446
      25A     -0.564731    26A     -0.535751    27A     -0.520751
      28A     -0.497222    29A     -0.474661    30A     -0.444628
      31A     -0.398214    32A     -0.355518

  @DF-RHF Final Energy:  -719.49105612830817

   => Energetics <=

    Nuclear Repulsion Energy =            379.9609463622944077
    One-Electron Energy =               -1744.5824568668847405
    Two-Electron Energy =                 645.1304543762821595
    Total Energy =                       -719.4910561283081734
  Basis Set: (AUG-CC-PVTZ AUX)
    Blend: AUG-CC-PVTZ-RI
    Molecular point group: c1

    Geometry (in Angstrom), charge = 0, multiplicity = 1:

       Center              X                  Y                   Z               Mass
    ------------   -----------------  -----------------  -----------------  -----------------
         S            2.254477573262    -0.249626840197    -0.299085726087    31.972071174400
         O           -2.258563426738    -0.670627840197    -0.568136726087    15.994914619570
         O           -0.597034426738    -1.501180840197     0.726385273913    15.994914619570
         N           -1.264129426738     1.770439159803     0.268702273913    14.003074004430
         C           -0.498500826738     0.870027859803    -0.192797226087    12.000000000000
         C            0.979373573262     0.829226159803     0.416271273913    12.000000000000
         C           -1.041876426738    -0.601345840197     0.035409273913    12.000000000000
         H           -0.234512426738     0.775563159803    -1.358050726087     1.007825032230
         H            1.357019573262     1.849273159803     0.295303273913     1.007825032230
         H            0.866666573262     0.637803159803     1.484710273913     1.007825032230
         H           -2.178890426738     1.692090159803    -0.173996726087     1.007825032230
         H           -0.891981426738     2.684336159803     0.011847273913     1.007825032230
         H            1.765439573262    -1.389160840197     0.206254273913     1.007825032230
         H           -2.639965426738    -1.534311840197    -0.305364726087     1.007825032230

  Basis Set: AUG-CC-PVTZ
    Blend: AUG-CC-PVTZ
  Basis Set: (AUG-CC-PVTZ AUX)
    Blend: AUG-CC-PVTZ-JKFIT
	 Reference Energy          =    -719.4910561283081734 [Eh]
	 Singles Energy            =      -0.0000000000000000 [Eh]
	 Same-Spin Energy          =      -0.3768170846451043 [Eh]
	 Opposite-Spin Energy      =      -1.1614428693118941 [Eh]
	 Correlation Energy        =      -1.5382599539569983 [Eh]
	 Total Energy              =    -721.0293160822651544 [Eh]

	 ================> DF-SCS-MP2 Energies <==================
	-----------------------------------------------------------
	 SCS Same-Spin Scale       =       0.3333333333333333 [-]
	 SCS Opposite-Spin Scale   =       1.2000000000000000 [-]
	 SCS Same-Spin Energy      =      -0.1256056948817014 [Eh]
	 SCS Opposite-Spin Energy  =      -1.3937314431742729 [Eh]
	 SCS Correlation Energy    =      -1.5193371380559744 [Eh]
	 SCS Total Energy          =    -721.0103932663641899 [Eh]
	-----------------------------------------------------------

  Dipole Moment: [D]
     X:    -2.3664      Y:     1.6249      Z:    -0.8973     Total:     3.0075

*** Psi4 exiting successfully. Buy a developer a beer!
