                               Psi4 1.3.2 release

  ==> Input File <==

--------------------------------------------------------------------------
#psi4
#
memory 32 gb

molecule  {
0 1
  S        2.2367266    -0.2832967    -0.3145198
  O       -2.2551230    -0.6936910    -0.5624970
  O       -0.5935940    -1.5242440     0.7320250
  N       -1.2606890     1.7473760     0.2743420
  C       -0.3743770     0.7050360    -0.2599020
  C        0.9828140     0.8061630     0.4219110
  C       -1.0384360    -0.6244090     0.0410490
  H       -0.2310720     0.7525000    -1.3524110
  H        1.3604600     1.8262100     0.3009430
  H        0.8701070     0.6147400     1.4903500
  H       -2.1754500     1.6690270    -0.1683570
  H       -0.8885410     2.6612730     0.0174870
  H        1.7688800    -1.4122240     0.2118940
  H       -2.6365250    -1.5573750    -0.2997250
units angstrom
no_reorient  #important for SAPT in psi4, default
symmetry c1  #important for SAPT in psi4, default
}

set PROPERTIES_ORIGIN ["COM"]
properties('MP2/aug-cc-pvtz', properties = ['dipole'])
--------------------------------------------------------------------------

    Molecular point group: c1
  Charge       = 0
  Multiplicity = 1
  Basis Set: AUG-CC-PVTZ
    Blend: AUG-CC-PVTZ
  Basis Set: (AUG-CC-PVTZ AUX)
    Blend: AUG-CC-PVTZ-JKFIT

    Orbital Energies [Eh]
    ---------------------

    Doubly Occupied:

       1A    -91.949377     2A    -20.628203     3A    -20.565364
       4A    -15.569686     5A    -11.401320     6A    -11.294373
       7A    -11.268613     8A     -8.951071     9A     -6.632455
      10A     -6.631510    11A     -6.630510    12A     -1.473418
      13A     -1.370639    14A     -1.216403    15A     -1.064043
      16A     -0.964445    17A     -0.880007    18A     -0.791194
      19A     -0.720232    20A     -0.716243    21A     -0.671827
      22A     -0.657112    23A     -0.623660    24A     -0.602692
      25A     -0.567351    26A     -0.557325    27A     -0.525967
      28A     -0.495111    29A     -0.474508    30A     -0.449859
      31A     -0.422765    32A     -0.359123

  @DF-RHF Final Energy:  -719.53867871801094

   => Energetics <=

    Nuclear Repulsion Energy =            380.6370588264215371
    One-Electron Energy =               -1746.0986610897693936
    Two-Electron Energy =                 645.9229235453369711
    Total Energy =                       -719.5386787180109422
  Basis Set: (AUG-CC-PVTZ AUX)
    Blend: AUG-CC-PVTZ-RI
    Molecular point group: c1

    Geometry (in Angstrom), charge = 0, multiplicity = 1:

       Center              X                  Y                   Z               Mass
    ------------   -----------------  -----------------  -----------------  -----------------
         S            2.226918056875    -0.243358091575    -0.307378909385    31.972071174400
         O           -2.264931543125    -0.653752391575    -0.555356109385    15.994914619570
         O           -0.603402543125    -1.484305391575     0.739165890615    15.994914619570
         N           -1.270497543125     1.787314608425     0.281482890615    14.003074004430
         C           -0.384185543125     0.744974608425    -0.252761109385    12.000000000000
         C            0.973005456875     0.846101608425     0.429051890615    12.000000000000
         C           -1.048244543125    -0.584470391575     0.048189890615    12.000000000000
         H           -0.240880543125     0.792438608425    -1.345270109385     1.007825032230
         H            1.350651456875     1.866148608425     0.308083890615     1.007825032230
         H            0.860298456875     0.654678608425     1.497490890615     1.007825032230
         H           -2.185258543125     1.708965608425    -0.161216109385     1.007825032230
         H           -0.898349543125     2.701211608425     0.024627890615     1.007825032230
         H            1.759071456875    -1.372285391575     0.219034890615     1.007825032230
         H           -2.646333543125    -1.517436391575    -0.292584109385     1.007825032230

  Basis Set: AUG-CC-PVTZ
    Blend: AUG-CC-PVTZ
  Basis Set: (AUG-CC-PVTZ AUX)
    Blend: AUG-CC-PVTZ-JKFIT
	 Reference Energy          =    -719.5386787180109422 [Eh]
	 Singles Energy            =      -0.0000000000000000 [Eh]
	 Same-Spin Energy          =      -0.3748382327843044 [Eh]
	 Opposite-Spin Energy      =      -1.1594150109411228 [Eh]
	 Correlation Energy        =      -1.5342532437254270 [Eh]
	 Total Energy              =    -721.0729319617363444 [Eh]

	 ================> DF-SCS-MP2 Energies <==================
	-----------------------------------------------------------
	 SCS Same-Spin Scale       =       0.3333333333333333 [-]
	 SCS Opposite-Spin Scale   =       1.2000000000000000 [-]
	 SCS Same-Spin Energy      =      -0.1249460775947681 [Eh]
	 SCS Opposite-Spin Energy  =      -1.3912980131293473 [Eh]
	 SCS Correlation Energy    =      -1.5162440907241155 [Eh]
	 SCS Total Energy          =    -721.0549228087351139 [Eh]
	-----------------------------------------------------------

  Dipole Moment: [D]
     X:    -2.0033      Y:     1.2878      Z:    -1.1816     Total:     2.6586

*** Psi4 exiting successfully. Buy a developer a beer!
