                               Psi4 1.4a3.dev225

  ==> Input File <==

--------------------------------------------------------------------------
#psi4
#
memory 32 gb

molecule  {
0 1
  S        2.2579050    -0.2727850    -0.2934720
  O       -2.2550500    -0.6937950    -0.5626610
  O       -0.5937490    -1.5240650     0.7322790
  N       -1.2606540     1.7474040     0.2743750
  C       -0.3743580     0.7050630    -0.2599560
  C        0.9828610     0.8061940     0.4218890
  C       -1.0472330    -0.6418876     0.0450336
  H       -0.2310980     0.7525420    -1.3524390
  H        1.3604840     1.8262480     0.3009370
  H        0.8701350     0.6147610     1.4903210
  H       -2.1753310     1.6691650    -0.1685200
  H       -0.8883350     2.6612490     0.0175910
  H        1.7689400    -1.4123290     0.2119310
  H       -2.6364810    -1.5574560    -0.2998170
units angstrom
no_reorient  #important for SAPT in psi4, default
symmetry c1  #important for SAPT in psi4, default
}

set PROPERTIES_ORIGIN ["COM"]
properties('MP2/aug-cc-pvtz', properties = ['dipole'])
--------------------------------------------------------------------------

    Molecular point group: c1
  Charge       = 0
  Multiplicity = 1
  Basis Set: AUG-CC-PVTZ
    Blend: AUG-CC-PVTZ
  Basis Set: (AUG-CC-PVTZ AUX)
    Blend: AUG-CC-PVTZ-JKFIT

    Orbital Energies [Eh]
    ---------------------

    Doubly Occupied:

       1A    -91.949659     2A    -20.630053     3A    -20.566378
       4A    -15.568610     5A    -11.399788     6A    -11.293825
       7A    -11.267445     8A     -8.951095     9A     -6.632462
      10A     -6.631522    11A     -6.630532    12A     -1.478846
      13A     -1.378391    14A     -1.214166    15A     -1.061907
      16A     -0.960229    17A     -0.878240    18A     -0.791249
      19A     -0.723240    20A     -0.715332    21A     -0.672380
      22A     -0.656735    23A     -0.626737    24A     -0.604763
      25A     -0.566314    26A     -0.555862    27A     -0.524981
      28A     -0.498690    29A     -0.473454    30A     -0.449342
      31A     -0.420968    32A     -0.358534

  @DF-RHF Final Energy:  -719.53975249896337

   => Energetics <=

    Nuclear Repulsion Energy =            380.1243244692040548
    One-Electron Energy =               -1745.0646934955063898
    Two-Electron Energy =                 645.4006165273389115
    Total Energy =                       -719.5397524989633666
  Basis Set: (AUG-CC-PVTZ AUX)
    Blend: AUG-CC-PVTZ-RI
    Molecular point group: c1

    Geometry (in Angstrom), charge = 0, multiplicity = 1:

       Center              X                  Y                   Z               Mass
    ------------   -----------------  -----------------  -----------------  -----------------
         S            2.243370101062    -0.233909478819    -0.292293509907    31.972071174400
         O           -2.269584898938    -0.654919478819    -0.561482509907    15.994914619570
         O           -0.608283898938    -1.485189478819     0.733457490093    15.994914619570
         N           -1.275188898938     1.786279521181     0.275553490093    14.003074004430
         C           -0.388892898938     0.743938521181    -0.258777509907    12.000000000000
         C            0.968326101062     0.845069521181     0.423067490093    12.000000000000
         C           -1.061767898938    -0.603012078819     0.046212090093    12.000000000000
         H           -0.245632898938     0.791417521181    -1.351260509907     1.007825032230
         H            1.345949101062     1.865123521181     0.302115490093     1.007825032230
         H            0.855600101062     0.653636521181     1.491499490093     1.007825032230
         H           -2.189865898938     1.708040521181    -0.167341509907     1.007825032230
         H           -0.902869898938     2.700124521181     0.018769490093     1.007825032230
         H            1.754405101062    -1.373453478819     0.213109490093     1.007825032230
         H           -2.651015898938    -1.518580478819    -0.298638509907     1.007825032230

  Basis Set: AUG-CC-PVTZ
    Blend: AUG-CC-PVTZ
  Basis Set: (AUG-CC-PVTZ AUX)
    Blend: AUG-CC-PVTZ-JKFIT
	 Reference Energy          =    -719.5397524989633666 [Eh]
	 Singles Energy            =      -0.0000000000000000 [Eh]
	 Same-Spin Energy          =      -0.3744226492213744 [Eh]
	 Opposite-Spin Energy      =      -1.1586497961987847 [Eh]
	 Correlation Energy        =      -1.5330724454201592 [Eh]
	 Total Energy              =    -721.0728249443835693 [Eh]

	 ================> DF-SCS-MP2 Energies <==================
	-----------------------------------------------------------
	 SCS Same-Spin Scale       =       0.3333333333333333 [-]
	 SCS Opposite-Spin Scale   =       1.2000000000000000 [-]
	 SCS Same-Spin Energy      =      -0.1248075497404581 [Eh]
	 SCS Opposite-Spin Energy  =      -1.3903797554385415 [Eh]
	 SCS Correlation Energy    =      -1.5151873051789997 [Eh]
	 SCS Total Energy          =    -721.0549398041423501 [Eh]
	-----------------------------------------------------------

  Dipole Moment: [D]
     X:    -2.0822      Y:     1.1977      Z:    -1.1939     Total:     2.6824

*** Psi4 exiting successfully. Buy a developer a beer!
