                               Psi4 1.3.2 release

  ==> Input File <==

--------------------------------------------------------------------------
#psi4
#
memory 32 gb

molecule  {
0 1
  S        2.2579180    -0.2726900    -0.2934460
  O       -2.2551230    -0.6936910    -0.5624970
  O       -0.5935940    -1.5242440     0.7320250
  N       -1.1580403     1.8496543     0.2229635
  C       -0.3743770     0.7050360    -0.2599020
  C        0.9828140     0.8061630     0.4219110
  C       -1.0384360    -0.6244090     0.0410490
  H       -0.2310720     0.7525000    -1.3524110
  H        1.3604600     1.8262100     0.3009430
  H        0.8701070     0.6147400     1.4903500
  H       -2.1754500     1.6690270    -0.1683570
  H       -0.8885410     2.6612730     0.0174870
  H        1.7688800    -1.4122240     0.2118940
  H       -2.6365250    -1.5573750    -0.2997250
units angstrom
no_reorient  #important for SAPT in psi4, default
symmetry c1  #important for SAPT in psi4, default
}

set PROPERTIES_ORIGIN ["COM"]
properties('MP2/aug-cc-pvtz', properties = ['dipole'])
--------------------------------------------------------------------------

    Molecular point group: c1
  Charge       = 0
  Multiplicity = 1
  Basis Set: AUG-CC-PVTZ
    Blend: AUG-CC-PVTZ
  Basis Set: (AUG-CC-PVTZ AUX)
    Blend: AUG-CC-PVTZ-JKFIT

    Orbital Energies [Eh]
    ---------------------

    Doubly Occupied:

       1A    -91.947847     2A    -20.631769     3A    -20.570201
       4A    -15.559466     5A    -11.406868     6A    -11.296593
       7A    -11.266615     8A     -8.949385     9A     -6.630755
      10A     -6.629817    11A     -6.628829    12A     -1.476927
      13A     -1.374579    14A     -1.222834    15A     -1.066038
      16A     -0.972631    17A     -0.878288    18A     -0.795686
      19A     -0.725162    20A     -0.717494    21A     -0.697339
      22A     -0.646605    23A     -0.627408    24A     -0.611277
      25A     -0.566724    26A     -0.554562    27A     -0.521814
      28A     -0.495756    29A     -0.480527    30A     -0.447636
      31A     -0.414878    32A     -0.356865

  @DF-RHF Final Energy:  -719.50983577230954

   => Energetics <=

    Nuclear Repulsion Energy =            379.8747923380085467
    One-Electron Energy =               -1744.4309091936529512
    Two-Electron Energy =                 645.0462810833348613
    Total Energy =                       -719.5098357723095432
  Basis Set: (AUG-CC-PVTZ AUX)
    Blend: AUG-CC-PVTZ-RI
    Molecular point group: c1

    Geometry (in Angstrom), charge = 0, multiplicity = 1:

       Center              X                  Y                   Z               Mass
    ------------   -----------------  -----------------  -----------------  -----------------
         S            2.230633546555    -0.247388083326    -0.285927618072    31.972071174400
         O           -2.282407453445    -0.668389083326    -0.554978618072    15.994914619570
         O           -0.620878453445    -1.498942083326     0.739543381928    15.994914619570
         N           -1.185324753445     1.874956216674     0.230481881928    14.003074004430
         C           -0.401661453445     0.730337916674    -0.252383618072    12.000000000000
         C            0.955529546555     0.831464916674     0.429429381928    12.000000000000
         C           -1.065720453445    -0.599107083326     0.048567381928    12.000000000000
         H           -0.258356453445     0.777801916674    -1.344892618072     1.007825032230
         H            1.333175546555     1.851511916674     0.308461381928     1.007825032230
         H            0.842822546555     0.640041916674     1.497868381928     1.007825032230
         H           -2.202734453445     1.694328916674    -0.160838618072     1.007825032230
         H           -0.915825453445     2.686574916674     0.025005381928     1.007825032230
         H            1.741595546555    -1.386922083326     0.219412381928     1.007825032230
         H           -2.663809453445    -1.532073083326    -0.292206618072     1.007825032230

  Basis Set: AUG-CC-PVTZ
    Blend: AUG-CC-PVTZ
  Basis Set: (AUG-CC-PVTZ AUX)
    Blend: AUG-CC-PVTZ-JKFIT
	 Reference Energy          =    -719.5098357723095432 [Eh]
	 Singles Energy            =      -0.0000000000000000 [Eh]
	 Same-Spin Energy          =      -0.3746735411922696 [Eh]
	 Opposite-Spin Energy      =      -1.1592918954263385 [Eh]
	 Correlation Energy        =      -1.5339654366186082 [Eh]
	 Total Energy              =    -721.0438012089281301 [Eh]

	 ================> DF-SCS-MP2 Energies <==================
	-----------------------------------------------------------
	 SCS Same-Spin Scale       =       0.3333333333333333 [-]
	 SCS Opposite-Spin Scale   =       1.2000000000000000 [-]
	 SCS Same-Spin Energy      =      -0.1248911803974232 [Eh]
	 SCS Opposite-Spin Energy  =      -1.3911502745116062 [Eh]
	 SCS Correlation Energy    =      -1.5160414549090295 [Eh]
	 SCS Total Energy          =    -721.0258772272185297 [Eh]
	-----------------------------------------------------------

  Dipole Moment: [D]
     X:    -2.2361      Y:     1.0929      Z:    -1.0867     Total:     2.7158

*** Psi4 exiting successfully. Buy a developer a beer!
