                               Psi4 1.3.2 release

  ==> Input File <==

--------------------------------------------------------------------------
#psi4
#
memory 32 gb

molecule  {
0 1
  S        2.2579180    -0.2726900    -0.2934460
  O       -2.2551230    -0.6936910    -0.5624970
  O       -0.5248558    -1.4759649     0.7454092
  N       -1.2606890     1.7473760     0.2743420
  C       -0.3743770     0.7050360    -0.2599020
  C        0.9828140     0.8061630     0.4219110
  C       -1.0384360    -0.6244090     0.0410490
  H       -0.2310720     0.7525000    -1.3524110
  H        1.3604600     1.8262100     0.3009430
  H        0.8701070     0.6147400     1.4903500
  H       -2.1754500     1.6690270    -0.1683570
  H       -0.8885410     2.6612730     0.0174870
  H        1.7688800    -1.4122240     0.2118940
  H       -2.6365250    -1.5573750    -0.2997250
units angstrom
no_reorient  #important for SAPT in psi4, default
symmetry c1  #important for SAPT in psi4, default
}

set PROPERTIES_ORIGIN ["COM"]
properties('MP2/aug-cc-pvtz', properties = ['dipole'])
--------------------------------------------------------------------------

    Molecular point group: c1
  Charge       = 0
  Multiplicity = 1
  Basis Set: AUG-CC-PVTZ
    Blend: AUG-CC-PVTZ
  Basis Set: (AUG-CC-PVTZ AUX)
    Blend: AUG-CC-PVTZ-JKFIT

    Orbital Energies [Eh]
    ---------------------

    Doubly Occupied:

       1A    -91.947716     2A    -20.635311     3A    -20.567072
       4A    -15.568175     5A    -11.402415     6A    -11.290632
       7A    -11.265825     8A     -8.949176     9A     -6.630548
      10A     -6.629611    11A     -6.628629    12A     -1.474400
      13A     -1.377444    14A     -1.214218    15A     -1.060722
      16A     -0.962969    17A     -0.878348    18A     -0.791878
      19A     -0.723168    20A     -0.716432    21A     -0.672059
      22A     -0.656257    23A     -0.625616    24A     -0.603677
      25A     -0.564603    26A     -0.554989    27A     -0.523981
      28A     -0.497859    29A     -0.473944    30A     -0.447694
      31A     -0.420391    32A     -0.356864

  @DF-RHF Final Energy:  -719.53661719558340

   => Energetics <=

    Nuclear Repulsion Energy =            380.9861990389259176
    One-Electron Energy =               -1746.8203907593049280
    Two-Electron Energy =                 646.2975745247956638
    Total Energy =                       -719.5366171955834034
  Basis Set: (AUG-CC-PVTZ AUX)
    Blend: AUG-CC-PVTZ-RI
    Molecular point group: c1

    Geometry (in Angstrom), charge = 0, multiplicity = 1:

       Center              X                  Y                   Z               Mass
    ------------   -----------------  -----------------  -----------------  -----------------
         S            2.233425947824    -0.241934506339    -0.293641533170    31.972071174400
         O           -2.279615052176    -0.662935506339    -0.562692533170    15.994914619570
         O           -0.549347852176    -1.445209406339     0.745213666830    15.994914619570
         N           -1.285181052176     1.778131493661     0.274146466830    14.003074004430
         C           -0.398869052176     0.735791493661    -0.260097533170    12.000000000000
         C            0.958321947824     0.836918493661     0.421715466830    12.000000000000
         C           -1.062928052176    -0.593653506339     0.040853466830    12.000000000000
         H           -0.255564052176     0.783255493661    -1.352606533170     1.007825032230
         H            1.335967947824     1.856965493661     0.300747466830     1.007825032230
         H            0.845614947824     0.645495493661     1.490154466830     1.007825032230
         H           -2.199942052176     1.699782493661    -0.168552533170     1.007825032230
         H           -0.913033052176     2.692028493661     0.017291466830     1.007825032230
         H            1.744387947824    -1.381468506339     0.211698466830     1.007825032230
         H           -2.661017052176    -1.526619506339    -0.299920533170     1.007825032230

  Basis Set: AUG-CC-PVTZ
    Blend: AUG-CC-PVTZ
  Basis Set: (AUG-CC-PVTZ AUX)
    Blend: AUG-CC-PVTZ-JKFIT
	 Reference Energy          =    -719.5366171955834034 [Eh]
	 Singles Energy            =      -0.0000000000000000 [Eh]
	 Same-Spin Energy          =      -0.3751637659508113 [Eh]
	 Opposite-Spin Energy      =      -1.1600287438562920 [Eh]
	 Correlation Energy        =      -1.5351925098071033 [Eh]
	 Total Energy              =    -721.0718097053904785 [Eh]

	 ================> DF-SCS-MP2 Energies <==================
	-----------------------------------------------------------
	 SCS Same-Spin Scale       =       0.3333333333333333 [-]
	 SCS Opposite-Spin Scale   =       1.2000000000000000 [-]
	 SCS Same-Spin Energy      =      -0.1250545886502704 [Eh]
	 SCS Opposite-Spin Energy  =      -1.3920344926275503 [Eh]
	 SCS Correlation Energy    =      -1.5170890812778208 [Eh]
	 SCS Total Energy          =    -721.0537062768612486 [Eh]
	-----------------------------------------------------------

  Dipole Moment: [D]
     X:    -2.2449      Y:     1.1086      Z:    -1.2152     Total:     2.7831

*** Psi4 exiting successfully. Buy a developer a beer!
