                               Psi4 1.3.2 release

  ==> Input File <==

--------------------------------------------------------------------------
#psi4
#
memory 32 gb

molecule  {
0 1
  S        2.2579180    -0.2726900    -0.2934460
  O       -2.2551230    -0.6936910    -0.5624970
  O       -0.5935940    -1.5242440     0.7320250
  N       -1.2606890     1.7473760     0.2743420
  C       -0.3743770     0.7050360    -0.2599020
  C        0.9828140     0.8061630     0.4219110
  C       -1.0384360    -0.6244090     0.0410490
  H       -0.2310720     0.7525000    -1.3524110
  H        1.3604600     1.8262100     0.3009430
  H        0.8701070     0.6147400     1.4903500
  H       -2.1754500     1.6690270    -0.1683570
  H       -0.8885410     2.6612730     0.0174870
  H        1.8419223    -1.2420241     0.1364168
  H       -2.6365250    -1.5573750    -0.2997250
units angstrom
no_reorient  #important for SAPT in psi4, default
symmetry c1  #important for SAPT in psi4, default
}

set PROPERTIES_ORIGIN ["COM"]
properties('MP2/aug-cc-pvtz', properties = ['dipole'])
--------------------------------------------------------------------------

    Molecular point group: c1
  Charge       = 0
  Multiplicity = 1
  Basis Set: AUG-CC-PVTZ
    Blend: AUG-CC-PVTZ
  Basis Set: (AUG-CC-PVTZ AUX)
    Blend: AUG-CC-PVTZ-JKFIT

    Orbital Energies [Eh]
    ---------------------

    Doubly Occupied:

       1A    -91.934388     2A    -20.628057     3A    -20.565343
       4A    -15.570073     5A    -11.401036     6A    -11.294948
       7A    -11.268664     8A     -8.943096     9A     -6.625394
      10A     -6.623042    11A     -6.621877    12A     -1.473227
      13A     -1.370301    14A     -1.216748    15A     -1.073054
      16A     -0.976844    17A     -0.896182    18A     -0.793672
      19A     -0.720049    20A     -0.716410    21A     -0.674304
      22A     -0.659369    23A     -0.624318    24A     -0.602771
      25A     -0.576972    26A     -0.557536    27A     -0.535697
      28A     -0.495695    29A     -0.474350    30A     -0.455869
      31A     -0.423038    32A     -0.361503

  @DF-RHF Final Energy:  -719.51196095448086

   => Energetics <=

    Nuclear Repulsion Energy =            381.3286494321341138
    One-Electron Energy =               -1747.3735585330198319
    Two-Electron Energy =                 646.5329481464048058
    Total Energy =                       -719.5119609544808554
  Basis Set: (AUG-CC-PVTZ AUX)
    Blend: AUG-CC-PVTZ-RI
    Molecular point group: c1

    Geometry (in Angstrom), charge = 0, multiplicity = 1:

       Center              X                  Y                   Z               Mass
    ------------   -----------------  -----------------  -----------------  -----------------
         S            2.241902645097    -0.236970949858    -0.291244015834    31.972071174400
         O           -2.271138354903    -0.657971949858    -0.560295015834    15.994914619570
         O           -0.609609354903    -1.488524949858     0.734226984166    15.994914619570
         N           -1.276704354903     1.783095050142     0.276543984166    14.003074004430
         C           -0.390392354903     0.740755050142    -0.257700015834    12.000000000000
         C            0.966798645097     0.841882050142     0.424112984166    12.000000000000
         C           -1.054451354903    -0.588689949858     0.043250984166    12.000000000000
         H           -0.247087354903     0.788219050142    -1.350209015834     1.007825032230
         H            1.344444645097     1.861929050142     0.303144984166     1.007825032230
         H            0.854091645097     0.650459050142     1.492551984166     1.007825032230
         H           -2.191465354903     1.704746050142    -0.166155015834     1.007825032230
         H           -0.904556354903     2.696992050142     0.019688984166     1.007825032230
         H            1.825906945097    -1.206305049858     0.138618784166     1.007825032230
         H           -2.652540354903    -1.521655949858    -0.297523015834     1.007825032230

  Basis Set: AUG-CC-PVTZ
    Blend: AUG-CC-PVTZ
  Basis Set: (AUG-CC-PVTZ AUX)
    Blend: AUG-CC-PVTZ-JKFIT
	 Reference Energy          =    -719.5119609544808554 [Eh]
	 Singles Energy            =      -0.0000000000000000 [Eh]
	 Same-Spin Energy          =      -0.3746722466467965 [Eh]
	 Opposite-Spin Energy      =      -1.1588774568521389 [Eh]
	 Correlation Energy        =      -1.5335497034989354 [Eh]
	 Total Energy              =    -721.0455106579797757 [Eh]

	 ================> DF-SCS-MP2 Energies <==================
	-----------------------------------------------------------
	 SCS Same-Spin Scale       =       0.3333333333333333 [-]
	 SCS Opposite-Spin Scale   =       1.2000000000000000 [-]
	 SCS Same-Spin Energy      =      -0.1248907488822655 [Eh]
	 SCS Opposite-Spin Energy  =      -1.3906529482225667 [Eh]
	 SCS Correlation Energy    =      -1.5155436971048322 [Eh]
	 SCS Total Energy          =    -721.0275046515856729 [Eh]
	-----------------------------------------------------------

  Dipole Moment: [D]
     X:    -1.9791      Y:     1.3224      Z:    -1.2281     Total:     2.6784

*** Psi4 exiting successfully. Buy a developer a beer!
