                               Psi4 1.4a3.dev225

  ==> Input File <==

--------------------------------------------------------------------------
#psi4
#
memory 32 gb

molecule  {
0 1
  S        2.2579050    -0.2727850    -0.2934720
  O       -2.2550500    -0.6937950    -0.5626610
  O       -0.5937490    -1.5240650     0.7322790
  N       -1.2606540     1.7474040     0.2743750
  C       -0.3743580     0.7050630    -0.2599560
  C        0.9828610     0.8061940     0.4218890
  C       -1.0384730    -0.6243520     0.0410630
  H       -0.2310980     0.7525420    -1.3524390
  H        1.3604840     1.8262480     0.3009370
  H        0.8701350     0.6147610     1.4903210
  H       -2.1753310     1.6691650    -0.1685200
  H       -0.8883350     2.6612490     0.0175910
  H        1.7506822    -1.4548792     0.2308026
  H       -2.6364810    -1.5574560    -0.2998170
units angstrom
no_reorient  #important for SAPT in psi4, default
symmetry c1  #important for SAPT in psi4, default
}

set PROPERTIES_ORIGIN ["COM"]
properties('MP2/aug-cc-pvtz', properties = ['dipole'])
--------------------------------------------------------------------------

    Molecular point group: c1
  Charge       = 0
  Multiplicity = 1
  Basis Set: AUG-CC-PVTZ
    Blend: AUG-CC-PVTZ
  Basis Set: (AUG-CC-PVTZ AUX)
    Blend: AUG-CC-PVTZ-JKFIT

    Orbital Energies [Eh]
    ---------------------

    Doubly Occupied:

       1A    -91.953239     2A    -20.628467     3A    -20.565685
       4A    -15.570016     5A    -11.401646     6A    -11.294758
       7A    -11.268460     8A     -8.953515     9A     -6.634800
      10A     -6.633902    11A     -6.632975    12A     -1.473712
      13A     -1.370968    14A     -1.216588    15A     -1.062188
      16A     -0.962878    17A     -0.875673    18A     -0.790430
      19A     -0.720480    20A     -0.716346    21A     -0.671565
      22A     -0.656654    23A     -0.623573    24A     -0.602852
      25A     -0.565617    26A     -0.557088    27A     -0.521345
      28A     -0.494880    29A     -0.474730    30A     -0.447836
      31A     -0.423019    32A     -0.358619

  @DF-RHF Final Energy:  -719.53692200487035

   => Energetics <=

    Nuclear Repulsion Energy =            379.9302511457407263
    One-Electron Energy =               -1744.6853373279734569
    Two-Electron Energy =                 645.2181641773624960
    Total Energy =                       -719.5369220048703482
  Basis Set: (AUG-CC-PVTZ AUX)
    Blend: AUG-CC-PVTZ-RI
    Molecular point group: c1

    Geometry (in Angstrom), charge = 0, multiplicity = 1:

       Center              X                  Y                   Z               Mass
    ------------   -----------------  -----------------  -----------------  -----------------
         S            2.242653529326    -0.235293914366    -0.292056954062    31.972071174400
         O           -2.270301470674    -0.656303914366    -0.561245954062    15.994914619570
         O           -0.609000470674    -1.486573914366     0.733694045938    15.994914619570
         N           -1.275905470674     1.784895085634     0.275790045938    14.003074004430
         C           -0.389609470674     0.742554085634    -0.258540954062    12.000000000000
         C            0.967609529326     0.843685085634     0.423304045938    12.000000000000
         C           -1.053724470674    -0.586860914366     0.042478045938    12.000000000000
         H           -0.246349470674     0.790033085634    -1.351023954062     1.007825032230
         H            1.345232529326     1.863739085634     0.302352045938     1.007825032230
         H            0.854883529326     0.652252085634     1.491736045938     1.007825032230
         H           -2.190582470674     1.706656085634    -0.167104954062     1.007825032230
         H           -0.903586470674     2.698740085634     0.019006045938     1.007825032230
         H            1.735430729326    -1.417388114366     0.232217645938     1.007825032230
         H           -2.651732470674    -1.519964914366    -0.298401954062     1.007825032230

  Basis Set: AUG-CC-PVTZ
    Blend: AUG-CC-PVTZ
  Basis Set: (AUG-CC-PVTZ AUX)
    Blend: AUG-CC-PVTZ-JKFIT
	 Reference Energy          =    -719.5369220048703482 [Eh]
	 Singles Energy            =      -0.0000000000000000 [Eh]
	 Same-Spin Energy          =      -0.3748782062780085 [Eh]
	 Opposite-Spin Energy      =      -1.1597635487586895 [Eh]
	 Correlation Energy        =      -1.5346417550366980 [Eh]
	 Total Energy              =    -721.0715637599070078 [Eh]

	 ================> DF-SCS-MP2 Energies <==================
	-----------------------------------------------------------
	 SCS Same-Spin Scale       =       0.3333333333333333 [-]
	 SCS Opposite-Spin Scale   =       1.2000000000000000 [-]
	 SCS Same-Spin Energy      =      -0.1249594020926695 [Eh]
	 SCS Opposite-Spin Energy  =      -1.3917162585104272 [Eh]
	 SCS Correlation Energy    =      -1.5166756606030967 [Eh]
	 SCS Total Energy          =    -721.0535976654734895 [Eh]
	-----------------------------------------------------------

  Dipole Moment: [D]
     X:    -2.0404      Y:     1.2734      Z:    -1.1989     Total:     2.6873

*** Psi4 exiting successfully. Buy a developer a beer!
