                               Psi4 1.3.2 release

  ==> Input File <==

--------------------------------------------------------------------------
#psi4
#
memory 32 gb

molecule  {
0 1
  S        2.2579180    -0.2726900    -0.2934460
  O       -2.2551230    -0.6936910    -0.5624970
  O       -0.5935940    -1.5242440     0.7320250
  N       -1.2606890     1.7473760     0.2743420
  C       -0.3569179     0.8585537    -0.2988086
  C        0.9828140     0.8061630     0.4219110
  C       -1.0384360    -0.6244090     0.0410490
  H       -0.2310720     0.7525000    -1.3524110
  H        1.3604600     1.8262100     0.3009430
  H        0.8701070     0.6147400     1.4903500
  H       -2.1754500     1.6690270    -0.1683570
  H       -0.8885410     2.6612730     0.0174870
  H        1.7688800    -1.4122240     0.2118940
  H       -2.6365250    -1.5573750    -0.2997250
units angstrom
no_reorient  #important for SAPT in psi4, default
symmetry c1  #important for SAPT in psi4, default
}

set PROPERTIES_ORIGIN ["COM"]
properties('MP2/aug-cc-pvtz', properties = ['dipole'])
--------------------------------------------------------------------------

    Molecular point group: c1
  Charge       = 0
  Multiplicity = 1
  Basis Set: AUG-CC-PVTZ
    Blend: AUG-CC-PVTZ
  Basis Set: (AUG-CC-PVTZ AUX)
    Blend: AUG-CC-PVTZ-JKFIT

    Orbital Energies [Eh]
    ---------------------

    Doubly Occupied:

       1A    -91.951607     2A    -20.623975     3A    -20.560776
       4A    -15.573362     5A    -11.394653     6A    -11.299113
       7A    -11.267128     8A     -8.952812     9A     -6.634180
      10A     -6.633231    11A     -6.632253    12A     -1.466079
      13A     -1.364340    14A     -1.242754    15A     -1.061718
      16A     -0.944188    17A     -0.872274    18A     -0.793359
      19A     -0.719491    20A     -0.708093    21A     -0.686409
      22A     -0.658432    23A     -0.620991    24A     -0.606971
      25A     -0.572467    26A     -0.543832    27A     -0.522270
      28A     -0.494020    29A     -0.470868    30A     -0.444357
      31A     -0.416157    32A     -0.359978

  @DF-RHF Final Energy:  -719.51618103078658

   => Energetics <=

    Nuclear Repulsion Energy =            378.7612937379241771
    One-Electron Energy =               -1742.3706754585518865
    Two-Electron Energy =                 644.0932006898410691
    Total Energy =                       -719.5161810307865835
  Basis Set: (AUG-CC-PVTZ AUX)
    Blend: AUG-CC-PVTZ-RI
    Molecular point group: c1

    Geometry (in Angstrom), charge = 0, multiplicity = 1:

       Center              X                  Y                   Z               Mass
    ------------   -----------------  -----------------  -----------------  -----------------
         S            2.240779726383    -0.250775974949    -0.288014696739    31.972071174400
         O           -2.272261273617    -0.671776974949    -0.557065696739    15.994914619570
         O           -0.610732273617    -1.502329974949     0.737456303261    15.994914619570
         N           -1.277827273617     1.769290025051     0.279773303261    14.003074004430
         C           -0.374056173617     0.880467725051    -0.293377296739    12.000000000000
         C            0.965675726383     0.828077025051     0.427342303261    12.000000000000
         C           -1.055574273617    -0.602494974949     0.046480303261    12.000000000000
         H           -0.248210273617     0.774414025051    -1.346979696739     1.007825032230
         H            1.343321726383     1.848124025051     0.306374303261     1.007825032230
         H            0.852968726383     0.636654025051     1.495781303261     1.007825032230
         H           -2.192588273617     1.690941025051    -0.162925696739     1.007825032230
         H           -0.905679273617     2.683187025051     0.022918303261     1.007825032230
         H            1.751741726383    -1.390309974949     0.217325303261     1.007825032230
         H           -2.653663273617    -1.535460974949    -0.294293696739     1.007825032230

  Basis Set: AUG-CC-PVTZ
    Blend: AUG-CC-PVTZ
  Basis Set: (AUG-CC-PVTZ AUX)
    Blend: AUG-CC-PVTZ-JKFIT
	 Reference Energy          =    -719.5161810307865835 [Eh]
	 Singles Energy            =      -0.0000000000000000 [Eh]
	 Same-Spin Energy          =      -0.3755882760893295 [Eh]
	 Opposite-Spin Energy      =      -1.1605348805643623 [Eh]
	 Correlation Energy        =      -1.5361231566536917 [Eh]
	 Total Energy              =    -721.0523041874403134 [Eh]

	 ================> DF-SCS-MP2 Energies <==================
	-----------------------------------------------------------
	 SCS Same-Spin Scale       =       0.3333333333333333 [-]
	 SCS Opposite-Spin Scale   =       1.2000000000000000 [-]
	 SCS Same-Spin Energy      =      -0.1251960920297765 [Eh]
	 SCS Opposite-Spin Energy  =      -1.3926418566772347 [Eh]
	 SCS Correlation Energy    =      -1.5178379487070113 [Eh]
	 SCS Total Energy          =    -721.0340189794935668 [Eh]
	-----------------------------------------------------------

  Dipole Moment: [D]
     X:    -2.1072      Y:     1.4522      Z:    -1.1758     Total:     2.8163

*** Psi4 exiting successfully. Buy a developer a beer!
