                               Psi4 1.3.2 release

  ==> Input File <==

--------------------------------------------------------------------------
#psi4
#
memory 32 gb

molecule  {
0 1
  S        2.3387367    -0.2270107    -0.2070368
  O       -2.2551230    -0.6936910    -0.5624970
  O       -0.5935940    -1.5242440     0.7320250
  N       -1.2606890     1.7473760     0.2743420
  C       -0.3743770     0.7050360    -0.2599020
  C        0.9828140     0.8061630     0.4219110
  C       -1.0384360    -0.6244090     0.0410490
  H       -0.2310720     0.7525000    -1.3524110
  H        1.3604600     1.8262100     0.3009430
  H        0.8701070     0.6147400     1.4903500
  H       -2.1754500     1.6690270    -0.1683570
  H       -0.8885410     2.6612730     0.0174870
  H        1.7688800    -1.4122240     0.2118940
  H       -2.6365250    -1.5573750    -0.2997250
units angstrom
no_reorient  #important for SAPT in psi4, default
symmetry c1  #important for SAPT in psi4, default
}

set PROPERTIES_ORIGIN ["COM"]
properties('MP2/aug-cc-pvtz', properties = ['dipole'])
--------------------------------------------------------------------------

    Molecular point group: c1
  Charge       = 0
  Multiplicity = 1
  Basis Set: AUG-CC-PVTZ
    Blend: AUG-CC-PVTZ
  Basis Set: (AUG-CC-PVTZ AUX)
    Blend: AUG-CC-PVTZ-JKFIT

    Orbital Energies [Eh]
    ---------------------

    Doubly Occupied:

       1A    -91.953545     2A    -20.629012     3A    -20.566499
       4A    -15.571187     5A    -11.402233     6A    -11.296460
       7A    -11.267775     8A     -8.953890     9A     -6.635179
      10A     -6.634241    11A     -6.633296    12A     -1.474292
      13A     -1.371521    14A     -1.217336    15A     -1.061684
      16A     -0.965646    17A     -0.876153    18A     -0.790220
      19A     -0.720854    20A     -0.716731    21A     -0.672304
      22A     -0.657313    23A     -0.623769    24A     -0.603484
      25A     -0.567578    26A     -0.556911    27A     -0.518142
      28A     -0.495339    29A     -0.475104    30A     -0.450783
      31A     -0.423885    32A     -0.358619

  @DF-RHF Final Energy:  -719.53680375700583

   => Energetics <=

    Nuclear Repulsion Energy =            378.3906315448033979
    One-Electron Energy =               -1741.5729061920069398
    Two-Electron Energy =                 643.6454708901976574
    Total Energy =                       -719.5368037570058277
  Basis Set: (AUG-CC-PVTZ AUX)
    Blend: AUG-CC-PVTZ-RI
    Molecular point group: c1

    Geometry (in Angstrom), charge = 0, multiplicity = 1:

       Center              X                  Y                   Z               Mass
    ------------   -----------------  -----------------  -----------------  -----------------
         S            2.301978223601    -0.201942226437    -0.228291721938    31.972071174400
         O           -2.291881476399    -0.668622526437    -0.583751921938    15.994914619570
         O           -0.630352476399    -1.499175526437     0.710770078062    15.994914619570
         N           -1.297447476399     1.772444473563     0.253087078062    14.003074004430
         C           -0.411135476399     0.730104473563    -0.281156921938    12.000000000000
         C            0.946055523601     0.831231473563     0.400656078062    12.000000000000
         C           -1.075194476399    -0.599340526437     0.019794078062    12.000000000000
         H           -0.267830476399     0.777568473563    -1.373665921938     1.007825032230
         H            1.323701523601     1.851278473563     0.279688078062     1.007825032230
         H            0.833348523601     0.639808473563     1.469095078062     1.007825032230
         H           -2.212208476399     1.694095473563    -0.189611921938     1.007825032230
         H           -0.925299476399     2.686341473563    -0.003767921938     1.007825032230
         H            1.732121523601    -1.387155526437     0.190639078062     1.007825032230
         H           -2.673283476399    -1.532306526437    -0.320979921938     1.007825032230

  Basis Set: AUG-CC-PVTZ
    Blend: AUG-CC-PVTZ
  Basis Set: (AUG-CC-PVTZ AUX)
    Blend: AUG-CC-PVTZ-JKFIT
	 Reference Energy          =    -719.5368037570058277 [Eh]
	 Singles Energy            =      -0.0000000000000000 [Eh]
	 Same-Spin Energy          =      -0.3747289526658212 [Eh]
	 Opposite-Spin Energy      =      -1.1595951090151446 [Eh]
	 Correlation Energy        =      -1.5343240616809659 [Eh]
	 Total Energy              =    -721.0711278186868185 [Eh]

	 ================> DF-SCS-MP2 Energies <==================
	-----------------------------------------------------------
	 SCS Same-Spin Scale       =       0.3333333333333333 [-]
	 SCS Opposite-Spin Scale   =       1.2000000000000000 [-]
	 SCS Same-Spin Energy      =      -0.1249096508886071 [Eh]
	 SCS Opposite-Spin Energy  =      -1.3915141308181735 [Eh]
	 SCS Correlation Energy    =      -1.5164237817067807 [Eh]
	 SCS Total Energy          =    -721.0532275387125765 [Eh]
	-----------------------------------------------------------

  Dipole Moment: [D]
     X:    -2.1057      Y:     1.2617      Z:    -1.3018     Total:     2.7785

*** Psi4 exiting successfully. Buy a developer a beer!
