                               Psi4 1.3.2 release

  ==> Input File <==

--------------------------------------------------------------------------
#psi4
#
memory 32 gb

molecule  {
0 1
  S        2.2579180    -0.2726900    -0.2934460
  O       -2.2551230    -0.6936910    -0.5624970
  O       -0.5935940    -1.5242440     0.7320250
  N       -1.2606890     1.7473760     0.2743420
  C       -0.3743770     0.7050360    -0.2599020
  C        0.9828140     0.8061630     0.4219110
  C       -0.9946394    -0.5367284     0.0212004
  H       -0.2310720     0.7525000    -1.3524110
  H        1.3604600     1.8262100     0.3009430
  H        0.8701070     0.6147400     1.4903500
  H       -2.1754500     1.6690270    -0.1683570
  H       -0.8885410     2.6612730     0.0174870
  H        1.7688800    -1.4122240     0.2118940
  H       -2.6365250    -1.5573750    -0.2997250
units angstrom
no_reorient  #important for SAPT in psi4, default
symmetry c1  #important for SAPT in psi4, default
}

set PROPERTIES_ORIGIN ["COM"]
properties('MP2/aug-cc-pvtz', properties = ['dipole'])
--------------------------------------------------------------------------

    Molecular point group: c1
  Charge       = 0
  Multiplicity = 1
  Basis Set: AUG-CC-PVTZ
    Blend: AUG-CC-PVTZ
  Basis Set: (AUG-CC-PVTZ AUX)
    Blend: AUG-CC-PVTZ-JKFIT

    Orbital Energies [Eh]
    ---------------------

    Doubly Occupied:

       1A    -91.952540     2A    -20.619938     3A    -20.562171
       4A    -15.577372     5A    -11.411132     6A    -11.297375
       7A    -11.273862     8A     -8.953999     9A     -6.635357
      10A     -6.634427    11A     -6.633434    12A     -1.447572
      13A     -1.333881    14A     -1.230038    15A     -1.073396
      16A     -0.989094    17A     -0.884583    18A     -0.788761
      19A     -0.724795    20A     -0.706591    21A     -0.674395
      22A     -0.657679    23A     -0.608454    24A     -0.589369
      25A     -0.577209    26A     -0.561100    27A     -0.525182
      28A     -0.479378    29A     -0.473161    30A     -0.450953
      31A     -0.432230    32A     -0.361955

  @DF-RHF Final Energy:  -719.51545615705595

   => Energetics <=

    Nuclear Repulsion Energy =            380.4731741061029311
    One-Electron Energy =               -1745.7344889960800174
    Two-Electron Energy =                 645.7458587329210786
    Total Energy =                       -719.5154561570559508
  Basis Set: (AUG-CC-PVTZ AUX)
    Blend: AUG-CC-PVTZ-RI
    Molecular point group: c1

    Geometry (in Angstrom), charge = 0, multiplicity = 1:

       Center              X                  Y                   Z               Mass
    ------------   -----------------  -----------------  -----------------  -----------------
         S            2.238168169171    -0.244247741315    -0.289904437882    31.972071174400
         O           -2.274872830829    -0.665248741315    -0.558955437882    15.994914619570
         O           -0.613343830829    -1.495801741315     0.735566562118    15.994914619570
         N           -1.280438830829     1.775818258685     0.277883562118    14.003074004430
         C           -0.394126830829     0.733478258685    -0.256360437882    12.000000000000
         C            0.963064169171     0.834605258685     0.425452562118    12.000000000000
         C           -1.014389230829    -0.508286141315     0.024741962118    12.000000000000
         H           -0.250821830829     0.780942258685    -1.348869437882     1.007825032230
         H            1.340710169171     1.854652258685     0.304484562118     1.007825032230
         H            0.850357169171     0.643182258685     1.493891562118     1.007825032230
         H           -2.195199830829     1.697469258685    -0.164815437882     1.007825032230
         H           -0.908290830829     2.689715258685     0.021028562118     1.007825032230
         H            1.749130169171    -1.383781741315     0.215435562118     1.007825032230
         H           -2.656274830829    -1.528932741315    -0.296183437882     1.007825032230

  Basis Set: AUG-CC-PVTZ
    Blend: AUG-CC-PVTZ
  Basis Set: (AUG-CC-PVTZ AUX)
    Blend: AUG-CC-PVTZ-JKFIT
	 Reference Energy          =    -719.5154561570559508 [Eh]
	 Singles Energy            =      -0.0000000000000000 [Eh]
	 Same-Spin Energy          =      -0.3774167432137951 [Eh]
	 Opposite-Spin Energy      =      -1.1646113719967754 [Eh]
	 Correlation Energy        =      -1.5420281152105706 [Eh]
	 Total Energy              =    -721.0574842722664926 [Eh]

	 ================> DF-SCS-MP2 Energies <==================
	-----------------------------------------------------------
	 SCS Same-Spin Scale       =       0.3333333333333333 [-]
	 SCS Opposite-Spin Scale   =       1.2000000000000000 [-]
	 SCS Same-Spin Energy      =      -0.1258055810712650 [Eh]
	 SCS Opposite-Spin Energy  =      -1.3975336463961305 [Eh]
	 SCS Correlation Energy    =      -1.5233392274673956 [Eh]
	 SCS Total Energy          =    -721.0387953845233824 [Eh]
	-----------------------------------------------------------

  Dipole Moment: [D]
     X:    -1.7242      Y:     1.6855      Z:    -1.2488     Total:     2.7154

*** Psi4 exiting successfully. Buy a developer a beer!
