                               Psi4 1.4a3.dev225

  ==> Input File <==

--------------------------------------------------------------------------
#psi4
#
memory 32 gb

molecule  {
0 1
  S        2.2579050    -0.2727850    -0.2934720
  O       -2.2550500    -0.6937950    -0.5626610
  O       -0.5937490    -1.5240650     0.7322790
  N       -1.2606540     1.7474040     0.2743750
  C       -0.3743580     0.7050630    -0.2599560
  C        1.0274410     0.8095158     0.4442853
  C       -1.0384730    -0.6243520     0.0410630
  H       -0.2310980     0.7525420    -1.3524390
  H        1.3604840     1.8262480     0.3009370
  H        0.8701350     0.6147610     1.4903210
  H       -2.1753310     1.6691650    -0.1685200
  H       -0.8883350     2.6612490     0.0175910
  H        1.7689400    -1.4123290     0.2119310
  H       -2.6364810    -1.5574560    -0.2998170
units angstrom
no_reorient  #important for SAPT in psi4, default
symmetry c1  #important for SAPT in psi4, default
}

set PROPERTIES_ORIGIN ["COM"]
properties('MP2/aug-cc-pvtz', properties = ['dipole'])
--------------------------------------------------------------------------

    Molecular point group: c1
  Charge       = 0
  Multiplicity = 1
  Basis Set: AUG-CC-PVTZ
    Blend: AUG-CC-PVTZ
  Basis Set: (AUG-CC-PVTZ AUX)
    Blend: AUG-CC-PVTZ-JKFIT

    Orbital Energies [Eh]
    ---------------------

    Doubly Occupied:

       1A    -91.950216     2A    -20.627983     3A    -20.564971
       4A    -15.569547     5A    -11.400987     6A    -11.295881
       7A    -11.267680     8A     -8.951961     9A     -6.633361
      10A     -6.632424    11A     -6.631414    12A     -1.473087
      13A     -1.370243    14A     -1.213618    15A     -1.062548
      16A     -0.964589    17A     -0.877309    18A     -0.792068
      19A     -0.719795    20A     -0.714433    21A     -0.670375
      22A     -0.656612    23A     -0.625096    24A     -0.601429
      25A     -0.571860    26A     -0.547419    27A     -0.530729
      28A     -0.495292    29A     -0.475846    30A     -0.450957
      31A     -0.421397    32A     -0.357713

  @DF-RHF Final Energy:  -719.53711032208662

   => Energetics <=

    Nuclear Repulsion Energy =            379.6667829682574506
    One-Electron Energy =               -1744.1701054406482854
    Two-Electron Energy =                 644.9662121503042727
    Total Energy =                       -719.5371103220866189
  Basis Set: (AUG-CC-PVTZ AUX)
    Blend: AUG-CC-PVTZ-RI
    Molecular point group: c1

    Geometry (in Angstrom), charge = 0, multiplicity = 1:

       Center              X                  Y                   Z               Mass
    ------------   -----------------  -----------------  -----------------  -----------------
         S            2.238081046987    -0.235977643732    -0.294120553845    31.972071174400
         O           -2.274873953013    -0.656987643732    -0.563309553845    15.994914619570
         O           -0.613572953013    -1.487257643732     0.731630446155    15.994914619570
         N           -1.280477953013     1.784211356268     0.273726446155    14.003074004430
         C           -0.394181953013     0.741870356268    -0.260604553845    12.000000000000
         C            1.007617046987     0.846323156268     0.443636746155    12.000000000000
         C           -1.058296953013    -0.587544643732     0.040414446155    12.000000000000
         H           -0.250921953013     0.789349356268    -1.353087553845     1.007825032230
         H            1.340660046987     1.863055356268     0.300288446155     1.007825032230
         H            0.850311046987     0.651568356268     1.489672446155     1.007825032230
         H           -2.195154953013     1.705972356268    -0.169168553845     1.007825032230
         H           -0.908158953013     2.698056356268     0.016942446155     1.007825032230
         H            1.749116046987    -1.375521643732     0.211282446155     1.007825032230
         H           -2.656304953013    -1.520648643732    -0.300465553845     1.007825032230

  Basis Set: AUG-CC-PVTZ
    Blend: AUG-CC-PVTZ
  Basis Set: (AUG-CC-PVTZ AUX)
    Blend: AUG-CC-PVTZ-JKFIT
	 Reference Energy          =    -719.5371103220866189 [Eh]
	 Singles Energy            =      -0.0000000000000000 [Eh]
	 Same-Spin Energy          =      -0.3745901161944820 [Eh]
	 Opposite-Spin Energy      =      -1.1591776989750830 [Eh]
	 Correlation Energy        =      -1.5337678151695651 [Eh]
	 Total Energy              =    -721.0708781372561589 [Eh]

	 ================> DF-SCS-MP2 Energies <==================
	-----------------------------------------------------------
	 SCS Same-Spin Scale       =       0.3333333333333333 [-]
	 SCS Opposite-Spin Scale   =       1.2000000000000000 [-]
	 SCS Same-Spin Energy      =      -0.1248633720648273 [Eh]
	 SCS Opposite-Spin Energy  =      -1.3910132387700995 [Eh]
	 SCS Correlation Energy    =      -1.5158766108349269 [Eh]
	 SCS Total Energy          =    -721.0529869329214989 [Eh]
	-----------------------------------------------------------

  Dipole Moment: [D]
     X:    -1.9966      Y:     1.2768      Z:    -1.2112     Total:     2.6615

*** Psi4 exiting successfully. Buy a developer a beer!
