                               Psi4 1.3.2 release

  ==> Input File <==

--------------------------------------------------------------------------
#psi4
#
memory 32 gb

molecule  {
0 1
  S        2.2579180    -0.2726900    -0.2934460
  O       -2.2649361    -0.7804631    -0.5252897
  O       -0.5935940    -1.5242440     0.7320250
  N       -1.2606890     1.7473760     0.2743420
  C       -0.3743770     0.7050360    -0.2599020
  C        0.9828140     0.8061630     0.4219110
  C       -1.0384360    -0.6244090     0.0410490
  H       -0.2310720     0.7525000    -1.3524110
  H        1.3604600     1.8262100     0.3009430
  H        0.8701070     0.6147400     1.4903500
  H       -2.1754500     1.6690270    -0.1683570
  H       -0.8885410     2.6612730     0.0174870
  H        1.7688800    -1.4122240     0.2118940
  H       -2.6365250    -1.5573750    -0.2997250
units angstrom
no_reorient  #important for SAPT in psi4, default
symmetry c1  #important for SAPT in psi4, default
}

set PROPERTIES_ORIGIN ["COM"]
properties('MP2/aug-cc-pvtz', properties = ['dipole'])
--------------------------------------------------------------------------

    Molecular point group: c1
  Charge       = 0
  Multiplicity = 1
  Basis Set: AUG-CC-PVTZ
    Blend: AUG-CC-PVTZ
  Basis Set: (AUG-CC-PVTZ AUX)
    Blend: AUG-CC-PVTZ-JKFIT

    Orbital Energies [Eh]
    ---------------------

    Doubly Occupied:

       1A    -91.951061     2A    -20.614696     3A    -20.561232
       4A    -15.572358     5A    -11.401839     6A    -11.299342
       7A    -11.270712     8A     -8.952506     9A     -6.633869
      10A     -6.632933    11A     -6.631940    12A     -1.483334
      13A     -1.371613    14A     -1.219611    15A     -1.065423
      16A     -0.970838    17A     -0.888791    18A     -0.808937
      19A     -0.721552    20A     -0.716762    21A     -0.672243
      22A     -0.660005    23A     -0.622528    24A     -0.602418
      25A     -0.569246    26A     -0.560724    27A     -0.525096
      28A     -0.492162    29A     -0.474374    30A     -0.450686
      31A     -0.425196    32A     -0.360194

  @DF-RHF Final Energy:  -719.53541684539528

   => Energetics <=

    Nuclear Repulsion Energy =            380.1449421122558192
    One-Electron Energy =               -1744.9922737344181769
    Two-Electron Energy =                 645.3119147767670256
    Total Energy =                       -719.5354168453952752
  Basis Set: (AUG-CC-PVTZ AUX)
    Blend: AUG-CC-PVTZ-RI
    Molecular point group: c1

    Geometry (in Angstrom), charge = 0, multiplicity = 1:

       Center              X                  Y                   Z               Mass
    ------------   -----------------  -----------------  -----------------  -----------------
         S            2.243807900691    -0.224085085731    -0.296790179995    31.972071174400
         O           -2.279046199309    -0.731858185731    -0.528633879995    15.994914619570
         O           -0.607704099309    -1.475639085731     0.728680820005    15.994914619570
         N           -1.274799099309     1.795980914269     0.270997820005    14.003074004430
         C           -0.388487099309     0.753640914269    -0.263246179995    12.000000000000
         C            0.968703900691     0.854767914269     0.418566820005    12.000000000000
         C           -1.052546099309    -0.575804085731     0.037704820005    12.000000000000
         H           -0.245182099309     0.801104914269    -1.355755179995     1.007825032230
         H            1.346349900691     1.874814914269     0.297598820005     1.007825032230
         H            0.855996900691     0.663344914269     1.487005820005     1.007825032230
         H           -2.189560099309     1.717631914269    -0.171701179995     1.007825032230
         H           -0.902651099309     2.709877914269     0.014142820005     1.007825032230
         H            1.754769900691    -1.363619085731     0.208549820005     1.007825032230
         H           -2.650635099309    -1.508770085731    -0.303069179995     1.007825032230

  Basis Set: AUG-CC-PVTZ
    Blend: AUG-CC-PVTZ
  Basis Set: (AUG-CC-PVTZ AUX)
    Blend: AUG-CC-PVTZ-JKFIT
	 Reference Energy          =    -719.5354168453952752 [Eh]
	 Singles Energy            =      -0.0000000000000000 [Eh]
	 Same-Spin Energy          =      -0.3730930712429798 [Eh]
	 Opposite-Spin Energy      =      -1.1559356629229516 [Eh]
	 Correlation Energy        =      -1.5290287341659314 [Eh]
	 Total Energy              =    -721.0644455795611520 [Eh]

	 ================> DF-SCS-MP2 Energies <==================
	-----------------------------------------------------------
	 SCS Same-Spin Scale       =       0.3333333333333333 [-]
	 SCS Opposite-Spin Scale   =       1.2000000000000000 [-]
	 SCS Same-Spin Energy      =      -0.1243643570809933 [Eh]
	 SCS Opposite-Spin Energy  =      -1.3871227955075418 [Eh]
	 SCS Correlation Energy    =      -1.5114871525885352 [Eh]
	 SCS Total Energy          =    -721.0469039979838044 [Eh]
	-----------------------------------------------------------

  Dipole Moment: [D]
     X:    -1.9049      Y:     1.4585      Z:    -1.2241     Total:     2.6934

*** Psi4 exiting successfully. Buy a developer a beer!
