                               Psi4 1.4a3.dev225

  ==> Input File <==

--------------------------------------------------------------------------
#psi4
#
memory 32 gb

molecule  {
0 1
  S        2.2579050    -0.2727850    -0.2934720
  O       -2.2550500    -0.6937950    -0.5626610
  O       -0.5937490    -1.5240650     0.7322790
  N       -1.2606540     1.7474040     0.2743750
  C       -0.3743580     0.7050630    -0.2599560
  C        0.9828610     0.8061940     0.4218890
  C       -1.0603730    -0.6681910     0.0509894
  H       -0.2310980     0.7525420    -1.3524390
  H        1.3604840     1.8262480     0.3009370
  H        0.8701350     0.6147610     1.4903210
  H       -2.1753310     1.6691650    -0.1685200
  H       -0.8883350     2.6612490     0.0175910
  H        1.7689400    -1.4123290     0.2119310
  H       -2.6364810    -1.5574560    -0.2998170
units angstrom
no_reorient  #important for SAPT in psi4, default
symmetry c1  #important for SAPT in psi4, default
}

set PROPERTIES_ORIGIN ["COM"]
properties('MP2/aug-cc-pvtz', properties = ['dipole'])
--------------------------------------------------------------------------

    Molecular point group: c1
  Charge       = 0
  Multiplicity = 1
  Basis Set: AUG-CC-PVTZ
    Blend: AUG-CC-PVTZ
  Basis Set: (AUG-CC-PVTZ AUX)
    Blend: AUG-CC-PVTZ-JKFIT

    Orbital Energies [Eh]
    ---------------------

    Doubly Occupied:

       1A    -91.948948     2A    -20.632636     3A    -20.567706
       4A    -15.566515     5A    -11.397483     6A    -11.292081
       7A    -11.265907     8A     -8.950378     9A     -6.631747
      10A     -6.630804    11A     -6.629815    12A     -1.486781
      13A     -1.389847    14A     -1.210633    15A     -1.059591
      16A     -0.953813    17A     -0.876644    18A     -0.791389
      19A     -0.727714    20A     -0.714295    21A     -0.673737
      22A     -0.655844    23A     -0.631171    24A     -0.607184
      25A     -0.565312    26A     -0.553881    27A     -0.525553
      28A     -0.503724    29A     -0.470897    30A     -0.448037
      31A     -0.417681    32A     -0.357668

  @DF-RHF Final Energy:  -719.53902246190717

   => Energetics <=

    Nuclear Repulsion Energy =            380.0600971799164540
    One-Electron Energy =               -1744.9274087091496312
    Two-Electron Energy =                 645.3282890673259544
    Total Energy =                       -719.5390224619071660
  Basis Set: (AUG-CC-PVTZ AUX)
    Blend: AUG-CC-PVTZ-RI
    Molecular point group: c1

    Geometry (in Angstrom), charge = 0, multiplicity = 1:

       Center              X                  Y                   Z               Mass
    ------------   -----------------  -----------------  -----------------  -----------------
         S            2.244673028894    -0.231301302873    -0.292884071366    31.972071174400
         O           -2.268281971106    -0.652311302873    -0.562073071366    15.994914619570
         O           -0.606980971106    -1.482581302873     0.732866928634    15.994914619570
         N           -1.273885971106     1.788887697127     0.274962928634    14.003074004430
         C           -0.387589971106     0.746546697127    -0.259368071366    12.000000000000
         C            0.969629028894     0.847677697127     0.422476928634    12.000000000000
         C           -1.073604971106    -0.626707302873     0.051577328634    12.000000000000
         H           -0.244329971106     0.794025697127    -1.351851071366     1.007825032230
         H            1.347252028894     1.867731697127     0.301524928634     1.007825032230
         H            0.856903028894     0.656244697127     1.490908928634     1.007825032230
         H           -2.188562971106     1.710648697127    -0.167932071366     1.007825032230
         H           -0.901566971106     2.702732697127     0.018178928634     1.007825032230
         H            1.755708028894    -1.370845302873     0.212518928634     1.007825032230
         H           -2.649712971106    -1.515972302873    -0.299229071366     1.007825032230

  Basis Set: AUG-CC-PVTZ
    Blend: AUG-CC-PVTZ
  Basis Set: (AUG-CC-PVTZ AUX)
    Blend: AUG-CC-PVTZ-JKFIT
	 Reference Energy          =    -719.5390224619071660 [Eh]
	 Singles Energy            =      -0.0000000000000000 [Eh]
	 Same-Spin Energy          =      -0.3739628631330550 [Eh]
	 Opposite-Spin Energy      =      -1.1577042291709827 [Eh]
	 Correlation Energy        =      -1.5316670923040376 [Eh]
	 Total Energy              =    -721.0706895542111852 [Eh]

	 ================> DF-SCS-MP2 Energies <==================
	-----------------------------------------------------------
	 SCS Same-Spin Scale       =       0.3333333333333333 [-]
	 SCS Opposite-Spin Scale   =       1.2000000000000000 [-]
	 SCS Same-Spin Energy      =      -0.1246542877110183 [Eh]
	 SCS Opposite-Spin Energy  =      -1.3892450750051792 [Eh]
	 SCS Correlation Energy    =      -1.5138993627161976 [Eh]
	 SCS Total Energy          =    -721.0529218246233540 [Eh]
	-----------------------------------------------------------

  Dipole Moment: [D]
     X:    -2.1681      Y:     1.0654      Z:    -1.1734     Total:     2.6856

*** Psi4 exiting successfully. Buy a developer a beer!
