                               Psi4 1.3.2 release

  ==> Input File <==

--------------------------------------------------------------------------
#psi4
#
memory 32 gb

molecule  {
0 1
  S        2.2579180    -0.2726900    -0.2934460
  O       -2.2551230    -0.6936910    -0.5624970
  O       -0.5935940    -1.5242440     0.7320250
  N       -1.2606890     1.7473760     0.2743420
  C       -0.3743770     0.7050360    -0.2599020
  C        0.9828140     0.8061630     0.4219110
  C       -1.0384360    -0.6244090     0.0410490
  H       -0.2310720     0.7525000    -1.3524110
  H        1.3604600     1.8262100     0.3009430
  H        0.8701070     0.6147400     1.4903500
  H       -2.1754500     1.6690270    -0.1683570
  H       -0.8885410     2.6612730     0.0174870
  H        1.8054012    -1.3271240     0.1741554
  H       -2.6365250    -1.5573750    -0.2997250
units angstrom
no_reorient  #important for SAPT in psi4, default
symmetry c1  #important for SAPT in psi4, default
}

set PROPERTIES_ORIGIN ["COM"]
properties('MP2/aug-cc-pvtz', properties = ['dipole'])
--------------------------------------------------------------------------

    Molecular point group: c1
  Charge       = 0
  Multiplicity = 1
  Basis Set: AUG-CC-PVTZ
    Blend: AUG-CC-PVTZ
  Basis Set: (AUG-CC-PVTZ AUX)
    Blend: AUG-CC-PVTZ-JKFIT

    Orbital Energies [Eh]
    ---------------------

    Doubly Occupied:

       1A    -91.942953     2A    -20.628197     3A    -20.565455
       4A    -15.570026     5A    -11.401249     6A    -11.294846
       7A    -11.268538     8A     -8.947401     9A     -6.629063
      10A     -6.627766    11A     -6.626656    12A     -1.473396
      13A     -1.370541    14A     -1.216649    15A     -1.067278
      16A     -0.969706    17A     -0.887456    18A     -0.792369
      19A     -0.720166    20A     -0.716354    21A     -0.672899
      22A     -0.658305    23A     -0.623973    24A     -0.602787
      25A     -0.571809    26A     -0.557348    27A     -0.530946
      28A     -0.495586    29A     -0.474480    30A     -0.453389
      31A     -0.423005    32A     -0.360211

  @DF-RHF Final Energy:  -719.53396089820410

   => Energetics <=

    Nuclear Repulsion Energy =            380.7080566551845209
    One-Electron Energy =               -1746.2024266411863209
    Two-Electron Energy =                 645.9604090877977569
    Total Energy =                       -719.5339608982041000
  Basis Set: (AUG-CC-PVTZ AUX)
    Blend: AUG-CC-PVTZ-RI
    Molecular point group: c1

    Geometry (in Angstrom), charge = 0, multiplicity = 1:

       Center              X                  Y                   Z               Mass
    ------------   -----------------  -----------------  -----------------  -----------------
         S            2.242206784536    -0.236262257188    -0.291558294337    31.972071174400
         O           -2.270834215464    -0.657263257188    -0.560609294337    15.994914619570
         O           -0.609305215464    -1.487816257188     0.733912705663    15.994914619570
         N           -1.276400215464     1.783803742812     0.276229705663    14.003074004430
         C           -0.390088215464     0.741463742812    -0.258014294337    12.000000000000
         C            0.967102784536     0.842590742812     0.423798705663    12.000000000000
         C           -1.054147215464    -0.587981257188     0.042936705663    12.000000000000
         H           -0.246783215464     0.788927742812    -1.350523294337     1.007825032230
         H            1.344748784536     1.862637742812     0.302830705663     1.007825032230
         H            0.854395784536     0.651167742812     1.492237705663     1.007825032230
         H           -2.191161215464     1.705454742812    -0.166469294337     1.007825032230
         H           -0.904252215464     2.697700742812     0.019374705663     1.007825032230
         H            1.789689984536    -1.290696257188     0.176043105663     1.007825032230
         H           -2.652236215464    -1.520947257188    -0.297837294337     1.007825032230

  Basis Set: AUG-CC-PVTZ
    Blend: AUG-CC-PVTZ
  Basis Set: (AUG-CC-PVTZ AUX)
    Blend: AUG-CC-PVTZ-JKFIT
	 Reference Energy          =    -719.5339608982041000 [Eh]
	 Singles Energy            =      -0.0000000000000000 [Eh]
	 Same-Spin Energy          =      -0.3746900691566857 [Eh]
	 Opposite-Spin Energy      =      -1.1589536609190225 [Eh]
	 Correlation Energy        =      -1.5336437300757082 [Eh]
	 Total Energy              =    -721.0676046282798097 [Eh]

	 ================> DF-SCS-MP2 Energies <==================
	-----------------------------------------------------------
	 SCS Same-Spin Scale       =       0.3333333333333333 [-]
	 SCS Opposite-Spin Scale   =       1.2000000000000000 [-]
	 SCS Same-Spin Energy      =      -0.1248966897188952 [Eh]
	 SCS Opposite-Spin Energy  =      -1.3907443931028269 [Eh]
	 SCS Correlation Energy    =      -1.5156410828217222 [Eh]
	 SCS Total Energy          =    -721.0496019810258304 [Eh]
	-----------------------------------------------------------

  Dipole Moment: [D]
     X:    -1.9985      Y:     1.3025      Z:    -1.2180     Total:     2.6785

*** Psi4 exiting successfully. Buy a developer a beer!
