                               Psi4 1.4a3.dev225

  ==> Input File <==

--------------------------------------------------------------------------
#psi4
#
memory 32 gb

molecule  {
0 1
  S        2.2579050    -0.2727850    -0.2934720
  O       -2.2550500    -0.6937950    -0.5626610
  O       -0.5937490    -1.5240650     0.7322790
  N       -1.2606540     1.7474040     0.2743750
  C       -0.3743580     0.7050630    -0.2599560
  C        0.9968952     0.7943178     0.4140151
  C       -1.0384730    -0.6243520     0.0410630
  H       -0.2310980     0.7525420    -1.3524390
  H        1.3604840     1.8262480     0.3009370
  H        0.8701350     0.6147610     1.4903210
  H       -2.1753310     1.6691650    -0.1685200
  H       -0.8883350     2.6612490     0.0175910
  H        1.7689400    -1.4123290     0.2119310
  H       -2.6364810    -1.5574560    -0.2998170
units angstrom
no_reorient  #important for SAPT in psi4, default
symmetry c1  #important for SAPT in psi4, default
}

set PROPERTIES_ORIGIN ["COM"]
properties('MP2/aug-cc-pvtz', properties = ['dipole'])
--------------------------------------------------------------------------

    Molecular point group: c1
  Charge       = 0
  Multiplicity = 1
  Basis Set: AUG-CC-PVTZ
    Blend: AUG-CC-PVTZ
  Basis Set: (AUG-CC-PVTZ AUX)
    Blend: AUG-CC-PVTZ-JKFIT

    Orbital Energies [Eh]
    ---------------------

    Doubly Occupied:

       1A    -91.950589     2A    -20.628078     3A    -20.565358
       4A    -15.570064     5A    -11.401133     6A    -11.294753
       7A    -11.268587     8A     -8.952298     9A     -6.633690
      10A     -6.632743    11A     -6.631734    12A     -1.473325
      13A     -1.370570    14A     -1.215790    15A     -1.065261
      16A     -0.965768    17A     -0.877974    18A     -0.790089
      19A     -0.719935    20A     -0.715459    21A     -0.671567
      22A     -0.657001    23A     -0.623004    24A     -0.602481
      25A     -0.567440    26A     -0.554645    27A     -0.525698
      28A     -0.495611    29A     -0.475646    30A     -0.450910
      31A     -0.422544    32A     -0.359093

  @DF-RHF Final Energy:  -719.53823459083071

   => Energetics <=

    Nuclear Repulsion Energy =            380.2961647262588372
    One-Electron Energy =               -1745.4111205223703109
    Two-Electron Energy =                 645.5767212052807054
    Total Energy =                       -719.5382345908307116
  Basis Set: (AUG-CC-PVTZ AUX)
    Blend: AUG-CC-PVTZ-RI
    Molecular point group: c1

    Geometry (in Angstrom), charge = 0, multiplicity = 1:

       Center              X                  Y                   Z               Mass
    ------------   -----------------  -----------------  -----------------  -----------------
         S            2.241109888157    -0.234470650035    -0.291119040447    31.972071174400
         O           -2.271845111843    -0.655480650035    -0.560308040447    15.994914619570
         O           -0.610544111843    -1.485750650035     0.734631959553    15.994914619570
         N           -1.277449111843     1.785718349965     0.276727959553    14.003074004430
         C           -0.391153111843     0.743377349965    -0.257603040447    12.000000000000
         C            0.980100088157     0.832632149965     0.416368059553    12.000000000000
         C           -1.055268111843    -0.586037650035     0.043415959553    12.000000000000
         H           -0.247893111843     0.790856349965    -1.350086040447     1.007825032230
         H            1.343688888157     1.864562349965     0.303289959553     1.007825032230
         H            0.853339888157     0.653075349965     1.492673959553     1.007825032230
         H           -2.192126111843     1.707479349965    -0.166167040447     1.007825032230
         H           -0.905130111843     2.699563349965     0.019943959553     1.007825032230
         H            1.752144888157    -1.374014650035     0.214283959553     1.007825032230
         H           -2.653276111843    -1.519141650035    -0.297464040447     1.007825032230

  Basis Set: AUG-CC-PVTZ
    Blend: AUG-CC-PVTZ
  Basis Set: (AUG-CC-PVTZ AUX)
    Blend: AUG-CC-PVTZ-JKFIT
	 Reference Energy          =    -719.5382345908307116 [Eh]
	 Singles Energy            =      -0.0000000000000000 [Eh]
	 Same-Spin Energy          =      -0.3748958382844565 [Eh]
	 Opposite-Spin Energy      =      -1.1594620930209774 [Eh]
	 Correlation Energy        =      -1.5343579313054339 [Eh]
	 Total Energy              =    -721.0725925221361194 [Eh]

	 ================> DF-SCS-MP2 Energies <==================
	-----------------------------------------------------------
	 SCS Same-Spin Scale       =       0.3333333333333333 [-]
	 SCS Opposite-Spin Scale   =       1.2000000000000000 [-]
	 SCS Same-Spin Energy      =      -0.1249652794281522 [Eh]
	 SCS Opposite-Spin Energy  =      -1.3913545116251729 [Eh]
	 SCS Correlation Energy    =      -1.5163197910533250 [Eh]
	 SCS Total Energy          =    -721.0545543818840315 [Eh]
	-----------------------------------------------------------

  Dipole Moment: [D]
     X:    -1.9952      Y:     1.2691      Z:    -1.2126     Total:     2.6575

*** Psi4 exiting successfully. Buy a developer a beer!
