                               Psi4 1.3.2 release

  ==> Input File <==

--------------------------------------------------------------------------
#psi4
#
memory 32 gb

molecule  {
0 1
  S        2.2579180    -0.2726900    -0.2934460
  O       -2.2551230    -0.6936910    -0.5624970
  O       -0.5935940    -1.5242440     0.7320250
  N       -1.2606890     1.7473760     0.2743420
  C       -0.2536936     0.5631073    -0.3326465
  C        0.9828140     0.8061630     0.4219110
  C       -1.0384360    -0.6244090     0.0410490
  H       -0.2310720     0.7525000    -1.3524110
  H        1.3604600     1.8262100     0.3009430
  H        0.8701070     0.6147400     1.4903500
  H       -2.1754500     1.6690270    -0.1683570
  H       -0.8885410     2.6612730     0.0174870
  H        1.7688800    -1.4122240     0.2118940
  H       -2.6365250    -1.5573750    -0.2997250
units angstrom
no_reorient  #important for SAPT in psi4, default
symmetry c1  #important for SAPT in psi4, default
}

set PROPERTIES_ORIGIN ["COM"]
properties('MP2/aug-cc-pvtz', properties = ['dipole'])
--------------------------------------------------------------------------

    Molecular point group: c1
  Charge       = 0
  Multiplicity = 1
  Basis Set: AUG-CC-PVTZ
    Blend: AUG-CC-PVTZ
  Basis Set: (AUG-CC-PVTZ AUX)
    Blend: AUG-CC-PVTZ-JKFIT

    Orbital Energies [Eh]
    ---------------------

    Doubly Occupied:

       1A    -91.949161     2A    -20.631377     3A    -20.565595
       4A    -15.566403     5A    -11.405423     6A    -11.297511
       7A    -11.272586     8A     -8.951171     9A     -6.632491
      10A     -6.631612    11A     -6.630578    12A     -1.476351
      13A     -1.373492    14A     -1.179272    15A     -1.073986
      16A     -0.975915    17A     -0.883444    18A     -0.800911
      19A     -0.732647    20A     -0.720520    21A     -0.657178
      22A     -0.646344    23A     -0.625688    24A     -0.595047
      25A     -0.574882    26A     -0.573034    27A     -0.524181
      28A     -0.492932    29A     -0.462591    30A     -0.448003
      31A     -0.422978    32A     -0.358713

  @DF-RHF Final Energy:  -719.50881542263278

   => Energetics <=

    Nuclear Repulsion Energy =            380.6030326076928532
    One-Electron Energy =               -1745.9596620031013572
    Two-Electron Energy =                 645.8478139727758389
    Total Energy =                       -719.5088154226327788
  Basis Set: (AUG-CC-PVTZ AUX)
    Blend: AUG-CC-PVTZ-RI
    Molecular point group: c1

    Geometry (in Angstrom), charge = 0, multiplicity = 1:

       Center              X                  Y                   Z               Mass
    ------------   -----------------  -----------------  -----------------  -----------------
         S            2.230544276354    -0.221480287175    -0.284659419594    31.972071174400
         O           -2.282496723646    -0.642481287175    -0.553710419594    15.994914619570
         O           -0.620967723646    -1.473034287175     0.740811580406    15.994914619570
         N           -1.288062723646     1.798585712825     0.283128580406    14.003074004430
         C           -0.281067323646     0.614317012825    -0.323859919594    12.000000000000
         C            0.955440276354     0.857372712825     0.430697580406    12.000000000000
         C           -1.065809723646    -0.573199287175     0.049835580406    12.000000000000
         H           -0.258445723646     0.803709712825    -1.343624419594     1.007825032230
         H            1.333086276354     1.877419712825     0.309729580406     1.007825032230
         H            0.842733276354     0.665949712825     1.499136580406     1.007825032230
         H           -2.202823723646     1.720236712825    -0.159570419594     1.007825032230
         H           -0.915914723646     2.712482712825     0.026273580406     1.007825032230
         H            1.741506276354    -1.361014287175     0.220680580406     1.007825032230
         H           -2.663898723646    -1.506165287175    -0.290938419594     1.007825032230

  Basis Set: AUG-CC-PVTZ
    Blend: AUG-CC-PVTZ
  Basis Set: (AUG-CC-PVTZ AUX)
    Blend: AUG-CC-PVTZ-JKFIT
	 Reference Energy          =    -719.5088154226327788 [Eh]
	 Singles Energy            =      -0.0000000000000000 [Eh]
	 Same-Spin Energy          =      -0.3760975034547638 [Eh]
	 Opposite-Spin Energy      =      -1.1631396816695236 [Eh]
	 Correlation Energy        =      -1.5392371851242874 [Eh]
	 Total Energy              =    -721.0480526077570858 [Eh]

	 ================> DF-SCS-MP2 Energies <==================
	-----------------------------------------------------------
	 SCS Same-Spin Scale       =       0.3333333333333333 [-]
	 SCS Opposite-Spin Scale   =       1.2000000000000000 [-]
	 SCS Same-Spin Energy      =      -0.1253658344849213 [Eh]
	 SCS Opposite-Spin Energy  =      -1.3957676180034284 [Eh]
	 SCS Correlation Energy    =      -1.5211334524883497 [Eh]
	 SCS Total Energy          =    -721.0299488751211356 [Eh]
	-----------------------------------------------------------

  Dipole Moment: [D]
     X:    -1.7665      Y:     1.0875      Z:    -1.3383     Total:     2.4686

*** Psi4 exiting successfully. Buy a developer a beer!
