                               Psi4 1.3.2 release

  ==> Input File <==

--------------------------------------------------------------------------
#psi4
#
memory 32 gb

molecule  {
0 1
  S        2.2579180    -0.2726900    -0.2934460
  O       -2.2551230    -0.6936910    -0.5624970
  O       -0.6644994    -1.5681392     0.7152745
  N       -1.2606890     1.7473760     0.2743420
  C       -0.3743770     0.7050360    -0.2599020
  C        0.9828140     0.8061630     0.4219110
  C       -1.0384360    -0.6244090     0.0410490
  H       -0.2310720     0.7525000    -1.3524110
  H        1.3604600     1.8262100     0.3009430
  H        0.8701070     0.6147400     1.4903500
  H       -2.1754500     1.6690270    -0.1683570
  H       -0.8885410     2.6612730     0.0174870
  H        1.7688800    -1.4122240     0.2118940
  H       -2.6365250    -1.5573750    -0.2997250
units angstrom
no_reorient  #important for SAPT in psi4, default
symmetry c1  #important for SAPT in psi4, default
}

set PROPERTIES_ORIGIN ["COM"]
properties('MP2/aug-cc-pvtz', properties = ['dipole'])
--------------------------------------------------------------------------

    Molecular point group: c1
  Charge       = 0
  Multiplicity = 1
  Basis Set: AUG-CC-PVTZ
    Blend: AUG-CC-PVTZ
  Basis Set: (AUG-CC-PVTZ AUX)
    Blend: AUG-CC-PVTZ-JKFIT

    Orbital Energies [Eh]
    ---------------------

    Doubly Occupied:

       1A    -91.952529     2A    -20.621062     3A    -20.563839
       4A    -15.571749     5A    -11.400676     6A    -11.298862
       7A    -11.271012     8A     -8.953951     9A     -6.635310
      10A     -6.634371    11A     -6.633371    12A     -1.473313
      13A     -1.363658    14A     -1.218851    15A     -1.066290
      16A     -0.966533    17A     -0.880332    18A     -0.790110
      19A     -0.718662    20A     -0.715001    21A     -0.671977
      22A     -0.657949    23A     -0.622156    24A     -0.602232
      25A     -0.569848    26A     -0.559168    27A     -0.525614
      28A     -0.491896    29A     -0.474438    30A     -0.451997
      31A     -0.425379    32A     -0.361332

  @DF-RHF Final Energy:  -719.53797639948391

   => Energetics <=

    Nuclear Repulsion Energy =            379.4760240518275509
    One-Electron Energy =               -1743.7410586652076745
    Two-Electron Energy =                 644.7270582138961572
    Total Energy =                       -719.5379763994839095
  Basis Set: (AUG-CC-PVTZ AUX)
    Blend: AUG-CC-PVTZ-RI
    Molecular point group: c1

    Geometry (in Angstrom), charge = 0, multiplicity = 1:

       Center              X                  Y                   Z               Mass
    ------------   -----------------  -----------------  -----------------  -----------------
         S            2.251882335858    -0.229752031471    -0.289658696030    31.972071174400
         O           -2.261158664142    -0.650753031471    -0.558709696030    15.994914619570
         O           -0.670535064142    -1.525201231471     0.719061803970    15.994914619570
         N           -1.266724664142     1.790313968529     0.278129303970    14.003074004430
         C           -0.380412664142     0.747973968529    -0.256114696030    12.000000000000
         C            0.976778335858     0.849100968529     0.425698303970    12.000000000000
         C           -1.044471664142    -0.581471031471     0.044836303970    12.000000000000
         H           -0.237107664142     0.795437968529    -1.348623696030     1.007825032230
         H            1.354424335858     1.869147968529     0.304730303970     1.007825032230
         H            0.864071335858     0.657677968529     1.494137303970     1.007825032230
         H           -2.181485664142     1.711964968529    -0.164569696030     1.007825032230
         H           -0.894576664142     2.704210968529     0.021274303970     1.007825032230
         H            1.762844335858    -1.369286031471     0.215681303970     1.007825032230
         H           -2.642560664142    -1.514437031471    -0.295937696030     1.007825032230

  Basis Set: AUG-CC-PVTZ
    Blend: AUG-CC-PVTZ
  Basis Set: (AUG-CC-PVTZ AUX)
    Blend: AUG-CC-PVTZ-JKFIT
	 Reference Energy          =    -719.5379763994839095 [Eh]
	 Singles Energy            =      -0.0000000000000000 [Eh]
	 Same-Spin Energy          =      -0.3745467671331042 [Eh]
	 Opposite-Spin Energy      =      -1.1590023091782859 [Eh]
	 Correlation Energy        =      -1.5335490763113901 [Eh]
	 Total Energy              =    -721.0715254757952835 [Eh]

	 ================> DF-SCS-MP2 Energies <==================
	-----------------------------------------------------------
	 SCS Same-Spin Scale       =       0.3333333333333333 [-]
	 SCS Opposite-Spin Scale   =       1.2000000000000000 [-]
	 SCS Same-Spin Energy      =      -0.1248489223777014 [Eh]
	 SCS Opposite-Spin Energy  =      -1.3908027710139430 [Eh]
	 SCS Correlation Energy    =      -1.5156516933916444 [Eh]
	 SCS Total Energy          =    -721.0536280928755559 [Eh]
	-----------------------------------------------------------

  Dipole Moment: [D]
     X:    -1.7989      Y:     1.4487      Z:    -1.1873     Total:     2.5970

*** Psi4 exiting successfully. Buy a developer a beer!
