                               Psi4 1.3.2 release

  ==> Input File <==

--------------------------------------------------------------------------
#psi4
#
memory 32 gb

molecule  {
0 1
  S        2.1708871    -0.3131132    -0.3763701
  O       -2.2551230    -0.6936910    -0.5624970
  O       -0.5935940    -1.5242440     0.7320250
  N       -1.2606890     1.7473760     0.2743420
  C       -0.3743770     0.7050360    -0.2599020
  C        0.9828140     0.8061630     0.4219110
  C       -1.0384360    -0.6244090     0.0410490
  H       -0.2310720     0.7525000    -1.3524110
  H        1.3604600     1.8262100     0.3009430
  H        0.8701070     0.6147400     1.4903500
  H       -2.1754500     1.6690270    -0.1683570
  H       -0.8885410     2.6612730     0.0174870
  H        1.7688800    -1.4122240     0.2118940
  H       -2.6365250    -1.5573750    -0.2997250
units angstrom
no_reorient  #important for SAPT in psi4, default
symmetry c1  #important for SAPT in psi4, default
}

set PROPERTIES_ORIGIN ["COM"]
properties('MP2/aug-cc-pvtz', properties = ['dipole'])
--------------------------------------------------------------------------

    Molecular point group: c1
  Charge       = 0
  Multiplicity = 1
  Basis Set: AUG-CC-PVTZ
    Blend: AUG-CC-PVTZ
  Basis Set: (AUG-CC-PVTZ AUX)
    Blend: AUG-CC-PVTZ-JKFIT

    Orbital Energies [Eh]
    ---------------------

    Doubly Occupied:

       1A    -91.947432     2A    -20.627684     3A    -20.564591
       4A    -15.568660     5A    -11.400745     6A    -11.293215
       7A    -11.268975     8A     -8.949808     9A     -6.631239
      10A     -6.630268    11A     -6.629244    12A     -1.472850
      13A     -1.370058    14A     -1.215811    15A     -1.065556
      16A     -0.963425    17A     -0.881836    18A     -0.791449
      19A     -0.719830    20A     -0.715975    21A     -0.671531
      22A     -0.656807    23A     -0.623555    24A     -0.602339
      25A     -0.567309    26A     -0.557888    27A     -0.528340
      28A     -0.494612    29A     -0.474073    30A     -0.449703
      31A     -0.422031    32A     -0.358904

  @DF-RHF Final Energy:  -719.53729231172042

   => Energetics <=

    Nuclear Repulsion Energy =            382.0674015609017147
    One-Electron Energy =               -1748.9778990972881729
    Two-Electron Energy =                 647.3732052246659805
    Total Energy =                       -719.5372923117204209
  Basis Set: (AUG-CC-PVTZ AUX)
    Blend: AUG-CC-PVTZ-RI
    Molecular point group: c1

    Geometry (in Angstrom), charge = 0, multiplicity = 1:

       Center              X                  Y                   Z               Mass
    ------------   -----------------  -----------------  -----------------  -----------------
         S            2.178472620127    -0.265297404067    -0.352889048382    31.972071174400
         O           -2.247537479873    -0.645875204067    -0.539015948382    15.994914619570
         O           -0.586008479873    -1.476428204067     0.755506051618    15.994914619570
         N           -1.253103479873     1.795191795933     0.297823051618    14.003074004430
         C           -0.366791479873     0.752851795933    -0.236420948382    12.000000000000
         C            0.990399520127     0.853978795933     0.445392051618    12.000000000000
         C           -1.030850479873    -0.576593204067     0.064530051618    12.000000000000
         H           -0.223486479873     0.800315795933    -1.328929948382     1.007825032230
         H            1.368045520127     1.874025795933     0.324424051618     1.007825032230
         H            0.877692520127     0.662555795933     1.513831051618     1.007825032230
         H           -2.167864479873     1.716842795933    -0.144875948382     1.007825032230
         H           -0.880955479873     2.709088795933     0.040968051618     1.007825032230
         H            1.776465520127    -1.364408204067     0.235375051618     1.007825032230
         H           -2.628939479873    -1.509559204067    -0.276243948382     1.007825032230

  Basis Set: AUG-CC-PVTZ
    Blend: AUG-CC-PVTZ
  Basis Set: (AUG-CC-PVTZ AUX)
    Blend: AUG-CC-PVTZ-JKFIT
	 Reference Energy          =    -719.5372923117204209 [Eh]
	 Singles Energy            =      -0.0000000000000000 [Eh]
	 Same-Spin Energy          =      -0.3750310415390308 [Eh]
	 Opposite-Spin Energy      =      -1.1595835624898914 [Eh]
	 Correlation Energy        =      -1.5346146040289221 [Eh]
	 Total Energy              =    -721.0719069157493095 [Eh]

	 ================> DF-SCS-MP2 Energies <==================
	-----------------------------------------------------------
	 SCS Same-Spin Scale       =       0.3333333333333333 [-]
	 SCS Opposite-Spin Scale   =       1.2000000000000000 [-]
	 SCS Same-Spin Energy      =      -0.1250103471796769 [Eh]
	 SCS Opposite-Spin Energy  =      -1.3915002749878695 [Eh]
	 SCS Correlation Energy    =      -1.5165106221675464 [Eh]
	 SCS Total Energy          =    -721.0538029338879369 [Eh]
	-----------------------------------------------------------

  Dipole Moment: [D]
     X:    -1.9340      Y:     1.3012      Z:    -1.1111     Total:     2.5823

*** Psi4 exiting successfully. Buy a developer a beer!
