                               Psi4 1.4a3.dev225

  ==> Input File <==

--------------------------------------------------------------------------
#psi4
#
memory 32 gb

molecule  {
0 1
  S        2.2579050    -0.2727850    -0.2934720
  O       -2.2550500    -0.6937950    -0.5626610
  O       -0.5937490    -1.5240650     0.7322790
  N       -1.2606540     1.7474040     0.2743750
  C       -0.3743580     0.7050630    -0.2599560
  C        0.9382810     0.8028722     0.3994927
  C       -1.0384730    -0.6243520     0.0410630
  H       -0.2310980     0.7525420    -1.3524390
  H        1.3604840     1.8262480     0.3009370
  H        0.8701350     0.6147610     1.4903210
  H       -2.1753310     1.6691650    -0.1685200
  H       -0.8883350     2.6612490     0.0175910
  H        1.7689400    -1.4123290     0.2119310
  H       -2.6364810    -1.5574560    -0.2998170
units angstrom
no_reorient  #important for SAPT in psi4, default
symmetry c1  #important for SAPT in psi4, default
}

set PROPERTIES_ORIGIN ["COM"]
properties('MP2/aug-cc-pvtz', properties = ['dipole'])
--------------------------------------------------------------------------

    Molecular point group: c1
  Charge       = 0
  Multiplicity = 1
  Basis Set: AUG-CC-PVTZ
    Blend: AUG-CC-PVTZ
  Basis Set: (AUG-CC-PVTZ AUX)
    Blend: AUG-CC-PVTZ-JKFIT

    Orbital Energies [Eh]
    ---------------------

    Doubly Occupied:

       1A    -91.950201     2A    -20.628744     3A    -20.566225
       4A    -15.570512     5A    -11.402033     6A    -11.293248
       7A    -11.269751     8A     -8.951329     9A     -6.632659
      10A     -6.631718    11A     -6.630745    12A     -1.474109
      13A     -1.371387    14A     -1.220096    15A     -1.065620
      16A     -0.964525    17A     -0.881762    18A     -0.789674
      19A     -0.721015    20A     -0.718370    21A     -0.673640
      22A     -0.657921    23A     -0.622776    24A     -0.604889
      25A     -0.570114    26A     -0.558627    27A     -0.519023
      28A     -0.494894    29A     -0.472967    30A     -0.448681
      31A     -0.424410    32A     -0.359952

  @DF-RHF Final Energy:  -719.53593969622943

   => Energetics <=

    Nuclear Repulsion Energy =            380.6929335544693345
    One-Electron Energy =               -1746.1745142308195682
    Two-Electron Energy =                 645.9456409801207428
    Total Energy =                       -719.5359396962294340
  Basis Set: (AUG-CC-PVTZ AUX)
    Blend: AUG-CC-PVTZ-RI
    Molecular point group: c1

    Geometry (in Angstrom), charge = 0, multiplicity = 1:

       Center              X                  Y                   Z               Mass
    ------------   -----------------  -----------------  -----------------  -----------------
         S            2.246921918028    -0.235318881834    -0.289679037468    31.972071174400
         O           -2.266033081972    -0.656328881834    -0.558868037468    15.994914619570
         O           -0.604732081972    -1.486598881834     0.736071962532    15.994914619570
         N           -1.271637081972     1.784870118166     0.278167962532    14.003074004430
         C           -0.385341081972     0.742529118166    -0.256163037468    12.000000000000
         C            0.927297918028     0.840338318166     0.403285662532    12.000000000000
         C           -1.049456081972    -0.586885881834     0.044855962532    12.000000000000
         H           -0.242081081972     0.790008118166    -1.348646037468     1.007825032230
         H            1.349500918028     1.863714118166     0.304729962532     1.007825032230
         H            0.859151918028     0.652227118166     1.494113962532     1.007825032230
         H           -2.186314081972     1.706631118166    -0.164727037468     1.007825032230
         H           -0.899318081972     2.698715118166     0.021383962532     1.007825032230
         H            1.757956918028    -1.374862881834     0.215723962532     1.007825032230
         H           -2.647464081972    -1.519989881834    -0.296024037468     1.007825032230

  Basis Set: AUG-CC-PVTZ
    Blend: AUG-CC-PVTZ
  Basis Set: (AUG-CC-PVTZ AUX)
    Blend: AUG-CC-PVTZ-JKFIT
	 Reference Energy          =    -719.5359396962294340 [Eh]
	 Singles Energy            =      -0.0000000000000000 [Eh]
	 Same-Spin Energy          =      -0.3752037522883765 [Eh]
	 Opposite-Spin Energy      =      -1.1599911932208289 [Eh]
	 Correlation Energy        =      -1.5351949455092053 [Eh]
	 Total Energy              =    -721.0711346417386949 [Eh]

	 ================> DF-SCS-MP2 Energies <==================
	-----------------------------------------------------------
	 SCS Same-Spin Scale       =       0.3333333333333333 [-]
	 SCS Opposite-Spin Scale   =       1.2000000000000000 [-]
	 SCS Same-Spin Energy      =      -0.1250679174294588 [Eh]
	 SCS Opposite-Spin Energy  =      -1.3919894318649946 [Eh]
	 SCS Correlation Energy    =      -1.5170573492944535 [Eh]
	 SCS Total Energy          =    -721.0529970455238526 [Eh]
	-----------------------------------------------------------

  Dipole Moment: [D]
     X:    -2.0521      Y:     1.2865      Z:    -1.2016     Total:     2.7037

*** Psi4 exiting successfully. Buy a developer a beer!
