                               Psi4 1.3.2 release

  ==> Input File <==

--------------------------------------------------------------------------
#psi4
#
memory 32 gb

molecule  {
0 1
  S        2.2579180    -0.2726900    -0.2934460
  O       -2.2551230    -0.6936910    -0.5624970
  O       -0.5935940    -1.5242440     0.7320250
  N       -1.2606890     1.7473760     0.2743420
  C       -0.3743770     0.7050360    -0.2599020
  C        1.0414223     0.9043507     0.3670560
  C       -1.0384360    -0.6244090     0.0410490
  H       -0.2310720     0.7525000    -1.3524110
  H        1.3604600     1.8262100     0.3009430
  H        0.8701070     0.6147400     1.4903500
  H       -2.1754500     1.6690270    -0.1683570
  H       -0.8885410     2.6612730     0.0174870
  H        1.7688800    -1.4122240     0.2118940
  H       -2.6365250    -1.5573750    -0.2997250
units angstrom
no_reorient  #important for SAPT in psi4, default
symmetry c1  #important for SAPT in psi4, default
}

set PROPERTIES_ORIGIN ["COM"]
properties('MP2/aug-cc-pvtz', properties = ['dipole'])
--------------------------------------------------------------------------

    Molecular point group: c1
  Charge       = 0
  Multiplicity = 1
  Basis Set: AUG-CC-PVTZ
    Blend: AUG-CC-PVTZ
  Basis Set: (AUG-CC-PVTZ AUX)
    Blend: AUG-CC-PVTZ-JKFIT

    Orbital Energies [Eh]
    ---------------------

    Doubly Occupied:

       1A    -91.949507     2A    -20.629917     3A    -20.566079
       4A    -15.569756     5A    -11.403825     6A    -11.297189
       7A    -11.269235     8A     -8.950987     9A     -6.632376
      10A     -6.631551    11A     -6.630532    12A     -1.474584
      13A     -1.371347    14A     -1.215134    15A     -1.061673
      16A     -0.964381    17A     -0.884463    18A     -0.797684
      19A     -0.721057    20A     -0.712161    21A     -0.672035
      22A     -0.659588    23A     -0.622982    24A     -0.608374
      25A     -0.577747    26A     -0.550216    27A     -0.531027
      28A     -0.496171    29A     -0.473951    30A     -0.442004
      31A     -0.420259    32A     -0.355236

  @DF-RHF Final Energy:  -719.52020931210427

   => Energetics <=

    Nuclear Repulsion Energy =            379.1177112419221658
    One-Electron Energy =               -1742.9897894797468325
    Two-Electron Energy =                 644.3518689257202823
    Total Energy =                       -719.5202093121042708
  Basis Set: (AUG-CC-PVTZ AUX)
    Blend: AUG-CC-PVTZ-RI
    Molecular point group: c1

    Geometry (in Angstrom), charge = 0, multiplicity = 1:

       Center              X                  Y                   Z               Mass
    ------------   -----------------  -----------------  -----------------  -----------------
         S            2.236699479965    -0.245289597709    -0.286433295351    31.972071174400
         O           -2.276341520035    -0.666290597709    -0.555484295351    15.994914619570
         O           -0.614812520035    -1.496843597709     0.739037704649    15.994914619570
         N           -1.281907520035     1.774776402291     0.281354704649    14.003074004430
         C           -0.395595520035     0.732436402291    -0.252889295351    12.000000000000
         C            1.020203779965     0.931751102291     0.374068704649    12.000000000000
         C           -1.059654520035    -0.597008597709     0.048061704649    12.000000000000
         H           -0.252290520035     0.779900402291    -1.345398295351     1.007825032230
         H            1.339241479965     1.853610402291     0.307955704649     1.007825032230
         H            0.848888479965     0.642140402291     1.497362704649     1.007825032230
         H           -2.196668520035     1.696427402291    -0.161344295351     1.007825032230
         H           -0.909759520035     2.688673402291     0.024499704649     1.007825032230
         H            1.747661479965    -1.384823597709     0.218906704649     1.007825032230
         H           -2.657743520035    -1.529974597709    -0.292712295351     1.007825032230

  Basis Set: AUG-CC-PVTZ
    Blend: AUG-CC-PVTZ
  Basis Set: (AUG-CC-PVTZ AUX)
    Blend: AUG-CC-PVTZ-JKFIT
	 Reference Energy          =    -719.5202093121042708 [Eh]
	 Singles Energy            =      -0.0000000000000000 [Eh]
	 Same-Spin Energy          =      -0.3744743694285473 [Eh]
	 Opposite-Spin Energy      =      -1.1594783137929272 [Eh]
	 Correlation Energy        =      -1.5339526832214745 [Eh]
	 Total Energy              =    -721.0541619953257850 [Eh]

	 ================> DF-SCS-MP2 Energies <==================
	-----------------------------------------------------------
	 SCS Same-Spin Scale       =       0.3333333333333333 [-]
	 SCS Opposite-Spin Scale   =       1.2000000000000000 [-]
	 SCS Same-Spin Energy      =      -0.1248247898095158 [Eh]
	 SCS Opposite-Spin Energy  =      -1.3913739765515125 [Eh]
	 SCS Correlation Energy    =      -1.5161987663610283 [Eh]
	 SCS Total Energy          =    -721.0364080784653424 [Eh]
	-----------------------------------------------------------

  Dipole Moment: [D]
     X:    -2.0761      Y:     1.3061      Z:    -1.1938     Total:     2.7278

*** Psi4 exiting successfully. Buy a developer a beer!
