                               Psi4 1.3.2 release

  ==> Input File <==

--------------------------------------------------------------------------
#psi4
#
memory 32 gb

molecule  {
0 1
  S        2.2579180    -0.2726900    -0.2934460
  O       -2.2551230    -0.6936910    -0.5624970
  O       -0.5935940    -1.5242440     0.7320250
  N       -1.2606890     1.7473760     0.2743420
  C       -0.3743770     0.7050360    -0.2599020
  C        0.9828140     0.8061630     0.4219110
  C       -0.9508429    -0.4490477     0.0013519
  H       -0.2310720     0.7525000    -1.3524110
  H        1.3604600     1.8262100     0.3009430
  H        0.8701070     0.6147400     1.4903500
  H       -2.1754500     1.6690270    -0.1683570
  H       -0.8885410     2.6612730     0.0174870
  H        1.7688800    -1.4122240     0.2118940
  H       -2.6365250    -1.5573750    -0.2997250
units angstrom
no_reorient  #important for SAPT in psi4, default
symmetry c1  #important for SAPT in psi4, default
}

set PROPERTIES_ORIGIN ["COM"]
properties('MP2/aug-cc-pvtz', properties = ['dipole'])
--------------------------------------------------------------------------

    Molecular point group: c1
  Charge       = 0
  Multiplicity = 1
  Basis Set: AUG-CC-PVTZ
    Blend: AUG-CC-PVTZ
  Basis Set: (AUG-CC-PVTZ AUX)
    Blend: AUG-CC-PVTZ-JKFIT

    Orbital Energies [Eh]
    ---------------------

    Doubly Occupied:

       1A    -91.955187     2A    -20.610508     3A    -20.557803
       4A    -15.585959     5A    -11.419970     6A    -11.297173
       7A    -11.280103     8A     -8.956658     9A     -6.638010
      10A     -6.637086    11A     -6.636089    12A     -1.421767
      13A     -1.299535    14A     -1.245770    15A     -1.087801
      16A     -1.013667    17A     -0.889923    18A     -0.784144
      19A     -0.736002    20A     -0.696983    21A     -0.682283
      22A     -0.654107    23A     -0.598241    24A     -0.591548
      25A     -0.570175    26A     -0.555519    27A     -0.527534
      28A     -0.474012    29A     -0.458582    30A     -0.446529
      31A     -0.440090    32A     -0.364975

  @DF-RHF Final Energy:  -719.45928283211822

   => Energetics <=

    Nuclear Repulsion Energy =            380.9283361463114375
    One-Electron Energy =               -1746.5477696139107593
    Two-Electron Energy =                 646.1601506354810454
    Total Energy =                       -719.4592828321182196
  Basis Set: (AUG-CC-PVTZ AUX)
    Blend: AUG-CC-PVTZ-RI
    Molecular point group: c1

    Geometry (in Angstrom), charge = 0, multiplicity = 1:

       Center              X                  Y                   Z               Mass
    ------------   -----------------  -----------------  -----------------  -----------------
         S            2.233825423449    -0.252941928859    -0.287936312838    31.972071174400
         O           -2.279215576551    -0.673942928859    -0.556987312838    15.994914619570
         O           -0.617686576551    -1.504495928859     0.737534687162    15.994914619570
         N           -1.284781576551     1.767124071141     0.279851687162    14.003074004430
         C           -0.398469576551     0.724784071141    -0.254392312838    12.000000000000
         C            0.958721423449     0.825911071141     0.427420687162    12.000000000000
         C           -0.974935476551    -0.429299628859     0.006861587162    12.000000000000
         H           -0.255164576551     0.772248071141    -1.346901312838     1.007825032230
         H            1.336367423449     1.845958071141     0.306452687162     1.007825032230
         H            0.846014423449     0.634488071141     1.495859687162     1.007825032230
         H           -2.199542576551     1.688775071141    -0.162847312838     1.007825032230
         H           -0.912633576551     2.681021071141     0.022996687162     1.007825032230
         H            1.744787423449    -1.392475928859     0.217403687162     1.007825032230
         H           -2.660617576551    -1.537626928859    -0.294215312838     1.007825032230

  Basis Set: AUG-CC-PVTZ
    Blend: AUG-CC-PVTZ
  Basis Set: (AUG-CC-PVTZ AUX)
    Blend: AUG-CC-PVTZ-JKFIT
	 Reference Energy          =    -719.4592828321182196 [Eh]
	 Singles Energy            =      -0.0000000000000000 [Eh]
	 Same-Spin Energy          =      -0.3812366211968896 [Eh]
	 Opposite-Spin Energy      =      -1.1719539906370526 [Eh]
	 Correlation Energy        =      -1.5531906118339422 [Eh]
	 Total Energy              =    -721.0124734439522172 [Eh]

	 ================> DF-SCS-MP2 Energies <==================
	-----------------------------------------------------------
	 SCS Same-Spin Scale       =       0.3333333333333333 [-]
	 SCS Opposite-Spin Scale   =       1.2000000000000000 [-]
	 SCS Same-Spin Energy      =      -0.1270788737322965 [Eh]
	 SCS Opposite-Spin Energy  =      -1.4063447887644631 [Eh]
	 SCS Correlation Energy    =      -1.5334236624967597 [Eh]
	 SCS Total Energy          =    -720.9927064946149358 [Eh]
	-----------------------------------------------------------

  Dipole Moment: [D]
     X:    -1.3822      Y:     2.0805      Z:    -1.2701     Total:     2.8021

*** Psi4 exiting successfully. Buy a developer a beer!
