                               Psi4 1.3.2 release

  ==> Input File <==

--------------------------------------------------------------------------
#psi4
#
memory 32 gb

molecule  {
0 1
  S        2.2579180    -0.2726900    -0.2934460
  O       -2.2551230    -0.6936910    -0.5624970
  O       -0.5935940    -1.5242440     0.7320250
  N       -1.2606890     1.7473760     0.2743420
  C       -0.3743770     0.7050360    -0.2599020
  C        0.9828140     0.8061630     0.4219110
  C       -1.0384360    -0.6244090     0.0410490
  H       -0.2310720     0.7525000    -1.3524110
  H        1.3604600     1.8262100     0.3009430
  H        0.8701070     0.6147400     1.4903500
  H       -2.1754500     1.6690270    -0.1683570
  H       -0.8885410     2.6612730     0.0174870
  H        1.7323588    -1.4973240     0.2496326
  H       -2.6365250    -1.5573750    -0.2997250
units angstrom
no_reorient  #important for SAPT in psi4, default
symmetry c1  #important for SAPT in psi4, default
}

set PROPERTIES_ORIGIN ["COM"]
properties('MP2/aug-cc-pvtz', properties = ['dipole'])
--------------------------------------------------------------------------

    Molecular point group: c1
  Charge       = 0
  Multiplicity = 1
  Basis Set: AUG-CC-PVTZ
    Blend: AUG-CC-PVTZ
  Basis Set: (AUG-CC-PVTZ AUX)
    Blend: AUG-CC-PVTZ-JKFIT

    Orbital Energies [Eh]
    ---------------------

    Doubly Occupied:

       1A    -91.956049     2A    -20.628578     3A    -20.565798
       4A    -15.570018     5A    -11.401809     6A    -11.294745
       7A    -11.268448     8A     -8.955337     9A     -6.636560
      10A     -6.635665    11A     -6.634791    12A     -1.473840
      13A     -1.371147    14A     -1.216585    15A     -1.061094
      16A     -0.961383    17A     -0.872396    18A     -0.789825
      19A     -0.720639    20A     -0.716366    21A     -0.671316
      22A     -0.656135    23A     -0.623489    24A     -0.602912
      25A     -0.564151    26A     -0.557008    27A     -0.517938
      28A     -0.494382    29A     -0.474840    30A     -0.445286
      31A     -0.423016    32A     -0.358174

  @DF-RHF Final Energy:  -719.53307133470241

   => Energetics <=

    Nuclear Repulsion Energy =            379.7073758935829346
    One-Electron Energy =               -1744.2414522417107037
    Two-Electron Energy =                 645.0010050134252424
    Total Energy =                       -719.5330713347024130
  Basis Set: (AUG-CC-PVTZ AUX)
    Blend: AUG-CC-PVTZ-RI
    Molecular point group: c1

    Geometry (in Angstrom), charge = 0, multiplicity = 1:

       Center              X                  Y                   Z               Mass
    ------------   -----------------  -----------------  -----------------  -----------------
         S            2.242815065080    -0.234844870183    -0.292186851344    31.972071174400
         O           -2.270225934920    -0.655845870183    -0.561237851344    15.994914619570
         O           -0.608696934920    -1.486398870183     0.733284148656    15.994914619570
         N           -1.275791934920     1.785221129817     0.275601148656    14.003074004430
         C           -0.389479934920     0.742881129817    -0.258642851344    12.000000000000
         C            0.967711065080     0.844008129817     0.423170148656    12.000000000000
         C           -1.053538934920    -0.586563870183     0.042308148656    12.000000000000
         H           -0.246174934920     0.790345129817    -1.351151851344     1.007825032230
         H            1.345357065080     1.864055129817     0.302202148656     1.007825032230
         H            0.855004065080     0.652585129817     1.491609148656     1.007825032230
         H           -2.190552934920     1.706872129817    -0.167097851344     1.007825032230
         H           -0.903643934920     2.699118129817     0.018746148656     1.007825032230
         H            1.717255865080    -1.459478870183     0.250891748656     1.007825032230
         H           -2.651627934920    -1.519529870183    -0.298465851344     1.007825032230

  Basis Set: AUG-CC-PVTZ
    Blend: AUG-CC-PVTZ
  Basis Set: (AUG-CC-PVTZ AUX)
    Blend: AUG-CC-PVTZ-JKFIT
	 Reference Energy          =    -719.5330713347024130 [Eh]
	 Singles Energy            =      -0.0000000000000000 [Eh]
	 Same-Spin Energy          =      -0.3749823955524437 [Eh]
	 Opposite-Spin Energy      =      -1.1602072633532052 [Eh]
	 Correlation Energy        =      -1.5351896589056488 [Eh]
	 Total Energy              =    -721.0682609936080780 [Eh]

	 ================> DF-SCS-MP2 Energies <==================
	-----------------------------------------------------------
	 SCS Same-Spin Scale       =       0.3333333333333333 [-]
	 SCS Opposite-Spin Scale   =       1.2000000000000000 [-]
	 SCS Same-Spin Energy      =      -0.1249941318508146 [Eh]
	 SCS Opposite-Spin Energy  =      -1.3922487160238461 [Eh]
	 SCS Correlation Energy    =      -1.5172428478746607 [Eh]
	 SCS Total Energy          =    -721.0503141825770399 [Eh]
	-----------------------------------------------------------

  Dipole Moment: [D]
     X:    -2.0584      Y:     1.2639      Z:    -1.1910     Total:     2.6931

*** Psi4 exiting successfully. Buy a developer a beer!
