                               Psi4 1.3.2 release

  ==> Input File <==

--------------------------------------------------------------------------
#psi4
#
memory 32 gb

molecule  {
0 1
  S        2.2579180    -0.2726900    -0.2934460
  O       -2.2551230    -0.6936910    -0.5624970
  O       -0.6111305    -1.5356375     0.7281501
  N       -1.2606890     1.7473760     0.2743420
  C       -0.3743770     0.7050360    -0.2599020
  C        0.9828140     0.8061630     0.4219110
  C       -1.0384360    -0.6244090     0.0410490
  H       -0.2310720     0.7525000    -1.3524110
  H        1.3604600     1.8262100     0.3009430
  H        0.8701070     0.6147400     1.4903500
  H       -2.1754500     1.6690270    -0.1683570
  H       -0.8885410     2.6612730     0.0174870
  H        1.7688800    -1.4122240     0.2118940
  H       -2.6365250    -1.5573750    -0.2997250
units angstrom
no_reorient  #important for SAPT in psi4, default
symmetry c1  #important for SAPT in psi4, default
}

set PROPERTIES_ORIGIN ["COM"]
properties('MP2/aug-cc-pvtz', properties = ['dipole'])
--------------------------------------------------------------------------

    Molecular point group: c1
  Charge       = 0
  Multiplicity = 1
  Basis Set: AUG-CC-PVTZ
    Blend: AUG-CC-PVTZ
  Basis Set: (AUG-CC-PVTZ AUX)
    Blend: AUG-CC-PVTZ-JKFIT

    Orbital Energies [Eh]
    ---------------------

    Doubly Occupied:

       1A    -91.950729     2A    -20.626579     3A    -20.565192
       4A    -15.570451     5A    -11.401291     6A    -11.295804
       7A    -11.269112     8A     -8.952165     9A     -6.633529
      10A     -6.632590    11A     -6.631597    12A     -1.473476
      13A     -1.369087    14A     -1.217171    15A     -1.064244
      16A     -0.965173    17A     -0.879552    18A     -0.790831
      19A     -0.719776    20A     -0.716178    21A     -0.671920
      22A     -0.657387    23A     -0.623266    24A     -0.602660
      25A     -0.568033    26A     -0.557693    27A     -0.524962
      28A     -0.494455    29A     -0.474680    30A     -0.450534
      31A     -0.423613    32A     -0.359661

  @DF-RHF Final Energy:  -719.53884470242338

   => Energetics <=

    Nuclear Repulsion Energy =            379.9886537144712975
    One-Electron Energy =               -1744.7882196241250767
    Two-Electron Energy =                 645.2607212072302900
    Total Energy =                       -719.5388447024233756
  Basis Set: (AUG-CC-PVTZ AUX)
    Blend: AUG-CC-PVTZ-RI
    Molecular point group: c1

    Geometry (in Angstrom), charge = 0, multiplicity = 1:

       Center              X                  Y                   Z               Mass
    ------------   -----------------  -----------------  -----------------  -----------------
         S            2.244828685513    -0.234047709805    -0.291360435815    31.972071174400
         O           -2.268212314487    -0.655048709805    -0.560411435815    15.994914619570
         O           -0.624219814487    -1.496995209805     0.730235664185    15.994914619570
         N           -1.273778314487     1.786018290195     0.276427564185    14.003074004430
         C           -0.387466314487     0.743678290195    -0.257816435815    12.000000000000
         C            0.969724685513     0.844805290195     0.423996564185    12.000000000000
         C           -1.051525314487    -0.585766709805     0.043134564185    12.000000000000
         H           -0.244161314487     0.791142290195    -1.350325435815     1.007825032230
         H            1.347370685513     1.864852290195     0.303028564185     1.007825032230
         H            0.857017685513     0.653382290195     1.492435564185     1.007825032230
         H           -2.188539314487     1.707669290195    -0.166271435815     1.007825032230
         H           -0.901630314487     2.699915290195     0.019572564185     1.007825032230
         H            1.755790685513    -1.373581709805     0.213979564185     1.007825032230
         H           -2.649614314487    -1.518732709805    -0.297639435815     1.007825032230

  Basis Set: AUG-CC-PVTZ
    Blend: AUG-CC-PVTZ
  Basis Set: (AUG-CC-PVTZ AUX)
    Blend: AUG-CC-PVTZ-JKFIT
	 Reference Energy          =    -719.5388447024233756 [Eh]
	 Singles Energy            =      -0.0000000000000000 [Eh]
	 Same-Spin Energy          =      -0.3747220780978385 [Eh]
	 Opposite-Spin Energy      =      -1.1592832036569385 [Eh]
	 Correlation Energy        =      -1.5340052817547769 [Eh]
	 Total Energy              =    -721.0728499841781058 [Eh]

	 ================> DF-SCS-MP2 Energies <==================
	-----------------------------------------------------------
	 SCS Same-Spin Scale       =       0.3333333333333333 [-]
	 SCS Opposite-Spin Scale   =       1.2000000000000000 [-]
	 SCS Same-Spin Energy      =      -0.1249073593659462 [Eh]
	 SCS Opposite-Spin Energy  =      -1.3911398443883261 [Eh]
	 SCS Correlation Energy    =      -1.5160472037542723 [Eh]
	 SCS Total Energy          =    -721.0548919061776587 [Eh]
	-----------------------------------------------------------

  Dipole Moment: [D]
     X:    -1.9690      Y:     1.3251      Z:    -1.2018     Total:     2.6603

*** Psi4 exiting successfully. Buy a developer a beer!
