                               Psi4 1.4a3.dev225

  ==> Input File <==

--------------------------------------------------------------------------
#psi4
#
memory 32 gb

molecule  {
0 1
  S        2.2579050    -0.2727850    -0.2934720
  O       -2.2550500    -0.6937950    -0.5626610
  O       -0.5937490    -1.5240650     0.7322790
  N       -1.2606540     1.7474040     0.2743750
  C       -0.4045278     0.7405447    -0.2417672
  C        0.9828610     0.8061940     0.4218890
  C       -1.0384730    -0.6243520     0.0410630
  H       -0.2310980     0.7525420    -1.3524390
  H        1.3604840     1.8262480     0.3009370
  H        0.8701350     0.6147610     1.4903210
  H       -2.1753310     1.6691650    -0.1685200
  H       -0.8883350     2.6612490     0.0175910
  H        1.7689400    -1.4123290     0.2119310
  H       -2.6364810    -1.5574560    -0.2998170
units angstrom
no_reorient  #important for SAPT in psi4, default
symmetry c1  #important for SAPT in psi4, default
}

set PROPERTIES_ORIGIN ["COM"]
properties('MP2/aug-cc-pvtz', properties = ['dipole'])
--------------------------------------------------------------------------

    Molecular point group: c1
  Charge       = 0
  Multiplicity = 1
  Basis Set: AUG-CC-PVTZ
    Blend: AUG-CC-PVTZ
  Basis Set: (AUG-CC-PVTZ AUX)
    Blend: AUG-CC-PVTZ-JKFIT

    Orbital Energies [Eh]
    ---------------------

    Doubly Occupied:

       1A    -91.950579     2A    -20.627472     3A    -20.565442
       4A    -15.570462     5A    -11.400692     6A    -11.295629
       7A    -11.267796     8A     -8.951884     9A     -6.633254
      10A     -6.632305    11A     -6.631322    12A     -1.472762
      13A     -1.370074    14A     -1.230785    15A     -1.060397
      16A     -0.961211    17A     -0.877999    18A     -0.789036
      19A     -0.720684    20A     -0.713404    21A     -0.680068
      22A     -0.659759    23A     -0.622937    24A     -0.608524
      25A     -0.564732    26A     -0.550215    27A     -0.524635
      28A     -0.495942    29A     -0.476526    30A     -0.449373
      31A     -0.419127    32A     -0.358699

  @DF-RHF Final Energy:  -719.53628090253198

   => Energetics <=

    Nuclear Repulsion Energy =            380.0806082969651243
    One-Electron Energy =               -1744.9663225870278893
    Two-Electron Energy =                 645.3494333875308939
    Total Energy =                       -719.5362809025319848
  Basis Set: (AUG-CC-PVTZ AUX)
    Blend: AUG-CC-PVTZ-RI
    Molecular point group: c1

    Geometry (in Angstrom), charge = 0, multiplicity = 1:

       Center              X                  Y                   Z               Mass
    ------------   -----------------  -----------------  -----------------  -----------------
         S            2.245493040506    -0.239166534811    -0.293703349214    31.972071174400
         O           -2.267461959494    -0.660176534811    -0.562892349214    15.994914619570
         O           -0.606160959494    -1.490446534811     0.732047650786    15.994914619570
         N           -1.273065959494     1.781022465189     0.274143650786    14.003074004430
         C           -0.416939759494     0.774163165189    -0.241998549214    12.000000000000
         C            0.970449040506     0.839812465189     0.421657650786    12.000000000000
         C           -1.050884959494    -0.590733534811     0.040831650786    12.000000000000
         H           -0.243509959494     0.786160465189    -1.352670349214     1.007825032230
         H            1.348072040506     1.859866465189     0.300705650786     1.007825032230
         H            0.857723040506     0.648379465189     1.490089650786     1.007825032230
         H           -2.187742959494     1.702783465189    -0.168751349214     1.007825032230
         H           -0.900746959494     2.694867465189     0.017359650786     1.007825032230
         H            1.756528040506    -1.378710534811     0.211699650786     1.007825032230
         H           -2.648892959494    -1.523837534811    -0.300048349214     1.007825032230

  Basis Set: AUG-CC-PVTZ
    Blend: AUG-CC-PVTZ
  Basis Set: (AUG-CC-PVTZ AUX)
    Blend: AUG-CC-PVTZ-JKFIT
	 Reference Energy          =    -719.5362809025319848 [Eh]
	 Singles Energy            =      -0.0000000000000000 [Eh]
	 Same-Spin Energy          =      -0.3749641558110572 [Eh]
	 Opposite-Spin Energy      =      -1.1593458020984038 [Eh]
	 Correlation Energy        =      -1.5343099579094610 [Eh]
	 Total Energy              =    -721.0705908604414844 [Eh]

	 ================> DF-SCS-MP2 Energies <==================
	-----------------------------------------------------------
	 SCS Same-Spin Scale       =       0.3333333333333333 [-]
	 SCS Opposite-Spin Scale   =       1.2000000000000000 [-]
	 SCS Same-Spin Energy      =      -0.1249880519370191 [Eh]
	 SCS Opposite-Spin Energy  =      -1.3912149625180845 [Eh]
	 SCS Correlation Energy    =      -1.5162030144551035 [Eh]
	 SCS Total Energy          =    -721.0524839169870575 [Eh]
	-----------------------------------------------------------

  Dipole Moment: [D]
     X:    -2.0935      Y:     1.3487      Z:    -1.1509     Total:     2.7434

*** Psi4 exiting successfully. Buy a developer a beer!
