                               Psi4 1.4a3.dev225

  ==> Input File <==

--------------------------------------------------------------------------
#psi4
#
memory 32 gb

molecule  {
0 1
  S        2.2579050    -0.2727850    -0.2934720
  O       -2.2550500    -0.6937950    -0.5626610
  O       -0.5937490    -1.5240650     0.7322790
  N       -1.2606540     1.7474040     0.2743750
  C       -0.3441882     0.6695813    -0.2781448
  C        0.9828610     0.8061940     0.4218890
  C       -1.0384730    -0.6243520     0.0410630
  H       -0.2310980     0.7525420    -1.3524390
  H        1.3604840     1.8262480     0.3009370
  H        0.8701350     0.6147610     1.4903210
  H       -2.1753310     1.6691650    -0.1685200
  H       -0.8883350     2.6612490     0.0175910
  H        1.7689400    -1.4123290     0.2119310
  H       -2.6364810    -1.5574560    -0.2998170
units angstrom
no_reorient  #important for SAPT in psi4, default
symmetry c1  #important for SAPT in psi4, default
}

set PROPERTIES_ORIGIN ["COM"]
properties('MP2/aug-cc-pvtz', properties = ['dipole'])
--------------------------------------------------------------------------

    Molecular point group: c1
  Charge       = 0
  Multiplicity = 1
  Basis Set: AUG-CC-PVTZ
    Blend: AUG-CC-PVTZ
  Basis Set: (AUG-CC-PVTZ AUX)
    Blend: AUG-CC-PVTZ-JKFIT

    Orbital Energies [Eh]
    ---------------------

    Doubly Occupied:

       1A    -91.949714     2A    -20.629209     3A    -20.565679
       4A    -15.569484     5A    -11.402351     6A    -11.294509
       7A    -11.269259     8A     -8.951293     9A     -6.632652
      10A     -6.631726    11A     -6.630726    12A     -1.474371
      13A     -1.371515    14A     -1.204618    15A     -1.066511
      16A     -0.967927    17A     -0.880516    18A     -0.793380
      19A     -0.720320    20A     -0.719916    21A     -0.665589
      22A     -0.654557    23A     -0.624386    24A     -0.596334
      25A     -0.571267    26A     -0.563750    27A     -0.524694
      28A     -0.494528    29A     -0.471792    30A     -0.450331
      31A     -0.425332    32A     -0.359299

  @DF-RHF Final Energy:  -719.53653978081434

   => Energetics <=

    Nuclear Repulsion Energy =            380.2742645036735212
    One-Electron Energy =               -1745.3665371535880695
    Two-Electron Energy =                 645.5557328691002112
    Total Energy =                       -719.5365397808143371
  Basis Set: (AUG-CC-PVTZ AUX)
    Blend: AUG-CC-PVTZ-RI
    Molecular point group: c1

    Geometry (in Angstrom), charge = 0, multiplicity = 1:

       Center              X                  Y                   Z               Mass
    ------------   -----------------  -----------------  -----------------  -----------------
         S            2.239509924510    -0.232129990755    -0.290096242099    31.972071174400
         O           -2.273445075490    -0.653139990755    -0.559285242099    15.994914619570
         O           -0.612144075490    -1.483409990755     0.735654757901    15.994914619570
         N           -1.279049075490     1.788059009245     0.277750757901    14.003074004430
         C           -0.362583275490     0.710236309245    -0.274769042099    12.000000000000
         C            0.964465924510     0.846849009245     0.425264757901    12.000000000000
         C           -1.056868075490    -0.583696990755     0.044438757901    12.000000000000
         H           -0.249493075490     0.793197009245    -1.349063242099     1.007825032230
         H            1.342088924510     1.866903009245     0.304312757901     1.007825032230
         H            0.851739924510     0.655416009245     1.493696757901     1.007825032230
         H           -2.193726075490     1.709820009245    -0.165144242099     1.007825032230
         H           -0.906730075490     2.701904009245     0.020966757901     1.007825032230
         H            1.750544924510    -1.371673990755     0.215306757901     1.007825032230
         H           -2.654876075490    -1.516800990755    -0.296441242099     1.007825032230

  Basis Set: AUG-CC-PVTZ
    Blend: AUG-CC-PVTZ
  Basis Set: (AUG-CC-PVTZ AUX)
    Blend: AUG-CC-PVTZ-JKFIT
	 Reference Energy          =    -719.5365397808143371 [Eh]
	 Singles Energy            =      -0.0000000000000000 [Eh]
	 Same-Spin Energy          =      -0.3748317564647636 [Eh]
	 Opposite-Spin Energy      =      -1.1598258787251012 [Eh]
	 Correlation Energy        =      -1.5346576351898649 [Eh]
	 Total Energy              =    -721.0711974160042246 [Eh]

	 ================> DF-SCS-MP2 Energies <==================
	-----------------------------------------------------------
	 SCS Same-Spin Scale       =       0.3333333333333333 [-]
	 SCS Opposite-Spin Scale   =       1.2000000000000000 [-]
	 SCS Same-Spin Energy      =      -0.1249439188215879 [Eh]
	 SCS Opposite-Spin Energy  =      -1.3917910544701215 [Eh]
	 SCS Correlation Energy    =      -1.5167349732917095 [Eh]
	 SCS Total Energy          =    -721.0532747541060417 [Eh]
	-----------------------------------------------------------

  Dipole Moment: [D]
     X:    -1.9607      Y:     1.2259      Z:    -1.2504     Total:     2.6288

*** Psi4 exiting successfully. Buy a developer a beer!
