                               Psi4 1.3.2 release

  ==> Input File <==

--------------------------------------------------------------------------
#psi4
#
memory 32 gb

molecule  {
0 1
  S        2.2579180    -0.2726900    -0.2934460
  O       -2.2551230    -0.6936910    -0.5624970
  O       -0.5935940    -1.5242440     0.7320250
  N       -1.2606890     1.7473760     0.2743420
  C       -0.3743770     0.7050360    -0.2599020
  C        0.9323854     0.7986605     0.5151267
  C       -1.0384360    -0.6244090     0.0410490
  H       -0.2310720     0.7525000    -1.3524110
  H        1.3604600     1.8262100     0.3009430
  H        0.8701070     0.6147400     1.4903500
  H       -2.1754500     1.6690270    -0.1683570
  H       -0.8885410     2.6612730     0.0174870
  H        1.7688800    -1.4122240     0.2118940
  H       -2.6365250    -1.5573750    -0.2997250
units angstrom
no_reorient  #important for SAPT in psi4, default
symmetry c1  #important for SAPT in psi4, default
}

set PROPERTIES_ORIGIN ["COM"]
properties('MP2/aug-cc-pvtz', properties = ['dipole'])
--------------------------------------------------------------------------

    Molecular point group: c1
  Charge       = 0
  Multiplicity = 1
  Basis Set: AUG-CC-PVTZ
    Blend: AUG-CC-PVTZ
  Basis Set: (AUG-CC-PVTZ AUX)
    Blend: AUG-CC-PVTZ-JKFIT

    Orbital Energies [Eh]
    ---------------------

    Doubly Occupied:

       1A    -91.948789     2A    -20.628509     3A    -20.566048
       4A    -15.569822     5A    -11.401478     6A    -11.296554
       7A    -11.269052     8A     -8.949429     9A     -6.630706
      10A     -6.629730    11A     -6.628798    12A     -1.473946
      13A     -1.371316    14A     -1.217995    15A     -1.057729
      16A     -0.960924    17A     -0.881695    18A     -0.796870
      19A     -0.724357    20A     -0.717894    21A     -0.672340
      22A     -0.655696    23A     -0.629860    24A     -0.601032
      25A     -0.581347    26A     -0.555660    27A     -0.513427
      28A     -0.492635    29A     -0.470792    30A     -0.447697
      31A     -0.424989    32A     -0.358877

  @DF-RHF Final Energy:  -719.52686002562496

   => Energetics <=

    Nuclear Repulsion Energy =            379.7033326146267314
    One-Electron Energy =               -1744.2084001180248833
    Two-Electron Energy =                 644.9782074777731395
    Total Energy =                       -719.5268600256249556
  Basis Set: (AUG-CC-PVTZ AUX)
    Blend: AUG-CC-PVTZ-RI
    Molecular point group: c1

    Geometry (in Angstrom), charge = 0, multiplicity = 1:

       Center              X                  Y                   Z               Mass
    ------------   -----------------  -----------------  -----------------  -----------------
         S            2.247511292118    -0.234809635523    -0.301115596424    31.972071174400
         O           -2.265529707882    -0.655810635523    -0.570166596424    15.994914619570
         O           -0.604000707882    -1.486363635523     0.724355403576    15.994914619570
         N           -1.271095707882     1.785256364477     0.266672403576    14.003074004430
         C           -0.384783707882     0.742916364477    -0.267571596424    12.000000000000
         C            0.921978692118     0.836540864477     0.507457103576    12.000000000000
         C           -1.048842707882    -0.586528635523     0.033379403576    12.000000000000
         H           -0.241478707882     0.790380364477    -1.360080596424     1.007825032230
         H            1.350053292118     1.864090364477     0.293273403576     1.007825032230
         H            0.859700292118     0.652620364477     1.482680403576     1.007825032230
         H           -2.185856707882     1.706907364477    -0.176026596424     1.007825032230
         H           -0.898947707882     2.699153364477     0.009817403576     1.007825032230
         H            1.758473292118    -1.374343635523     0.204224403576     1.007825032230
         H           -2.646931707882    -1.519494635523    -0.307394596424     1.007825032230

  Basis Set: AUG-CC-PVTZ
    Blend: AUG-CC-PVTZ
  Basis Set: (AUG-CC-PVTZ AUX)
    Blend: AUG-CC-PVTZ-JKFIT
	 Reference Energy          =    -719.5268600256249556 [Eh]
	 Singles Energy            =      -0.0000000000000000 [Eh]
	 Same-Spin Energy          =      -0.3747432012921879 [Eh]
	 Opposite-Spin Energy      =      -1.1600295450399791 [Eh]
	 Correlation Energy        =      -1.5347727463321670 [Eh]
	 Total Energy              =    -721.0616327719570791 [Eh]

	 ================> DF-SCS-MP2 Energies <==================
	-----------------------------------------------------------
	 SCS Same-Spin Scale       =       0.3333333333333333 [-]
	 SCS Opposite-Spin Scale   =       1.2000000000000000 [-]
	 SCS Same-Spin Energy      =      -0.1249144004307293 [Eh]
	 SCS Opposite-Spin Energy  =      -1.3920354540479749 [Eh]
	 SCS Correlation Energy    =      -1.5169498544787041 [Eh]
	 SCS Total Energy          =    -721.0438098801037086 [Eh]
	-----------------------------------------------------------

  Dipole Moment: [D]
     X:    -2.1134      Y:     1.3058      Z:    -1.2036     Total:     2.7605

*** Psi4 exiting successfully. Buy a developer a beer!
