                               Psi4 1.3.2 release

  ==> Input File <==

--------------------------------------------------------------------------
#psi4
#
memory 32 gb

molecule  {
0 1
  S        2.3766922    -0.2022686    -0.1626562
  O       -2.2551230    -0.6936910    -0.5624970
  O       -0.5935940    -1.5242440     0.7320250
  N       -1.2606890     1.7473760     0.2743420
  C       -0.3743770     0.7050360    -0.2599020
  C        0.9828140     0.8061630     0.4219110
  C       -1.0384360    -0.6244090     0.0410490
  H       -0.2310720     0.7525000    -1.3524110
  H        1.3604600     1.8262100     0.3009430
  H        0.8701070     0.6147400     1.4903500
  H       -2.1754500     1.6690270    -0.1683570
  H       -0.8885410     2.6612730     0.0174870
  H        1.7688800    -1.4122240     0.2118940
  H       -2.6365250    -1.5573750    -0.2997250
units angstrom
no_reorient  #important for SAPT in psi4, default
symmetry c1  #important for SAPT in psi4, default
}

set PROPERTIES_ORIGIN ["COM"]
properties('MP2/aug-cc-pvtz', properties = ['dipole'])
--------------------------------------------------------------------------

    Molecular point group: c1
  Charge       = 0
  Multiplicity = 1
  Basis Set: AUG-CC-PVTZ
    Blend: AUG-CC-PVTZ
  Basis Set: (AUG-CC-PVTZ AUX)
    Blend: AUG-CC-PVTZ-JKFIT

    Orbital Energies [Eh]
    ---------------------

    Doubly Occupied:

       1A    -91.955459     2A    -20.629317     3A    -20.566914
       4A    -15.571722     5A    -11.402585     6A    -11.297334
       7A    -11.267390     8A     -8.955232     9A     -6.636482
      10A     -6.635528    11A     -6.634609    12A     -1.474620
      13A     -1.371850    14A     -1.217691    15A     -1.060837
      16A     -0.966038    17A     -0.874475    18A     -0.789618
      19A     -0.721079    20A     -0.716943    21A     -0.672505
      22A     -0.657309    23A     -0.623806    24A     -0.603840
      25A     -0.567648    26A     -0.556977    27A     -0.514192
      28A     -0.495044    29A     -0.475243    30A     -0.451163
      31A     -0.424305    32A     -0.358184

  @DF-RHF Final Energy:  -719.53424375756788

   => Energetics <=

    Nuclear Repulsion Energy =            377.5419287094192100
    One-Electron Energy =               -1739.8604650347322149
    Two-Electron Energy =                 642.7842925677451831
    Total Energy =                       -719.5342437575678787
  Basis Set: (AUG-CC-PVTZ AUX)
    Blend: AUG-CC-PVTZ-RI
    Molecular point group: c1

    Geometry (in Angstrom), charge = 0, multiplicity = 1:

       Center              X                  Y                   Z               Mass
    ------------   -----------------  -----------------  -----------------  -----------------
         S            2.329906302861    -0.183736713932    -0.195635982600    31.972071174400
         O           -2.301908897139    -0.675159113932    -0.595476782600    15.994914619570
         O           -0.640379897139    -1.505712113932     0.699045217400    15.994914619570
         N           -1.307474897139     1.765907886068     0.241362217400    14.003074004430
         C           -0.421162897139     0.723567886068    -0.292881782600    12.000000000000
         C            0.936028102861     0.824694886068     0.388931217400    12.000000000000
         C           -1.085221897139    -0.605877113932     0.008069217400    12.000000000000
         H           -0.277857897139     0.771031886068    -1.385390782600     1.007825032230
         H            1.313674102861     1.844741886068     0.267963217400     1.007825032230
         H            0.823321102861     0.633271886068     1.457370217400     1.007825032230
         H           -2.222235897139     1.687558886068    -0.201336782600     1.007825032230
         H           -0.935326897139     2.679804886068    -0.015492782600     1.007825032230
         H            1.722094102861    -1.393692113932     0.178914217400     1.007825032230
         H           -2.683310897139    -1.538843113932    -0.332704782600     1.007825032230

  Basis Set: AUG-CC-PVTZ
    Blend: AUG-CC-PVTZ
  Basis Set: (AUG-CC-PVTZ AUX)
    Blend: AUG-CC-PVTZ-JKFIT
	 Reference Energy          =    -719.5342437575678787 [Eh]
	 Singles Energy            =      -0.0000000000000000 [Eh]
	 Same-Spin Energy          =      -0.3747577859907487 [Eh]
	 Opposite-Spin Energy      =      -1.1598369297897324 [Eh]
	 Correlation Energy        =      -1.5345947157804811 [Eh]
	 Total Energy              =    -721.0688384733483645 [Eh]

	 ================> DF-SCS-MP2 Energies <==================
	-----------------------------------------------------------
	 SCS Same-Spin Scale       =       0.3333333333333333 [-]
	 SCS Opposite-Spin Scale   =       1.2000000000000000 [-]
	 SCS Same-Spin Energy      =      -0.1249192619969162 [Eh]
	 SCS Opposite-Spin Energy  =      -1.3918043157476789 [Eh]
	 SCS Correlation Energy    =      -1.5167235777445951 [Eh]
	 SCS Total Energy          =    -721.0509673353125208 [Eh]
	-----------------------------------------------------------

  Dipole Moment: [D]
     X:    -2.1428      Y:     1.2510      Z:    -1.3495     Total:     2.8245

*** Psi4 exiting successfully. Buy a developer a beer!
