                               Psi4 1.3.2 release

  ==> Input File <==

--------------------------------------------------------------------------
#psi4
#
memory 32 gb

molecule  {
0 1
  S        2.2579180    -0.2726900    -0.2934460
  O       -2.2551230    -0.6936910    -0.5624970
  O       -0.5935940    -1.5242440     0.7320250
  N       -1.2927999     1.7106864     0.2901934
  C       -0.3743770     0.7050360    -0.2599020
  C        0.9828140     0.8061630     0.4219110
  C       -1.0384360    -0.6244090     0.0410490
  H       -0.2310720     0.7525000    -1.3524110
  H        1.3604600     1.8262100     0.3009430
  H        0.8701070     0.6147400     1.4903500
  H       -2.1754500     1.6690270    -0.1683570
  H       -0.8885410     2.6612730     0.0174870
  H        1.7688800    -1.4122240     0.2118940
  H       -2.6365250    -1.5573750    -0.2997250
units angstrom
no_reorient  #important for SAPT in psi4, default
symmetry c1  #important for SAPT in psi4, default
}

set PROPERTIES_ORIGIN ["COM"]
properties('MP2/aug-cc-pvtz', properties = ['dipole'])
--------------------------------------------------------------------------

    Molecular point group: c1
  Charge       = 0
  Multiplicity = 1
  Basis Set: AUG-CC-PVTZ
    Blend: AUG-CC-PVTZ
  Basis Set: (AUG-CC-PVTZ AUX)
    Blend: AUG-CC-PVTZ-JKFIT

    Orbital Energies [Eh]
    ---------------------

    Doubly Occupied:

       1A    -91.950950     2A    -20.627360     3A    -20.564236
       4A    -15.573864     5A    -11.400026     6A    -11.294946
       7A    -11.269243     8A     -8.952362     9A     -6.633726
      10A     -6.632787    11A     -6.631795    12A     -1.472690
      13A     -1.369742    14A     -1.216323    15A     -1.063887
      16A     -0.963296    17A     -0.879663    18A     -0.790685
      19A     -0.719073    20A     -0.715830    21A     -0.675072
      22A     -0.650972    23A     -0.622420    24A     -0.598583
      25A     -0.566655    26A     -0.556758    27A     -0.525601
      28A     -0.494886    29A     -0.472898    30A     -0.450683
      31A     -0.426062    32A     -0.359898

  @DF-RHF Final Energy:  -719.53496685015034

   => Energetics <=

    Nuclear Repulsion Energy =            380.3410737822566716
    One-Electron Energy =               -1745.5061383561171624
    Two-Electron Energy =                 645.6300977237101506
    Total Energy =                       -719.5349668501503402
  Basis Set: (AUG-CC-PVTZ AUX)
    Blend: AUG-CC-PVTZ-RI
    Molecular point group: c1

    Geometry (in Angstrom), charge = 0, multiplicity = 1:

       Center              X                  Y                   Z               Mass
    ------------   -----------------  -----------------  -----------------  -----------------
         S            2.246226444881    -0.231308246822    -0.293706722456    31.972071174400
         O           -2.266814555119    -0.652309246822    -0.562757722456    15.994914619570
         O           -0.605285555119    -1.482862246822     0.731764277544    15.994914619570
         N           -1.304491455119     1.752068153178     0.289932677544    14.003074004430
         C           -0.386068555119     0.746417753178    -0.260162722456    12.000000000000
         C            0.971122444881     0.847544753178     0.421650277544    12.000000000000
         C           -1.050127555119    -0.583027246822     0.040788277544    12.000000000000
         H           -0.242763555119     0.793881753178    -1.352671722456     1.007825032230
         H            1.348768444881     1.867591753178     0.300682277544     1.007825032230
         H            0.858415444881     0.656121753178     1.490089277544     1.007825032230
         H           -2.187141555119     1.710408753178    -0.168617722456     1.007825032230
         H           -0.900232555119     2.702654753178     0.017226277544     1.007825032230
         H            1.757188444881    -1.370842246822     0.211633277544     1.007825032230
         H           -2.648216555119    -1.515993246822    -0.299985722456     1.007825032230

  Basis Set: AUG-CC-PVTZ
    Blend: AUG-CC-PVTZ
  Basis Set: (AUG-CC-PVTZ AUX)
    Blend: AUG-CC-PVTZ-JKFIT
	 Reference Energy          =    -719.5349668501503402 [Eh]
	 Singles Energy            =      -0.0000000000000000 [Eh]
	 Same-Spin Energy          =      -0.3750107105493201 [Eh]
	 Opposite-Spin Energy      =      -1.1600305818756791 [Eh]
	 Correlation Energy        =      -1.5350412924249992 [Eh]
	 Total Energy              =    -721.0700081425753751 [Eh]

	 ================> DF-SCS-MP2 Energies <==================
	-----------------------------------------------------------
	 SCS Same-Spin Scale       =       0.3333333333333333 [-]
	 SCS Opposite-Spin Scale   =       1.2000000000000000 [-]
	 SCS Same-Spin Energy      =      -0.1250035701831067 [Eh]
	 SCS Opposite-Spin Energy  =      -1.3920366982508148 [Eh]
	 SCS Correlation Energy    =      -1.5170402684339215 [Eh]
	 SCS Total Energy          =    -721.0520071185842426 [Eh]
	-----------------------------------------------------------

  Dipole Moment: [D]
     X:    -1.9552      Y:     1.3283      Z:    -1.2425     Total:     2.6704

*** Psi4 exiting successfully. Buy a developer a beer!
