                               Psi4 1.3.2 release

  ==> Input File <==

--------------------------------------------------------------------------
#psi4
#
memory 32 gb

molecule  {
0 1
  S        2.2151533    -0.2935715    -0.3353694
  O       -2.2551230    -0.6936910    -0.5624970
  O       -0.5935940    -1.5242440     0.7320250
  N       -1.2606890     1.7473760     0.2743420
  C       -0.3743770     0.7050360    -0.2599020
  C        0.9828140     0.8061630     0.4219110
  C       -1.0384360    -0.6244090     0.0410490
  H       -0.2310720     0.7525000    -1.3524110
  H        1.3604600     1.8262100     0.3009430
  H        0.8701070     0.6147400     1.4903500
  H       -2.1754500     1.6690270    -0.1683570
  H       -0.8885410     2.6612730     0.0174870
  H        1.7688800    -1.4122240     0.2118940
  H       -2.6365250    -1.5573750    -0.2997250
units angstrom
no_reorient  #important for SAPT in psi4, default
symmetry c1  #important for SAPT in psi4, default
}

set PROPERTIES_ORIGIN ["COM"]
properties('MP2/aug-cc-pvtz', properties = ['dipole'])
--------------------------------------------------------------------------

    Molecular point group: c1
  Charge       = 0
  Multiplicity = 1
  Basis Set: AUG-CC-PVTZ
    Blend: AUG-CC-PVTZ
  Basis Set: (AUG-CC-PVTZ AUX)
    Blend: AUG-CC-PVTZ-JKFIT

    Orbital Energies [Eh]
    ---------------------

    Doubly Occupied:

       1A    -91.948676     2A    -20.628033     3A    -20.565115
       4A    -15.569355     5A    -11.401131     6A    -11.293978
       7A    -11.268748     8A     -8.950612     9A     -6.632013
      10A     -6.631060    11A     -6.630051    12A     -1.473232
      13A     -1.370450    14A     -1.216208    15A     -1.064542
      16A     -0.964138    17A     -0.880668    18A     -0.791304
      19A     -0.720099    20A     -0.716152    21A     -0.671731
      22A     -0.657028    23A     -0.623630    24A     -0.602561
      25A     -0.567321    26A     -0.557500    27A     -0.526974
      28A     -0.494968    29A     -0.474366    30A     -0.449759
      31A     -0.422527    32A     -0.359098

  @DF-RHF Final Energy:  -719.53839346937218

   => Energetics <=

    Nuclear Repulsion Energy =            381.1070749912222482
    One-Electron Energy =               -1747.0448816587047531
    Two-Electron Energy =                 646.3994131981104374
    Total Energy =                       -719.5383934693721812
  Basis Set: (AUG-CC-PVTZ AUX)
    Blend: AUG-CC-PVTZ-RI
    Molecular point group: c1

    Geometry (in Angstrom), charge = 0, multiplicity = 1:

       Center              X                  Y                   Z               Mass
    ------------   -----------------  -----------------  -----------------  -----------------
         S            2.211044182672    -0.250918403751    -0.322720277075    31.972071174400
         O           -2.259232117328    -0.651037903751    -0.549847877075    15.994914619570
         O           -0.597703117328    -1.481590903751     0.744674122925    15.994914619570
         N           -1.264798117328     1.790029096249     0.286991122925    14.003074004430
         C           -0.378486117328     0.747689096249    -0.247252877075    12.000000000000
         C            0.978704882672     0.848816096249     0.434560122925    12.000000000000
         C           -1.042545117328    -0.581755903751     0.053698122925    12.000000000000
         H           -0.235181117328     0.795153096249    -1.339761877075     1.007825032230
         H            1.356350882672     1.868863096249     0.313592122925     1.007825032230
         H            0.865997882672     0.657393096249     1.502999122925     1.007825032230
         H           -2.179559117328     1.711680096249    -0.155707877075     1.007825032230
         H           -0.892650117328     2.703926096249     0.030136122925     1.007825032230
         H            1.764770882672    -1.369570903751     0.224543122925     1.007825032230
         H           -2.640634117328    -1.514721903751    -0.287075877075     1.007825032230

  Basis Set: AUG-CC-PVTZ
    Blend: AUG-CC-PVTZ
  Basis Set: (AUG-CC-PVTZ AUX)
    Blend: AUG-CC-PVTZ-JKFIT
	 Reference Energy          =    -719.5383934693721812 [Eh]
	 Singles Energy            =      -0.0000000000000000 [Eh]
	 Same-Spin Energy          =      -0.3748917181801086 [Eh]
	 Opposite-Spin Energy      =      -1.1594487696952591 [Eh]
	 Correlation Energy        =      -1.5343404878753677 [Eh]
	 Total Energy              =    -721.0727339572475785 [Eh]

	 ================> DF-SCS-MP2 Energies <==================
	-----------------------------------------------------------
	 SCS Same-Spin Scale       =       0.3333333333333333 [-]
	 SCS Opposite-Spin Scale   =       1.2000000000000000 [-]
	 SCS Same-Spin Energy      =      -0.1249639060600362 [Eh]
	 SCS Opposite-Spin Energy  =      -1.3913385236343110 [Eh]
	 SCS Correlation Energy    =      -1.5163024296943473 [Eh]
	 SCS Total Energy          =    -721.0546958990664734 [Eh]
	-----------------------------------------------------------

  Dipole Moment: [D]
     X:    -1.9809      Y:     1.2926      Z:    -1.1579     Total:     2.6335

*** Psi4 exiting successfully. Buy a developer a beer!
