                               Psi4 1.3.2 release

  ==> Input File <==

--------------------------------------------------------------------------
#psi4
#
memory 32 gb

molecule  {
0 1
  S        2.2579180    -0.2726900    -0.2934460
  O       -2.2676038    -0.8235903    -0.5056396
  O       -0.5935940    -1.5242440     0.7320250
  N       -1.2606890     1.7473760     0.2743420
  C       -0.3743770     0.7050360    -0.2599020
  C        0.9828140     0.8061630     0.4219110
  C       -1.0384360    -0.6244090     0.0410490
  H       -0.2310720     0.7525000    -1.3524110
  H        1.3604600     1.8262100     0.3009430
  H        0.8701070     0.6147400     1.4903500
  H       -2.1754500     1.6690270    -0.1683570
  H       -0.8885410     2.6612730     0.0174870
  H        1.7688800    -1.4122240     0.2118940
  H       -2.6365250    -1.5573750    -0.2997250
units angstrom
no_reorient  #important for SAPT in psi4, default
symmetry c1  #important for SAPT in psi4, default
}

set PROPERTIES_ORIGIN ["COM"]
properties('MP2/aug-cc-pvtz', properties = ['dipole'])
--------------------------------------------------------------------------

    Molecular point group: c1
  Charge       = 0
  Multiplicity = 1
  Basis Set: AUG-CC-PVTZ
    Blend: AUG-CC-PVTZ
  Basis Set: (AUG-CC-PVTZ AUX)
    Blend: AUG-CC-PVTZ-JKFIT

    Orbital Energies [Eh]
    ---------------------

    Doubly Occupied:

       1A    -91.951547     2A    -20.606996     3A    -20.559111
       4A    -15.573544     5A    -11.402437     6A    -11.301714
       7A    -11.271850     8A     -8.952994     9A     -6.634357
      10A     -6.633422    11A     -6.632428    12A     -1.489475
      13A     -1.372571    14A     -1.221088    15A     -1.066392
      16A     -0.974640    17A     -0.894880    18A     -0.817978
      19A     -0.723747    20A     -0.714383    21A     -0.672732
      22A     -0.661039    23A     -0.621833    24A     -0.601968
      25A     -0.569950    26A     -0.562090    27A     -0.525303
      28A     -0.490586    29A     -0.473950    30A     -0.450896
      31A     -0.426301    32A     -0.360755

  @DF-RHF Final Energy:  -719.52356427597613

   => Energetics <=

    Nuclear Repulsion Energy =            380.1982012009247569
    One-Electron Energy =               -1745.0176200455152866
    Two-Electron Energy =                 645.2958545686143452
    Total Energy =                       -719.5235642759761276
  Basis Set: (AUG-CC-PVTZ AUX)
    Blend: AUG-CC-PVTZ-RI
    Molecular point group: c1

    Geometry (in Angstrom), charge = 0, multiplicity = 1:

       Center              X                  Y                   Z               Mass
    ------------   -----------------  -----------------  -----------------  -----------------
         S            2.244160484743    -0.218385058390    -0.299387290572    31.972071174400
         O           -2.281361315257    -0.769285358390    -0.511580890572    15.994914619570
         O           -0.607351515257    -1.469939058390     0.726083709428    15.994914619570
         N           -1.274446515257     1.801680941610     0.268400709428    14.003074004430
         C           -0.388134515257     0.759340941610    -0.265843290572    12.000000000000
         C            0.969056484743     0.860467941610     0.415969709428    12.000000000000
         C           -1.052193515257    -0.570104058390     0.035107709428    12.000000000000
         H           -0.244829515257     0.806804941610    -1.358352290572     1.007825032230
         H            1.346702484743     1.880514941610     0.295001709428     1.007825032230
         H            0.856349484743     0.669044941610     1.484408709428     1.007825032230
         H           -2.189207515257     1.723331941610    -0.174298290572     1.007825032230
         H           -0.902298515257     2.715577941610     0.011545709428     1.007825032230
         H            1.755122484743    -1.357919058390     0.205952709428     1.007825032230
         H           -2.650282515257    -1.503070058390    -0.305666290572     1.007825032230

  Basis Set: AUG-CC-PVTZ
    Blend: AUG-CC-PVTZ
  Basis Set: (AUG-CC-PVTZ AUX)
    Blend: AUG-CC-PVTZ-JKFIT
	 Reference Energy          =    -719.5235642759761276 [Eh]
	 Singles Energy            =      -0.0000000000000000 [Eh]
	 Same-Spin Energy          =      -0.3723858197073457 [Eh]
	 Opposite-Spin Energy      =      -1.1545385327417825 [Eh]
	 Correlation Energy        =      -1.5269243524491283 [Eh]
	 Total Energy              =    -721.0504886284252279 [Eh]

	 ================> DF-SCS-MP2 Energies <==================
	-----------------------------------------------------------
	 SCS Same-Spin Scale       =       0.3333333333333333 [-]
	 SCS Opposite-Spin Scale   =       1.2000000000000000 [-]
	 SCS Same-Spin Energy      =      -0.1241286065691152 [Eh]
	 SCS Opposite-Spin Energy  =      -1.3854462392901390 [Eh]
	 SCS Correlation Energy    =      -1.5095748458592542 [Eh]
	 SCS Total Energy          =    -721.0331391218353474 [Eh]
	-----------------------------------------------------------

  Dipole Moment: [D]
     X:    -1.8398      Y:     1.5526      Z:    -1.2338     Total:     2.7052

*** Psi4 exiting successfully. Buy a developer a beer!
