                               Psi4 1.4a3.dev225

  ==> Input File <==

--------------------------------------------------------------------------
#psi4
#
memory 32 gb

molecule  {
0 1
  S        2.2579050    -0.2727850    -0.2934720
  O       -2.2550500    -0.6937950    -0.5626610
  O       -0.5937490    -1.5240650     0.7322790
  N       -1.2606540     1.7474040     0.2743750
  C       -0.3622901     0.6908703    -0.2672315
  C        0.9828610     0.8061940     0.4218890
  C       -1.0384730    -0.6243520     0.0410630
  H       -0.2310980     0.7525420    -1.3524390
  H        1.3604840     1.8262480     0.3009370
  H        0.8701350     0.6147610     1.4903210
  H       -2.1753310     1.6691650    -0.1685200
  H       -0.8883350     2.6612490     0.0175910
  H        1.7689400    -1.4123290     0.2119310
  H       -2.6364810    -1.5574560    -0.2998170
units angstrom
no_reorient  #important for SAPT in psi4, default
symmetry c1  #important for SAPT in psi4, default
}

set PROPERTIES_ORIGIN ["COM"]
properties('MP2/aug-cc-pvtz', properties = ['dipole'])
--------------------------------------------------------------------------

    Molecular point group: c1
  Charge       = 0
  Multiplicity = 1
  Basis Set: AUG-CC-PVTZ
    Blend: AUG-CC-PVTZ
  Basis Set: (AUG-CC-PVTZ AUX)
    Blend: AUG-CC-PVTZ-JKFIT

    Orbital Energies [Eh]
    ---------------------

    Doubly Occupied:

       1A    -91.949958     2A    -20.628711     3A    -20.565636
       4A    -15.569818     5A    -11.401834     6A    -11.294598
       7A    -11.268774     8A     -8.951454     9A     -6.632817
      10A     -6.631884    11A     -6.630889    12A     -1.473913
      13A     -1.371097    14A     -1.211557    15A     -1.064752
      16A     -0.966037    17A     -0.879801    18A     -0.791963
      19A     -0.720304    20A     -0.717714    21A     -0.669144
      22A     -0.656151    23A     -0.623974    24A     -0.600279
      25A     -0.568766    26A     -0.559930    27A     -0.524750
      28A     -0.494937    29A     -0.473594    30A     -0.450168
      31A     -0.424128    32A     -0.359205

  @DF-RHF Final Energy:  -719.53839647883171

   => Energetics <=

    Nuclear Repulsion Energy =            380.2111352842447900
    One-Electron Energy =               -1745.2419884845419347
    Two-Electron Energy =                 645.4924567214653734
    Total Energy =                       -719.5383964788317144
  Basis Set: (AUG-CC-PVTZ AUX)
    Blend: AUG-CC-PVTZ-RI
    Molecular point group: c1

    Geometry (in Angstrom), charge = 0, multiplicity = 1:

       Center              X                  Y                   Z               Mass
    ------------   -----------------  -----------------  -----------------  -----------------
         S            2.241304861292    -0.234240951989    -0.291178376217    31.972071174400
         O           -2.271650138708    -0.655250951989    -0.560367376217    15.994914619570
         O           -0.610349138708    -1.485520951989     0.734572623783    15.994914619570
         N           -1.277254138708     1.785948048011     0.276668623783    14.003074004430
         C           -0.378890238708     0.729414348011    -0.264937876217    12.000000000000
         C            0.966260861292     0.844738048011     0.424182623783    12.000000000000
         C           -1.055073138708    -0.585807951989     0.043356623783    12.000000000000
         H           -0.247698138708     0.791086048011    -1.350145376217     1.007825032230
         H            1.343883861292     1.864792048011     0.303230623783     1.007825032230
         H            0.853534861292     0.653305048011     1.492614623783     1.007825032230
         H           -2.191931138708     1.707709048011    -0.166226376217     1.007825032230
         H           -0.904935138708     2.699793048011     0.019884623783     1.007825032230
         H            1.752339861292    -1.373784951989     0.214224623783     1.007825032230
         H           -2.653081138708    -1.518911951989    -0.297523376217     1.007825032230

  Basis Set: AUG-CC-PVTZ
    Blend: AUG-CC-PVTZ
  Basis Set: (AUG-CC-PVTZ AUX)
    Blend: AUG-CC-PVTZ-JKFIT
	 Reference Energy          =    -719.5383964788317144 [Eh]
	 Singles Energy            =      -0.0000000000000000 [Eh]
	 Same-Spin Energy          =      -0.3747845285430700 [Eh]
	 Opposite-Spin Energy      =      -1.1595290964234670 [Eh]
	 Correlation Energy        =      -1.5343136249665370 [Eh]
	 Total Energy              =    -721.0727101037982720 [Eh]

	 ================> DF-SCS-MP2 Energies <==================
	-----------------------------------------------------------
	 SCS Same-Spin Scale       =       0.3333333333333333 [-]
	 SCS Opposite-Spin Scale   =       1.2000000000000000 [-]
	 SCS Same-Spin Energy      =      -0.1249281761810233 [Eh]
	 SCS Opposite-Spin Energy  =      -1.3914349157081605 [Eh]
	 SCS Correlation Energy    =      -1.5163630918891837 [Eh]
	 SCS Total Energy          =    -721.0547595707208757 [Eh]
	-----------------------------------------------------------

  Dipole Moment: [D]
     X:    -1.9986      Y:     1.2592      Z:    -1.2248     Total:     2.6609

*** Psi4 exiting successfully. Buy a developer a beer!
