                               Psi4 1.3.2 release

  ==> Input File <==

--------------------------------------------------------------------------
#psi4
#
memory 32 gb

molecule  {
0 1
  S        2.2579180    -0.2726900    -0.2934460
  O       -2.2551230    -0.6936910    -0.5624970
  O       -0.5935940    -1.5242440     0.7320250
  N       -1.2606890     1.7473760     0.2743420
  C       -0.3743770     0.7050360    -0.2599020
  C        0.9691221     0.7807755     0.4350903
  C       -1.0384360    -0.6244090     0.0410490
  H       -0.2310720     0.7525000    -1.3524110
  H        1.3604600     1.8262100     0.3009430
  H        0.8701070     0.6147400     1.4903500
  H       -2.1754500     1.6690270    -0.1683570
  H       -0.8885410     2.6612730     0.0174870
  H        1.7688800    -1.4122240     0.2118940
  H       -2.6365250    -1.5573750    -0.2997250
units angstrom
no_reorient  #important for SAPT in psi4, default
symmetry c1  #important for SAPT in psi4, default
}

set PROPERTIES_ORIGIN ["COM"]
properties('MP2/aug-cc-pvtz', properties = ['dipole'])
--------------------------------------------------------------------------

    Molecular point group: c1
  Charge       = 0
  Multiplicity = 1
  Basis Set: AUG-CC-PVTZ
    Blend: AUG-CC-PVTZ
  Basis Set: (AUG-CC-PVTZ AUX)
    Blend: AUG-CC-PVTZ-JKFIT

    Orbital Energies [Eh]
    ---------------------

    Doubly Occupied:

       1A    -91.950599     2A    -20.628037     3A    -20.565594
       4A    -15.570096     5A    -11.401022     6A    -11.294537
       7A    -11.268754     8A     -8.951996     9A     -6.633353
      10A     -6.632391    11A     -6.631404    12A     -1.473438
      13A     -1.370806    14A     -1.216935    15A     -1.064303
      16A     -0.965024    17A     -0.878656    18A     -0.790449
      19A     -0.720824    20A     -0.716724    21A     -0.672018
      22A     -0.656520    23A     -0.623909    24A     -0.602057
      25A     -0.567076    26A     -0.560203    27A     -0.518228
      28A     -0.494819    29A     -0.475233    30A     -0.451429
      31A     -0.423644    32A     -0.359959

  @DF-RHF Final Energy:  -719.53738787277473

   => Energetics <=

    Nuclear Repulsion Energy =            380.4283492653554504
    One-Electron Energy =               -1745.6713971899248463
    Two-Electron Energy =                 645.7056600517947800
    Total Energy =                       -719.5373878727747297
  Basis Set: (AUG-CC-PVTZ AUX)
    Blend: AUG-CC-PVTZ-RI
    Molecular point group: c1

    Geometry (in Angstrom), charge = 0, multiplicity = 1:

       Center              X                  Y                   Z               Mass
    ------------   -----------------  -----------------  -----------------  -----------------
         S            2.243868577592    -0.233036205975    -0.293179397557    31.972071174400
         O           -2.269172422408    -0.654037205975    -0.562230397557    15.994914619570
         O           -0.607643422408    -1.484590205975     0.732291602443    15.994914619570
         N           -1.274738422408     1.787029794025     0.274608602443    14.003074004430
         C           -0.388426422408     0.744689794025    -0.259635397557    12.000000000000
         C            0.955072677592     0.820429294025     0.435356902443    12.000000000000
         C           -1.052485422408    -0.584755205975     0.041315602443    12.000000000000
         H           -0.245121422408     0.792153794025    -1.352144397557     1.007825032230
         H            1.346410577592     1.865863794025     0.301209602443     1.007825032230
         H            0.856057577592     0.654393794025     1.490616602443     1.007825032230
         H           -2.189499422408     1.708680794025    -0.168090397557     1.007825032230
         H           -0.902590422408     2.700926794025     0.017753602443     1.007825032230
         H            1.754830577592    -1.372570205975     0.212160602443     1.007825032230
         H           -2.650574422408    -1.517721205975    -0.299458397557     1.007825032230

  Basis Set: AUG-CC-PVTZ
    Blend: AUG-CC-PVTZ
  Basis Set: (AUG-CC-PVTZ AUX)
    Blend: AUG-CC-PVTZ-JKFIT
	 Reference Energy          =    -719.5373878727747297 [Eh]
	 Singles Energy            =      -0.0000000000000000 [Eh]
	 Same-Spin Energy          =      -0.3749741550969302 [Eh]
	 Opposite-Spin Energy      =      -1.1596839891091024 [Eh]
	 Correlation Energy        =      -1.5346581442060327 [Eh]
	 Total Energy              =    -721.0720460169807211 [Eh]

	 ================> DF-SCS-MP2 Energies <==================
	-----------------------------------------------------------
	 SCS Same-Spin Scale       =       0.3333333333333333 [-]
	 SCS Opposite-Spin Scale   =       1.2000000000000000 [-]
	 SCS Same-Spin Energy      =      -0.1249913850323101 [Eh]
	 SCS Opposite-Spin Energy  =      -1.3916207869309229 [Eh]
	 SCS Correlation Energy    =      -1.5166121719632331 [Eh]
	 SCS Total Energy          =    -721.0540000447380180 [Eh]
	-----------------------------------------------------------

  Dipole Moment: [D]
     X:    -2.0148      Y:     1.2679      Z:    -1.2122     Total:     2.6714

*** Psi4 exiting successfully. Buy a developer a beer!
