                               Psi4 1.3.2 release

  ==> Input File <==

--------------------------------------------------------------------------
#psi4
#
memory 32 gb

molecule  {
0 1
  S        2.2579180    -0.2726900    -0.2934460
  O       -2.2551230    -0.6936910    -0.5624970
  O       -0.5935940    -1.5242440     0.7320250
  N       -1.2606890     1.7473760     0.2743420
  C       -0.3743770     0.7050360    -0.2599020
  C        0.9828140     0.8061630     0.4219110
  C       -1.0384360    -0.6244090     0.0410490
  H       -0.2310720     0.7525000    -1.3524110
  H        1.3604600     1.8262100     0.3009430
  H        0.8701070     0.6147400     1.4903500
  H       -2.1754500     1.6690270    -0.1683570
  H       -0.8885410     2.6612730     0.0174870
  H        1.7688800    -1.4122240     0.2118940
  H       -2.6365250    -1.5573750    -0.2997250
units angstrom
no_reorient  #important for SAPT in psi4, default
symmetry c1  #important for SAPT in psi4, default
}

set PROPERTIES_ORIGIN ["COM"]
properties('MP2/aug-cc-pvtz', properties = ['dipole'])
--------------------------------------------------------------------------

    Molecular point group: c1
  Charge       = 0
  Multiplicity = 1
  Basis Set: AUG-CC-PVTZ
    Blend: AUG-CC-PVTZ
  Basis Set: (AUG-CC-PVTZ AUX)
    Blend: AUG-CC-PVTZ-JKFIT

    Orbital Energies [Eh]
    ---------------------

    Doubly Occupied:

       1A    -91.950126     2A    -20.628370     3A    -20.565605
       4A    -15.570007     5A    -11.401507     6A    -11.294777
       7A    -11.268466     8A     -8.951567     9A     -6.632933
      10A     -6.631995    11A     -6.631004    12A     -1.473600
      13A     -1.370823    14A     -1.216595    15A     -1.063550
      16A     -0.964725    17A     -0.879301    18A     -0.791058
      19A     -0.720362    20A     -0.716336    21A     -0.671922
      22A     -0.657181    23A     -0.623687    24A     -0.602833
      25A     -0.567391    26A     -0.557175    27A     -0.524751
      28A     -0.495228    29A     -0.474645    30A     -0.449998
      31A     -0.422998    32A     -0.359102

  @DF-RHF Final Energy:  -719.53876516439732

   => Energetics <=

    Nuclear Repulsion Energy =            380.1738591828201947
    One-Electron Energy =               -1745.1660106205599732
    Two-Electron Energy =                 645.4533862733424030
    Total Energy =                       -719.5387651643973186
  Basis Set: (AUG-CC-PVTZ AUX)
    Blend: AUG-CC-PVTZ-RI
    Molecular point group: c1

    Geometry (in Angstrom), charge = 0, multiplicity = 1:

       Center              X                  Y                   Z               Mass
    ------------   -----------------  -----------------  -----------------  -----------------
         S            2.242510924808    -0.235553563686    -0.291872572841    31.972071174400
         O           -2.270530075192    -0.656554563686    -0.560923572841    15.994914619570
         O           -0.609001075192    -1.487107563686     0.733598427159    15.994914619570
         N           -1.276096075192     1.784512436314     0.275915427159    14.003074004430
         C           -0.389784075192     0.742172436314    -0.258328572841    12.000000000000
         C            0.967406924808     0.843299436314     0.423484427159    12.000000000000
         C           -1.053843075192    -0.587272563686     0.042622427159    12.000000000000
         H           -0.246479075192     0.789636436314    -1.350837572841     1.007825032230
         H            1.345052924808     1.863346436314     0.302516427159     1.007825032230
         H            0.854699924808     0.651876436314     1.491923427159     1.007825032230
         H           -2.190857075192     1.706163436314    -0.166783572841     1.007825032230
         H           -0.903948075192     2.698409436314     0.019060427159     1.007825032230
         H            1.753472924808    -1.375087563686     0.213467427159     1.007825032230
         H           -2.651932075192    -1.520238563686    -0.298151572841     1.007825032230

  Basis Set: AUG-CC-PVTZ
    Blend: AUG-CC-PVTZ
  Basis Set: (AUG-CC-PVTZ AUX)
    Blend: AUG-CC-PVTZ-JKFIT
	 Reference Energy          =    -719.5387651643973186 [Eh]
	 Singles Energy            =      -0.0000000000000000 [Eh]
	 Same-Spin Energy          =      -0.3747953897040325 [Eh]
	 Opposite-Spin Energy      =      -1.1594040459190151 [Eh]
	 Correlation Energy        =      -1.5341994356230477 [Eh]
	 Total Energy              =    -721.0729646000203275 [Eh]

	 ================> DF-SCS-MP2 Energies <==================
	-----------------------------------------------------------
	 SCS Same-Spin Scale       =       0.3333333333333333 [-]
	 SCS Opposite-Spin Scale   =       1.2000000000000000 [-]
	 SCS Same-Spin Energy      =      -0.1249317965680108 [Eh]
	 SCS Opposite-Spin Energy  =      -1.3912848551028181 [Eh]
	 SCS Correlation Energy    =      -1.5162166516708289 [Eh]
	 SCS Total Energy          =    -721.0549818160681070 [Eh]
	-----------------------------------------------------------

  Dipole Moment: [D]
     X:    -2.0250      Y:     1.2828      Z:    -1.2056     Total:     2.6832

*** Psi4 exiting successfully. Buy a developer a beer!
