                               Psi4 1.3.2 release

  ==> Input File <==

--------------------------------------------------------------------------
#psi4
#
memory 32 gb

molecule  {
0 1
  S        2.2579180    -0.2726900    -0.2934460
  O       -2.2551230    -0.6936910    -0.5624970
  O       -0.5935940    -1.5242440     0.7320250
  N       -1.2606890     1.7473760     0.2743420
  C       -0.3743770     0.7050360    -0.2599020
  C        1.1231654     0.6874131     0.3431713
  C       -1.0384360    -0.6244090     0.0410490
  H       -0.2310720     0.7525000    -1.3524110
  H        1.3604600     1.8262100     0.3009430
  H        0.8701070     0.6147400     1.4903500
  H       -2.1754500     1.6690270    -0.1683570
  H       -0.8885410     2.6612730     0.0174870
  H        1.7688800    -1.4122240     0.2118940
  H       -2.6365250    -1.5573750    -0.2997250
units angstrom
no_reorient  #important for SAPT in psi4, default
symmetry c1  #important for SAPT in psi4, default
}

set PROPERTIES_ORIGIN ["COM"]
properties('MP2/aug-cc-pvtz', properties = ['dipole'])
--------------------------------------------------------------------------

    Molecular point group: c1
  Charge       = 0
  Multiplicity = 1
  Basis Set: AUG-CC-PVTZ
    Blend: AUG-CC-PVTZ
  Basis Set: (AUG-CC-PVTZ AUX)
    Blend: AUG-CC-PVTZ-JKFIT

    Orbital Energies [Eh]
    ---------------------

    Doubly Occupied:

       1A    -91.951216     2A    -20.625786     3A    -20.563458
       4A    -15.571443     5A    -11.398264     6A    -11.295497
       7A    -11.274547     8A     -8.956945     9A     -6.638802
      10A     -6.637346    11A     -6.636189    12A     -1.471161
      13A     -1.368607    14A     -1.210777    15A     -1.093917
      16A     -0.972959    17A     -0.863295    18A     -0.781415
      19A     -0.717146    20A     -0.708448    21A     -0.669934
      22A     -0.657834    23A     -0.619600    24A     -0.600246
      25A     -0.579233    26A     -0.539787    27A     -0.535458
      28A     -0.496669    29A     -0.476364    30A     -0.445083
      31A     -0.419758    32A     -0.351860

  @DF-RHF Final Energy:  -719.49871977511316

   => Energetics <=

    Nuclear Repulsion Energy =            381.6756126645428822
    One-Electron Energy =               -1748.0905765990225973
    Two-Electron Energy =                 646.9162441593664425
    Total Energy =                       -719.4987197751131589
  Basis Set: (AUG-CC-PVTZ AUX)
    Blend: AUG-CC-PVTZ-RI
    Molecular point group: c1

    Geometry (in Angstrom), charge = 0, multiplicity = 1:

       Center              X                  Y                   Z               Mass
    ------------   -----------------  -----------------  -----------------  -----------------
         S            2.228594049216    -0.223778636005    -0.284064951334    31.972071174400
         O           -2.284446950784    -0.644779636005    -0.553115951334    15.994914619570
         O           -0.622917950784    -1.475332636005     0.741406048666    15.994914619570
         N           -1.290012950784     1.796287363995     0.283723048666    14.003074004430
         C           -0.403700950784     0.753947363995    -0.250520951334    12.000000000000
         C            1.093841449216     0.736324463995     0.352552348666    12.000000000000
         C           -1.067759950784    -0.575497636005     0.050430048666    12.000000000000
         H           -0.260395950784     0.801411363995    -1.343029951334     1.007825032230
         H            1.331136049216     1.875121363995     0.310324048666     1.007825032230
         H            0.840783049216     0.663651363995     1.499731048666     1.007825032230
         H           -2.204773950784     1.717938363995    -0.158975951334     1.007825032230
         H           -0.917864950784     2.710184363995     0.026868048666     1.007825032230
         H            1.739556049216    -1.363312636005     0.221275048666     1.007825032230
         H           -2.665848950784    -1.508463636005    -0.290343951334     1.007825032230

  Basis Set: AUG-CC-PVTZ
    Blend: AUG-CC-PVTZ
  Basis Set: (AUG-CC-PVTZ AUX)
    Blend: AUG-CC-PVTZ-JKFIT
	 Reference Energy          =    -719.4987197751131589 [Eh]
	 Singles Energy            =      -0.0000000000000000 [Eh]
	 Same-Spin Energy          =      -0.3773773528076445 [Eh]
	 Opposite-Spin Energy      =      -1.1623654426660139 [Eh]
	 Correlation Energy        =      -1.5397427954736584 [Eh]
	 Total Energy              =    -721.0384625705868302 [Eh]

	 ================> DF-SCS-MP2 Energies <==================
	-----------------------------------------------------------
	 SCS Same-Spin Scale       =       0.3333333333333333 [-]
	 SCS Opposite-Spin Scale   =       1.2000000000000000 [-]
	 SCS Same-Spin Energy      =      -0.1257924509358815 [Eh]
	 SCS Opposite-Spin Energy  =      -1.3948385311992166 [Eh]
	 SCS Correlation Energy    =      -1.5206309821350981 [Eh]
	 SCS Total Energy          =    -721.0193507572482758 [Eh]
	-----------------------------------------------------------

  Dipole Moment: [D]
     X:    -1.7537      Y:     1.1635      Z:    -1.2743     Total:     2.4603

*** Psi4 exiting successfully. Buy a developer a beer!
