                               Psi4 1.3.2 release

  ==> Input File <==

--------------------------------------------------------------------------
#psi4
#
memory 32 gb

molecule  {
0 1
  S        2.2579180    -0.2726900    -0.2934460
  O       -2.2551230    -0.6936910    -0.5624970
  O       -0.5935940    -1.5242440     0.7320250
  N       -1.2442261     1.7652473     0.2661710
  C       -0.3743770     0.7050360    -0.2599020
  C        0.9828140     0.8061630     0.4219110
  C       -1.0384360    -0.6244090     0.0410490
  H       -0.2310720     0.7525000    -1.3524110
  H        1.3604600     1.8262100     0.3009430
  H        0.8701070     0.6147400     1.4903500
  H       -2.1754500     1.6690270    -0.1683570
  H       -0.8885410     2.6612730     0.0174870
  H        1.7688800    -1.4122240     0.2118940
  H       -2.6365250    -1.5573750    -0.2997250
units angstrom
no_reorient  #important for SAPT in psi4, default
symmetry c1  #important for SAPT in psi4, default
}

set PROPERTIES_ORIGIN ["COM"]
properties('MP2/aug-cc-pvtz', properties = ['dipole'])
--------------------------------------------------------------------------

    Molecular point group: c1
  Charge       = 0
  Multiplicity = 1
  Basis Set: AUG-CC-PVTZ
    Blend: AUG-CC-PVTZ
  Basis Set: (AUG-CC-PVTZ AUX)
    Blend: AUG-CC-PVTZ-JKFIT

    Orbital Energies [Eh]
    ---------------------

    Doubly Occupied:

       1A    -91.949722     2A    -20.628901     3A    -20.566321
       4A    -15.568146     5A    -11.402308     6A    -11.294826
       7A    -11.268102     8A     -8.951179     9A     -6.632545
      10A     -6.631607    11A     -6.630617    12A     -1.474096
      13A     -1.371398    14A     -1.217042    15A     -1.063561
      16A     -0.965680    17A     -0.879107    18A     -0.791425
      19A     -0.721054    20A     -0.716578    21A     -0.673157
      22A     -0.658023    23A     -0.624318    24A     -0.604772
      25A     -0.567500    26A     -0.557046    27A     -0.524301
      28A     -0.495387    29A     -0.475567    30A     -0.449644
      31A     -0.421510    32A     -0.358710

  @DF-RHF Final Energy:  -719.53851064945661

   => Energetics <=

    Nuclear Repulsion Energy =            380.1023594295955377
    One-Electron Energy =               -1745.0134456115933972
    Two-Electron Energy =                 645.3725755325413047
    Total Energy =                       -719.5385106494566116
  Basis Set: (AUG-CC-PVTZ AUX)
    Blend: AUG-CC-PVTZ-RI
    Molecular point group: c1

    Geometry (in Angstrom), charge = 0, multiplicity = 1:

       Center              X                  Y                   Z               Mass
    ------------   -----------------  -----------------  -----------------  -----------------
         S            2.240606019140    -0.237621433907    -0.290927114616    31.972071174400
         O           -2.272434980860    -0.658622433907    -0.559978114616    15.994914619570
         O           -0.610905980860    -1.489175433907     0.734543885384    15.994914619570
         N           -1.261538080860     1.800315866093     0.268689885384    14.003074004430
         C           -0.391688980860     0.740104566093    -0.257383114616    12.000000000000
         C            0.965502019140     0.841231566093     0.424429885384    12.000000000000
         C           -1.055747980860    -0.589340433907     0.043567885384    12.000000000000
         H           -0.248383980860     0.787568566093    -1.349892114616     1.007825032230
         H            1.343148019140     1.861278566093     0.303461885384     1.007825032230
         H            0.852795019140     0.649808566093     1.492868885384     1.007825032230
         H           -2.192761980860     1.704095566093    -0.165838114616     1.007825032230
         H           -0.905852980860     2.696341566093     0.020005885384     1.007825032230
         H            1.751568019140    -1.377155433907     0.214412885384     1.007825032230
         H           -2.653836980860    -1.522306433907    -0.297206114616     1.007825032230

  Basis Set: AUG-CC-PVTZ
    Blend: AUG-CC-PVTZ
  Basis Set: (AUG-CC-PVTZ AUX)
    Blend: AUG-CC-PVTZ-JKFIT
	 Reference Energy          =    -719.5385106494566116 [Eh]
	 Singles Energy            =      -0.0000000000000000 [Eh]
	 Same-Spin Energy          =      -0.3747189977166749 [Eh]
	 Opposite-Spin Energy      =      -1.1591971868426474 [Eh]
	 Correlation Energy        =      -1.5339161845593223 [Eh]
	 Total Energy              =    -721.0724268340159142 [Eh]

	 ================> DF-SCS-MP2 Energies <==================
	-----------------------------------------------------------
	 SCS Same-Spin Scale       =       0.3333333333333333 [-]
	 SCS Opposite-Spin Scale   =       1.2000000000000000 [-]
	 SCS Same-Spin Energy      =      -0.1249063325722250 [Eh]
	 SCS Opposite-Spin Energy  =      -1.3910366242111769 [Eh]
	 SCS Correlation Energy    =      -1.5159429567834020 [Eh]
	 SCS Total Energy          =    -721.0544536062400311 [Eh]
	-----------------------------------------------------------

  Dipole Moment: [D]
     X:    -2.0605      Y:     1.2568      Z:    -1.1866     Total:     2.6894

*** Psi4 exiting successfully. Buy a developer a beer!
