                               Psi4 1.3.2 release

  ==> Input File <==

--------------------------------------------------------------------------
#psi4
#
memory 32 gb

molecule  {
0 1
  S        2.2579180    -0.2726900    -0.2934460
  O       -2.2551230    -0.6936910    -0.5624970
  O       -0.5935940    -1.5242440     0.7320250
  N       -1.2768819     1.7291872     0.2823503
  C       -0.3743770     0.7050360    -0.2599020
  C        0.9828140     0.8061630     0.4219110
  C       -1.0384360    -0.6244090     0.0410490
  H       -0.2310720     0.7525000    -1.3524110
  H        1.3604600     1.8262100     0.3009430
  H        0.8701070     0.6147400     1.4903500
  H       -2.1754500     1.6690270    -0.1683570
  H       -0.8885410     2.6612730     0.0174870
  H        1.7688800    -1.4122240     0.2118940
  H       -2.6365250    -1.5573750    -0.2997250
units angstrom
no_reorient  #important for SAPT in psi4, default
symmetry c1  #important for SAPT in psi4, default
}

set PROPERTIES_ORIGIN ["COM"]
properties('MP2/aug-cc-pvtz', properties = ['dipole'])
--------------------------------------------------------------------------

    Molecular point group: c1
  Charge       = 0
  Multiplicity = 1
  Basis Set: AUG-CC-PVTZ
    Blend: AUG-CC-PVTZ
  Basis Set: (AUG-CC-PVTZ AUX)
    Blend: AUG-CC-PVTZ-JKFIT

    Orbital Energies [Eh]
    ---------------------

    Doubly Occupied:

       1A    -91.950536     2A    -20.627856     3A    -20.564910
       4A    -15.571911     5A    -11.400746     6A    -11.294819
       7A    -11.268847     8A     -8.951962     9A     -6.633327
      10A     -6.632389    11A     -6.631397    12A     -1.473131
      13A     -1.370271    14A     -1.216360    15A     -1.063664
      16A     -0.963931    17A     -0.879488    18A     -0.790817
      19A     -0.719700    20A     -0.716086    21A     -0.672939
      22A     -0.654433    23A     -0.623054    24A     -0.600744
      25A     -0.567111    26A     -0.557112    27A     -0.525185
      28A     -0.495060    29A     -0.473754    30A     -0.450343
      31A     -0.424521    32A     -0.359498

  @DF-RHF Final Energy:  -719.53753716835627

   => Energetics <=

    Nuclear Repulsion Energy =            380.2535166067256114
    One-Electron Energy =               -1745.3303073091778970
    Two-Electron Energy =                 645.5392535340961331
    Total Energy =                       -719.5375371683562662
  Basis Set: (AUG-CC-PVTZ AUX)
    Blend: AUG-CC-PVTZ-RI
    Molecular point group: c1

    Geometry (in Angstrom), charge = 0, multiplicity = 1:

       Center              X                  Y                   Z               Mass
    ------------   -----------------  -----------------  -----------------  -----------------
         S            2.244384589046    -0.233448955858    -0.292799205212    31.972071174400
         O           -2.268656410954    -0.654449955858    -0.561850205212    15.994914619570
         O           -0.607127410954    -1.485002955858     0.732671794788    15.994914619570
         N           -1.290415310954     1.768428244142     0.282997094788    14.003074004430
         C           -0.387910410954     0.744277044142    -0.259255205212    12.000000000000
         C            0.969280589046     0.845404044142     0.422557794788    12.000000000000
         C           -1.051969410954    -0.585167955858     0.041695794788    12.000000000000
         H           -0.244605410954     0.791741044142    -1.351764205212     1.007825032230
         H            1.346926589046     1.865451044142     0.301589794788     1.007825032230
         H            0.856573589046     0.653981044142     1.490996794788     1.007825032230
         H           -2.188983410954     1.708268044142    -0.167710205212     1.007825032230
         H           -0.902074410954     2.700514044142     0.018133794788     1.007825032230
         H            1.755346589046    -1.372982955858     0.212540794788     1.007825032230
         H           -2.650058410954    -1.518133955858    -0.299078205212     1.007825032230

  Basis Set: AUG-CC-PVTZ
    Blend: AUG-CC-PVTZ
  Basis Set: (AUG-CC-PVTZ AUX)
    Blend: AUG-CC-PVTZ-JKFIT
	 Reference Energy          =    -719.5375371683562662 [Eh]
	 Singles Energy            =      -0.0000000000000000 [Eh]
	 Same-Spin Energy          =      -0.3748928037941738 [Eh]
	 Opposite-Spin Energy      =      -1.1596824408458022 [Eh]
	 Correlation Energy        =      -1.5345752446399761 [Eh]
	 Total Energy              =    -721.0721124129962618 [Eh]

	 ================> DF-SCS-MP2 Energies <==================
	-----------------------------------------------------------
	 SCS Same-Spin Scale       =       0.3333333333333333 [-]
	 SCS Opposite-Spin Scale   =       1.2000000000000000 [-]
	 SCS Same-Spin Energy      =      -0.1249642679313913 [Eh]
	 SCS Opposite-Spin Energy  =      -1.3916189290149625 [Eh]
	 SCS Correlation Energy    =      -1.5165831969463539 [Eh]
	 SCS Total Energy          =    -721.0541203653026514 [Eh]
	-----------------------------------------------------------

  Dipole Moment: [D]
     X:    -1.9899      Y:     1.3066      Z:    -1.2242     Total:     2.6769

*** Psi4 exiting successfully. Buy a developer a beer!
