                               Psi4 1.3.2 release

  ==> Input File <==

--------------------------------------------------------------------------
#psi4
#
memory 32 gb

molecule  {
0 1
  S        2.2579180    -0.2726900    -0.2934460
  O       -2.2551230    -0.6936910    -0.5624970
  O       -0.4914046    -1.4502541     0.7508179
  N       -1.2606890     1.7473760     0.2743420
  C       -0.3743770     0.7050360    -0.2599020
  C        0.9828140     0.8061630     0.4219110
  C       -1.0384360    -0.6244090     0.0410490
  H       -0.2310720     0.7525000    -1.3524110
  H        1.3604600     1.8262100     0.3009430
  H        0.8701070     0.6147400     1.4903500
  H       -2.1754500     1.6690270    -0.1683570
  H       -0.8885410     2.6612730     0.0174870
  H        1.7688800    -1.4122240     0.2118940
  H       -2.6365250    -1.5573750    -0.2997250
units angstrom
no_reorient  #important for SAPT in psi4, default
symmetry c1  #important for SAPT in psi4, default
}

set PROPERTIES_ORIGIN ["COM"]
properties('MP2/aug-cc-pvtz', properties = ['dipole'])
--------------------------------------------------------------------------

    Molecular point group: c1
  Charge       = 0
  Multiplicity = 1
  Basis Set: AUG-CC-PVTZ
    Blend: AUG-CC-PVTZ
  Basis Set: (AUG-CC-PVTZ AUX)
    Blend: AUG-CC-PVTZ-JKFIT

    Orbital Energies [Eh]
    ---------------------

    Doubly Occupied:

       1A    -91.946515     2A    -20.638650     3A    -20.567694
       4A    -15.567227     5A    -11.402892     6A    -11.288541
       7A    -11.264472     8A     -8.947985     9A     -6.629360
      10A     -6.628424    11A     -6.627447    12A     -1.474964
      13A     -1.380582    14A     -1.212985    15A     -1.059279
      16A     -0.962117    17A     -0.877905    18A     -0.792226
      19A     -0.724668    20A     -0.716349    21A     -0.672210
      22A     -0.655738    23A     -0.626723    24A     -0.604179
      25A     -0.563063    26A     -0.553836    27A     -0.523669
      28A     -0.498859    29A     -0.473265    30A     -0.446475
      31A     -0.418992    32A     -0.355750

  @DF-RHF Final Energy:  -719.53444005270035

   => Energetics <=

    Nuclear Repulsion Energy =            381.4352542746354402
    One-Electron Energy =               -1747.7333060012347232
    Two-Electron Energy =                 646.7636116738988221
    Total Energy =                       -719.5344400527003472
  Basis Set: (AUG-CC-PVTZ AUX)
    Blend: AUG-CC-PVTZ-RI
    Molecular point group: c1

    Geometry (in Angstrom), charge = 0, multiplicity = 1:

       Center              X                  Y                   Z               Mass
    ------------   -----------------  -----------------  -----------------  -----------------
         S            2.229004776160    -0.245332646329    -0.294356389175    31.972071174400
         O           -2.284036223840    -0.666333646329    -0.563407389175    15.994914619570
         O           -0.520317823840    -1.422896746329     0.749907510825    15.994914619570
         N           -1.289602223840     1.774733353671     0.273431610825    14.003074004430
         C           -0.403290223840     0.732393353671    -0.260812389175    12.000000000000
         C            0.953900776160     0.833520353671     0.421000610825    12.000000000000
         C           -1.067349223840    -0.597051646329     0.040138610825    12.000000000000
         H           -0.259985223840     0.779857353671    -1.353321389175     1.007825032230
         H            1.331546776160     1.853567353671     0.300032610825     1.007825032230
         H            0.841193776160     0.642097353671     1.489439610825     1.007825032230
         H           -2.204363223840     1.696384353671    -0.169267389175     1.007825032230
         H           -0.917454223840     2.688630353671     0.016576610825     1.007825032230
         H            1.739966776160    -1.384866646329     0.210983610825     1.007825032230
         H           -2.665438223840    -1.530017646329    -0.300635389175     1.007825032230

  Basis Set: AUG-CC-PVTZ
    Blend: AUG-CC-PVTZ
  Basis Set: (AUG-CC-PVTZ AUX)
    Blend: AUG-CC-PVTZ-JKFIT
	 Reference Energy          =    -719.5344400527003472 [Eh]
	 Singles Energy            =      -0.0000000000000000 [Eh]
	 Same-Spin Energy          =      -0.3753938906823004 [Eh]
	 Opposite-Spin Energy      =      -1.1604284909633575 [Eh]
	 Correlation Energy        =      -1.5358223816456580 [Eh]
	 Total Energy              =    -721.0702624343459775 [Eh]

	 ================> DF-SCS-MP2 Energies <==================
	-----------------------------------------------------------
	 SCS Same-Spin Scale       =       0.3333333333333333 [-]
	 SCS Opposite-Spin Scale   =       1.2000000000000000 [-]
	 SCS Same-Spin Energy      =      -0.1251312968941001 [Eh]
	 SCS Opposite-Spin Energy  =      -1.3925141891560291 [Eh]
	 SCS Correlation Energy    =      -1.5176454860501292 [Eh]
	 SCS Total Energy          =    -721.0520855387504753 [Eh]
	-----------------------------------------------------------

  Dipole Moment: [D]
     X:    -2.3521      Y:     1.0186      Z:    -1.2169     Total:     2.8374

*** Psi4 exiting successfully. Buy a developer a beer!
