                               Psi4 1.3.2 release

  ==> Input File <==

--------------------------------------------------------------------------
#psi4
#
memory 32 gb

molecule  {
0 1
  S        2.2579180    -0.2726900    -0.2934460
  O       -2.2551230    -0.6936910    -0.5624970
  O       -0.5935940    -1.5242440     0.7320250
  N       -1.2606890     1.7473760     0.2743420
  C       -0.3743770     0.7050360    -0.2599020
  C        0.9708177     0.8043322     0.4455444
  C       -1.0384360    -0.6244090     0.0410490
  H       -0.2310720     0.7525000    -1.3524110
  H        1.3604600     1.8262100     0.3009430
  H        0.8701070     0.6147400     1.4903500
  H       -2.1754500     1.6690270    -0.1683570
  H       -0.8885410     2.6612730     0.0174870
  H        1.7688800    -1.4122240     0.2118940
  H       -2.6365250    -1.5573750    -0.2997250
units angstrom
no_reorient  #important for SAPT in psi4, default
symmetry c1  #important for SAPT in psi4, default
}

set PROPERTIES_ORIGIN ["COM"]
properties('MP2/aug-cc-pvtz', properties = ['dipole'])
--------------------------------------------------------------------------

    Molecular point group: c1
  Charge       = 0
  Multiplicity = 1
  Basis Set: AUG-CC-PVTZ
    Blend: AUG-CC-PVTZ
  Basis Set: (AUG-CC-PVTZ AUX)
    Blend: AUG-CC-PVTZ-JKFIT

    Orbital Energies [Eh]
    ---------------------

    Doubly Occupied:

       1A    -91.949822     2A    -20.628379     3A    -20.565683
       4A    -15.569903     5A    -11.401464     6A    -11.295056
       7A    -11.268328     8A     -8.951048     9A     -6.632390
      10A     -6.631443    11A     -6.630469    12A     -1.473656
      13A     -1.370916    14A     -1.216860    15A     -1.061846
      16A     -0.963721    17A     -0.879697    18A     -0.792085
      19A     -0.721023    20A     -0.717013    21A     -0.671936
      22A     -0.656808    23A     -0.625012    24A     -0.602216
      25A     -0.568636    26A     -0.559241    27A     -0.521478
      28A     -0.494631    29A     -0.474062    30A     -0.449918
      31A     -0.423516    32A     -0.359218

  @DF-RHF Final Energy:  -719.53820934098098

   => Energetics <=

    Nuclear Repulsion Energy =            380.0531973475884797
    One-Electron Energy =               -1744.9278666987731867
    Two-Electron Energy =                 645.3364600102038366
    Total Energy =                       -719.5382093409809841
  Basis Set: (AUG-CC-PVTZ AUX)
    Blend: AUG-CC-PVTZ-RI
    Molecular point group: c1

    Geometry (in Angstrom), charge = 0, multiplicity = 1:

       Center              X                  Y                   Z               Mass
    ------------   -----------------  -----------------  -----------------  -----------------
         S            2.243700446357    -0.235372026374    -0.294215998611    31.972071174400
         O           -2.269340553643    -0.656373026374    -0.563266998611    15.994914619570
         O           -0.607811553643    -1.486926026374     0.731255001389    15.994914619570
         N           -1.274906553643     1.784693973626     0.273572001389    14.003074004430
         C           -0.388594553643     0.742353973626    -0.260671998611    12.000000000000
         C            0.956600146357     0.841650173626     0.444774401389    12.000000000000
         C           -1.052653553643    -0.587091026374     0.040279001389    12.000000000000
         H           -0.245289553643     0.789817973626    -1.353180998611     1.007825032230
         H            1.346242446357     1.863527973626     0.300173001389     1.007825032230
         H            0.855889446357     0.652057973626     1.489580001389     1.007825032230
         H           -2.189667553643     1.706344973626    -0.169126998611     1.007825032230
         H           -0.902758553643     2.698590973626     0.016717001389     1.007825032230
         H            1.754662446357    -1.374906026374     0.211124001389     1.007825032230
         H           -2.650742553643    -1.520057026374    -0.300494998611     1.007825032230

  Basis Set: AUG-CC-PVTZ
    Blend: AUG-CC-PVTZ
  Basis Set: (AUG-CC-PVTZ AUX)
    Blend: AUG-CC-PVTZ-JKFIT
	 Reference Energy          =    -719.5382093409809841 [Eh]
	 Singles Energy            =      -0.0000000000000000 [Eh]
	 Same-Spin Energy          =      -0.3747298818481197 [Eh]
	 Opposite-Spin Energy      =      -1.1594319280799938 [Eh]
	 Correlation Energy        =      -1.5341618099281136 [Eh]
	 Total Energy              =    -721.0723711509091345 [Eh]

	 ================> DF-SCS-MP2 Energies <==================
	-----------------------------------------------------------
	 SCS Same-Spin Scale       =       0.3333333333333333 [-]
	 SCS Opposite-Spin Scale   =       1.2000000000000000 [-]
	 SCS Same-Spin Energy      =      -0.1249099606160399 [Eh]
	 SCS Opposite-Spin Energy  =      -1.3913183136959926 [Eh]
	 SCS Correlation Energy    =      -1.5162282743120326 [Eh]
	 SCS Total Energy          =    -721.0544376152930681 [Eh]
	-----------------------------------------------------------

  Dipole Moment: [D]
     X:    -2.0445      Y:     1.2888      Z:    -1.2036     Total:     2.6999

*** Psi4 exiting successfully. Buy a developer a beer!
