                               Psi4 1.3.2 release

  ==> Input File <==

--------------------------------------------------------------------------
#psi4
#
memory 32 gb

molecule  {
0 1
  S        2.2579180    -0.2726900    -0.2934460
  O       -2.2551230    -0.6936910    -0.5624970
  O       -0.5935940    -1.5242440     0.7320250
  N       -1.2606890     1.7473760     0.2743420
  C       -0.3743770     0.7050360    -0.2599020
  C        1.0729679     0.9513230     0.3384045
  C       -1.0384360    -0.6244090     0.0410490
  H       -0.2310720     0.7525000    -1.3524110
  H        1.3604600     1.8262100     0.3009430
  H        0.8701070     0.6147400     1.4903500
  H       -2.1754500     1.6690270    -0.1683570
  H       -0.8885410     2.6612730     0.0174870
  H        1.7688800    -1.4122240     0.2118940
  H       -2.6365250    -1.5573750    -0.2997250
units angstrom
no_reorient  #important for SAPT in psi4, default
symmetry c1  #important for SAPT in psi4, default
}

set PROPERTIES_ORIGIN ["COM"]
properties('MP2/aug-cc-pvtz', properties = ['dipole'])
--------------------------------------------------------------------------

    Molecular point group: c1
  Charge       = 0
  Multiplicity = 1
  Basis Set: AUG-CC-PVTZ
    Blend: AUG-CC-PVTZ
  Basis Set: (AUG-CC-PVTZ AUX)
    Blend: AUG-CC-PVTZ-JKFIT

    Orbital Energies [Eh]
    ---------------------

    Doubly Occupied:

       1A    -91.949975     2A    -20.630778     3A    -20.566515
       4A    -15.569696     5A    -11.405134     6A    -11.299171
       7A    -11.270732     8A     -8.951390     9A     -6.632786
      10A     -6.632024    11A     -6.630983    12A     -1.475225
      13A     -1.371818    14A     -1.214370    15A     -1.061625
      16A     -0.964692    17A     -0.889297    18A     -0.802650
      19A     -0.721972    20A     -0.710057    21A     -0.672288
      22A     -0.660285    23A     -0.623049    24A     -0.612458
      25A     -0.582709    26A     -0.555840    27A     -0.520735
      28A     -0.496562    29A     -0.474172    30A     -0.437341
      31A     -0.418816    32A     -0.352948

  @DF-RHF Final Energy:  -719.49392333945059

   => Energetics <=

    Nuclear Repulsion Energy =            378.5776859498847671
    One-Electron Energy =               -1741.8270341014397218
    Two-Electron Energy =                 643.7554248121042519
    Total Energy =                       -719.4939233394505891
  Basis Set: (AUG-CC-PVTZ AUX)
    Blend: AUG-CC-PVTZ-RI
    Molecular point group: c1

    Geometry (in Angstrom), charge = 0, multiplicity = 1:

       Center              X                  Y                   Z               Mass
    ------------   -----------------  -----------------  -----------------  -----------------
         S            2.233571501258    -0.249947247404    -0.283592287987    31.972071174400
         O           -2.279469498742    -0.670948247404    -0.552643287987    15.994914619570
         O           -0.617940498742    -1.501501247404     0.741878712013    15.994914619570
         N           -1.285035498742     1.770118752596     0.284195712013    14.003074004430
         C           -0.398723498742     0.727778752596    -0.250048287987    12.000000000000
         C            1.048621401258     0.974065752596     0.348258212013    12.000000000000
         C           -1.062782498742    -0.601666247404     0.050902712013    12.000000000000
         H           -0.255418498742     0.775242752596    -1.342557287987     1.007825032230
         H            1.336113501258     1.848952752596     0.310796712013     1.007825032230
         H            0.845760501258     0.637482752596     1.500203712013     1.007825032230
         H           -2.199796498742     1.691769752596    -0.158503287987     1.007825032230
         H           -0.912887498742     2.684015752596     0.027340712013     1.007825032230
         H            1.744533501258    -1.389481247404     0.221747712013     1.007825032230
         H           -2.660871498742    -1.534632247404    -0.289871287987     1.007825032230

  Basis Set: AUG-CC-PVTZ
    Blend: AUG-CC-PVTZ
  Basis Set: (AUG-CC-PVTZ AUX)
    Blend: AUG-CC-PVTZ-JKFIT
	 Reference Energy          =    -719.4939233394505891 [Eh]
	 Singles Energy            =      -0.0000000000000000 [Eh]
	 Same-Spin Energy          =      -0.3745615972374326 [Eh]
	 Opposite-Spin Energy      =      -1.1602976067838200 [Eh]
	 Correlation Energy        =      -1.5348592040212525 [Eh]
	 Total Energy              =    -721.0287825434718343 [Eh]

	 ================> DF-SCS-MP2 Energies <==================
	-----------------------------------------------------------
	 SCS Same-Spin Scale       =       0.3333333333333333 [-]
	 SCS Opposite-Spin Scale   =       1.2000000000000000 [-]
	 SCS Same-Spin Energy      =      -0.1248538657458109 [Eh]
	 SCS Opposite-Spin Energy  =      -1.3923571281405840 [Eh]
	 SCS Correlation Energy    =      -1.5172109938863949 [Eh]
	 SCS Total Energy          =    -721.0111343333369405 [Eh]
	-----------------------------------------------------------

  Dipole Moment: [D]
     X:    -2.1057      Y:     1.2975      Z:    -1.1966     Total:     2.7476

*** Psi4 exiting successfully. Buy a developer a beer!
