                               Psi4 1.3.2 release

  ==> Input File <==

--------------------------------------------------------------------------
#psi4
#
memory 32 gb

molecule  {
0 1
  S        2.2579180    -0.2726900    -0.2934460
  O       -2.2551230    -0.6936910    -0.5624970
  O       -0.5935940    -1.5242440     0.7320250
  N       -1.2606890     1.7473760     0.2743420
  C       -0.3140353     0.6340717    -0.2962743
  C        0.9828140     0.8061630     0.4219110
  C       -1.0384360    -0.6244090     0.0410490
  H       -0.2310720     0.7525000    -1.3524110
  H        1.3604600     1.8262100     0.3009430
  H        0.8701070     0.6147400     1.4903500
  H       -2.1754500     1.6690270    -0.1683570
  H       -0.8885410     2.6612730     0.0174870
  H        1.7688800    -1.4122240     0.2118940
  H       -2.6365250    -1.5573750    -0.2997250
units angstrom
no_reorient  #important for SAPT in psi4, default
symmetry c1  #important for SAPT in psi4, default
}

set PROPERTIES_ORIGIN ["COM"]
properties('MP2/aug-cc-pvtz', properties = ['dipole'])
--------------------------------------------------------------------------

    Molecular point group: c1
  Charge       = 0
  Multiplicity = 1
  Basis Set: AUG-CC-PVTZ
    Blend: AUG-CC-PVTZ
  Basis Set: (AUG-CC-PVTZ AUX)
    Blend: AUG-CC-PVTZ-JKFIT

    Orbital Energies [Eh]
    ---------------------

    Doubly Occupied:

       1A    -91.949371     2A    -20.629998     3A    -20.565713
       4A    -15.568753     5A    -11.403279     6A    -11.294858
       7A    -11.270177     8A     -8.951093     9A     -6.632442
      10A     -6.631531    11A     -6.630520    12A     -1.475093
      13A     -1.372204    14A     -1.194569    15A     -1.069279
      16A     -0.970856    17A     -0.881616    18A     -0.795850
      19A     -0.724029    20A     -0.720329    21A     -0.661251
      22A     -0.651775    23A     -0.624986    24A     -0.590195
      25A     -0.576426    26A     -0.568643    27A     -0.524535
      28A     -0.493918    29A     -0.468419    30A     -0.450280
      31A     -0.426089    32A     -0.359306

  @DF-RHF Final Energy:  -719.53036228576934

   => Energetics <=

    Nuclear Repulsion Energy =            380.3869854981638809
    One-Electron Energy =               -1745.5799318645877065
    Two-Electron Energy =                 645.6625840806543692
    Total Energy =                       -719.5303622857693426
  Basis Set: (AUG-CC-PVTZ AUX)
    Blend: AUG-CC-PVTZ-RI
    Molecular point group: c1

    Geometry (in Angstrom), charge = 0, multiplicity = 1:

       Center              X                  Y                   Z               Mass
    ------------   -----------------  -----------------  -----------------  -----------------
         S            2.236527600581    -0.228516930388    -0.288265991260    31.972071174400
         O           -2.276513399419    -0.649517930388    -0.557316991260    15.994914619570
         O           -0.614984399419    -1.480070930388     0.737205008740    15.994914619570
         N           -1.282079399419     1.791549069612     0.279522008740    14.003074004430
         C           -0.335425699419     0.678244769612    -0.291094291260    12.000000000000
         C            0.961423600581     0.850336069612     0.427091008740    12.000000000000
         C           -1.059826399419    -0.580235930388     0.046229008740    12.000000000000
         H           -0.252462399419     0.796673069612    -1.347230991260     1.007825032230
         H            1.339069600581     1.870383069612     0.306123008740     1.007825032230
         H            0.848716600581     0.658913069612     1.495530008740     1.007825032230
         H           -2.196840399419     1.713200069612    -0.163176991260     1.007825032230
         H           -0.909931399419     2.705446069612     0.022667008740     1.007825032230
         H            1.747489600581    -1.368050930388     0.217074008740     1.007825032230
         H           -2.657915399419    -1.513201930388    -0.294544991260     1.007825032230

  Basis Set: AUG-CC-PVTZ
    Blend: AUG-CC-PVTZ
  Basis Set: (AUG-CC-PVTZ AUX)
    Blend: AUG-CC-PVTZ-JKFIT
	 Reference Energy          =    -719.5303622857693426 [Eh]
	 Singles Energy            =      -0.0000000000000000 [Eh]
	 Same-Spin Energy          =      -0.3750694855391781 [Eh]
	 Opposite-Spin Energy      =      -1.1606010367437554 [Eh]
	 Correlation Energy        =      -1.5356705222829334 [Eh]
	 Total Energy              =    -721.0660328080522277 [Eh]

	 ================> DF-SCS-MP2 Energies <==================
	-----------------------------------------------------------
	 SCS Same-Spin Scale       =       0.3333333333333333 [-]
	 SCS Opposite-Spin Scale   =       1.2000000000000000 [-]
	 SCS Same-Spin Energy      =      -0.1250231618463927 [Eh]
	 SCS Opposite-Spin Energy  =      -1.3927212440925063 [Eh]
	 SCS Correlation Energy    =      -1.5177444059388989 [Eh]
	 SCS Total Energy          =    -721.0481066917081989 [Eh]
	-----------------------------------------------------------

  Dipole Moment: [D]
     X:    -1.8989      Y:     1.1754      Z:    -1.2859     Total:     2.5770

*** Psi4 exiting successfully. Buy a developer a beer!
