                               Psi4 1.3.2 release

  ==> Input File <==

--------------------------------------------------------------------------
#psi4
#
memory 32 gb

molecule  {
0 1
  S        2.2579180    -0.2726900    -0.2934460
  O       -2.2517410    -0.6719287    -0.5713461
  O       -0.5935940    -1.5242440     0.7320250
  N       -1.2606890     1.7473760     0.2743420
  C       -0.3743770     0.7050360    -0.2599020
  C        0.9828140     0.8061630     0.4219110
  C       -1.0384360    -0.6244090     0.0410490
  H       -0.2310720     0.7525000    -1.3524110
  H        1.3604600     1.8262100     0.3009430
  H        0.8701070     0.6147400     1.4903500
  H       -2.1754500     1.6690270    -0.1683570
  H       -0.8885410     2.6612730     0.0174870
  H        1.7688800    -1.4122240     0.2118940
  H       -2.6365250    -1.5573750    -0.2997250
units angstrom
no_reorient  #important for SAPT in psi4, default
symmetry c1  #important for SAPT in psi4, default
}

set PROPERTIES_ORIGIN ["COM"]
properties('MP2/aug-cc-pvtz', properties = ['dipole'])
--------------------------------------------------------------------------

    Molecular point group: c1
  Charge       = 0
  Multiplicity = 1
  Basis Set: AUG-CC-PVTZ
    Blend: AUG-CC-PVTZ
  Basis Set: (AUG-CC-PVTZ AUX)
    Blend: AUG-CC-PVTZ-JKFIT

    Orbital Energies [Eh]
    ---------------------

    Doubly Occupied:

       1A    -91.949902     2A    -20.631410     3A    -20.566729
       4A    -15.569423     5A    -11.401587     6A    -11.293676
       7A    -11.267911     8A     -8.951342     9A     -6.632708
      10A     -6.631769    11A     -6.630779    12A     -1.471662
      13A     -1.370861    14A     -1.215830    15A     -1.063097
      16A     -0.963443    17A     -0.877418    18A     -0.787102
      19A     -0.720953    20A     -0.714851    21A     -0.671961
      22A     -0.656358    23A     -0.623819    24A     -0.602831
      25A     -0.566868    26A     -0.556112    27A     -0.524686
      28A     -0.495976    29A     -0.474596    30A     -0.449781
      31A     -0.422452    32A     -0.358835

  @DF-RHF Final Energy:  -719.53629646354682

   => Energetics <=

    Nuclear Repulsion Energy =            380.2087358859391770
    One-Electron Energy =               -1745.2566123977633197
    Two-Electron Energy =                 645.5115800482773238
    Total Energy =                       -719.5362964635468188
  Basis Set: (AUG-CC-PVTZ AUX)
    Blend: AUG-CC-PVTZ-RI
    Molecular point group: c1

    Geometry (in Angstrom), charge = 0, multiplicity = 1:

       Center              X                  Y                   Z               Mass
    ------------   -----------------  -----------------  -----------------  -----------------
         S            2.242063933293    -0.238429839099    -0.290703006721    31.972071174400
         O           -2.267595066707    -0.637668539099    -0.568603106721    15.994914619570
         O           -0.609448066707    -1.489983839099     0.734767993279    15.994914619570
         N           -1.276543066707     1.781636160901     0.277084993279    14.003074004430
         C           -0.390231066707     0.739296160901    -0.257159006721    12.000000000000
         C            0.966959933293     0.840423160901     0.424653993279    12.000000000000
         C           -1.054290066707    -0.590148839099     0.043791993279    12.000000000000
         H           -0.246926066707     0.786760160901    -1.349668006721     1.007825032230
         H            1.344605933293     1.860470160901     0.303685993279     1.007825032230
         H            0.854252933293     0.649000160901     1.493092993279     1.007825032230
         H           -2.191304066707     1.703287160901    -0.165614006721     1.007825032230
         H           -0.904395066707     2.695533160901     0.020229993279     1.007825032230
         H            1.753025933293    -1.377963839099     0.214636993279     1.007825032230
         H           -2.652379066707    -1.523114839099    -0.296982006721     1.007825032230

  Basis Set: AUG-CC-PVTZ
    Blend: AUG-CC-PVTZ
  Basis Set: (AUG-CC-PVTZ AUX)
    Blend: AUG-CC-PVTZ-JKFIT
	 Reference Energy          =    -719.5362964635468188 [Eh]
	 Singles Energy            =      -0.0000000000000000 [Eh]
	 Same-Spin Energy          =      -0.3752729292415600 [Eh]
	 Opposite-Spin Energy      =      -1.1604036550315899 [Eh]
	 Correlation Energy        =      -1.5356765842731499 [Eh]
	 Total Energy              =    -721.0719730478199381 [Eh]

	 ================> DF-SCS-MP2 Energies <==================
	-----------------------------------------------------------
	 SCS Same-Spin Scale       =       0.3333333333333333 [-]
	 SCS Opposite-Spin Scale   =       1.2000000000000000 [-]
	 SCS Same-Spin Energy      =      -0.1250909764138533 [Eh]
	 SCS Opposite-Spin Energy  =      -1.3924843860379079 [Eh]
	 SCS Correlation Energy    =      -1.5175753624517612 [Eh]
	 SCS Total Energy          =    -721.0538718259986126 [Eh]
	-----------------------------------------------------------

  Dipole Moment: [D]
     X:    -2.0526      Y:     1.2416      Z:    -1.2009     Total:     2.6827

*** Psi4 exiting successfully. Buy a developer a beer!
