                               Psi4 1.3.2 release

  ==> Input File <==

--------------------------------------------------------------------------
#psi4
#
memory 32 gb

molecule  {
0 1
  S        2.2579180    -0.2726900    -0.2934460
  O       -2.2551230    -0.6936910    -0.5624970
  O       -0.5935940    -1.5242440     0.7320250
  N       -1.2606890     1.7473760     0.2743420
  C       -0.2882477     0.8188748    -0.3169969
  C        0.9828140     0.8061630     0.4219110
  C       -1.0384360    -0.6244090     0.0410490
  H       -0.2310720     0.7525000    -1.3524110
  H        1.3604600     1.8262100     0.3009430
  H        0.8701070     0.6147400     1.4903500
  H       -2.1754500     1.6690270    -0.1683570
  H       -0.8885410     2.6612730     0.0174870
  H        1.7688800    -1.4122240     0.2118940
  H       -2.6365250    -1.5573750    -0.2997250
units angstrom
no_reorient  #important for SAPT in psi4, default
symmetry c1  #important for SAPT in psi4, default
}

set PROPERTIES_ORIGIN ["COM"]
properties('MP2/aug-cc-pvtz', properties = ['dipole'])
--------------------------------------------------------------------------

    Molecular point group: c1
  Charge       = 0
  Multiplicity = 1
  Basis Set: AUG-CC-PVTZ
    Blend: AUG-CC-PVTZ
  Basis Set: (AUG-CC-PVTZ AUX)
    Blend: AUG-CC-PVTZ-JKFIT

    Orbital Energies [Eh]
    ---------------------

    Doubly Occupied:

       1A    -91.951726     2A    -20.625479     3A    -20.560548
       4A    -15.572073     5A    -11.396557     6A    -11.298501
       7A    -11.267292     8A     -8.953126     9A     -6.634483
      10A     -6.633552    11A     -6.632556    12A     -1.466764
      13A     -1.364982    14A     -1.219160    15A     -1.070513
      16A     -0.947324    17A     -0.875186    18A     -0.797527
      19A     -0.717697    20A     -0.709209    21A     -0.674249
      22A     -0.653368    23A     -0.622266    24A     -0.600966
      25A     -0.583790    26A     -0.548353    27A     -0.524367
      28A     -0.492830    29A     -0.465795    30A     -0.445505
      31A     -0.420635    32A     -0.361722

  @DF-RHF Final Energy:  -719.51719054944999

   => Energetics <=

    Nuclear Repulsion Energy =            378.8705611070999453
    One-Electron Energy =               -1742.5993038878325478
    Two-Electron Energy =                 644.2115522312825533
    Total Energy =                       -719.5171905494499924
  Basis Set: (AUG-CC-PVTZ AUX)
    Blend: AUG-CC-PVTZ-RI
    Molecular point group: c1

    Geometry (in Angstrom), charge = 0, multiplicity = 1:

       Center              X                  Y                   Z               Mass
    ------------   -----------------  -----------------  -----------------  -----------------
         S            2.233970570006    -0.246841519611    -0.286211192760    31.972071174400
         O           -2.279070429994    -0.667842519611    -0.555262192760    15.994914619570
         O           -0.617541429994    -1.498395519611     0.739259807240    15.994914619570
         N           -1.284636429994     1.773224480389     0.281576807240    14.003074004430
         C           -0.312195129994     0.844723280389    -0.309762092760    12.000000000000
         C            0.958866570006     0.832011480389     0.429145807240    12.000000000000
         C           -1.062383429994    -0.598560519611     0.048283807240    12.000000000000
         H           -0.255019429994     0.778348480389    -1.345176192760     1.007825032230
         H            1.336512570006     1.852058480389     0.308177807240     1.007825032230
         H            0.846159570006     0.640588480389     1.497584807240     1.007825032230
         H           -2.199397429994     1.694875480389    -0.161122192760     1.007825032230
         H           -0.912488429994     2.687121480389     0.024721807240     1.007825032230
         H            1.744932570006    -1.386375519611     0.219128807240     1.007825032230
         H           -2.660472429994    -1.531526519611    -0.292490192760     1.007825032230

  Basis Set: AUG-CC-PVTZ
    Blend: AUG-CC-PVTZ
  Basis Set: (AUG-CC-PVTZ AUX)
    Blend: AUG-CC-PVTZ-JKFIT
	 Reference Energy          =    -719.5171905494499924 [Eh]
	 Singles Energy            =      -0.0000000000000000 [Eh]
	 Same-Spin Energy          =      -0.3754267030200529 [Eh]
	 Opposite-Spin Energy      =      -1.1607711755446948 [Eh]
	 Correlation Energy        =      -1.5361978785647477 [Eh]
	 Total Energy              =    -721.0533884280147277 [Eh]

	 ================> DF-SCS-MP2 Energies <==================
	-----------------------------------------------------------
	 SCS Same-Spin Scale       =       0.3333333333333333 [-]
	 SCS Opposite-Spin Scale   =       1.2000000000000000 [-]
	 SCS Same-Spin Energy      =      -0.1251422343400176 [Eh]
	 SCS Opposite-Spin Energy  =      -1.3929254106536337 [Eh]
	 SCS Correlation Energy    =      -1.5180676449936514 [Eh]
	 SCS Total Energy          =    -721.0352581944435997 [Eh]
	-----------------------------------------------------------

  Dipole Moment: [D]
     X:    -1.9634      Y:     1.3312      Z:    -1.2430     Total:     2.6781

*** Psi4 exiting successfully. Buy a developer a beer!
