                               Psi4 1.3.2 release

  ==> Input File <==

--------------------------------------------------------------------------
#psi4
#
memory 32 gb

molecule  {
0 1
  S        2.1251735    -0.3312913    -0.4163982
  O       -2.2551230    -0.6936910    -0.5624970
  O       -0.5935940    -1.5242440     0.7320250
  N       -1.2606890     1.7473760     0.2743420
  C       -0.3743770     0.7050360    -0.2599020
  C        0.9828140     0.8061630     0.4219110
  C       -1.0384360    -0.6244090     0.0410490
  H       -0.2310720     0.7525000    -1.3524110
  H        1.3604600     1.8262100     0.3009430
  H        0.8701070     0.6147400     1.4903500
  H       -2.1754500     1.6690270    -0.1683570
  H       -0.8885410     2.6612730     0.0174870
  H        1.7688800    -1.4122240     0.2118940
  H       -2.6365250    -1.5573750    -0.2997250
units angstrom
no_reorient  #important for SAPT in psi4, default
symmetry c1  #important for SAPT in psi4, default
}

set PROPERTIES_ORIGIN ["COM"]
properties('MP2/aug-cc-pvtz', properties = ['dipole'])
--------------------------------------------------------------------------

    Molecular point group: c1
  Charge       = 0
  Multiplicity = 1
  Basis Set: AUG-CC-PVTZ
    Blend: AUG-CC-PVTZ
  Basis Set: (AUG-CC-PVTZ AUX)
    Blend: AUG-CC-PVTZ-JKFIT

    Orbital Energies [Eh]
    ---------------------

    Doubly Occupied:

       1A    -91.946419     2A    -20.627325     3A    -20.564028
       4A    -15.567919     5A    -11.400352     6A    -11.292494
       7A    -11.269138     8A     -8.949166     9A     -6.630620
      10A     -6.629630    11A     -6.628595    12A     -1.472452
      13A     -1.369646    14A     -1.215406    15A     -1.066584
      16A     -0.962557    17A     -0.882767    18A     -0.791510
      19A     -0.719563    20A     -0.715801    21A     -0.671313
      22A     -0.656516    23A     -0.623457    24A     -0.602178
      25A     -0.567382    26A     -0.558244    27A     -0.528850
      28A     -0.494170    29A     -0.473780    30A     -0.449873
      31A     -0.421506    32A     -0.358504

  @DF-RHF Final Energy:  -719.53558619972841

   => Energetics <=

    Nuclear Repulsion Energy =            383.0546701266889613
    One-Electron Energy =               -1750.9650157538310395
    Two-Electron Energy =                 648.3747594274136645
    Total Energy =                       -719.5355861997284137
  Basis Set: (AUG-CC-PVTZ AUX)
    Blend: AUG-CC-PVTZ-RI
    Molecular point group: c1

    Geometry (in Angstrom), charge = 0, multiplicity = 1:

       Center              X                  Y                   Z               Mass
    ------------   -----------------  -----------------  -----------------  -----------------
         S            2.144836044556    -0.278673052328    -0.382342169786    31.972071174400
         O           -2.235460455444    -0.641072752328    -0.528440969786    15.994914619570
         O           -0.573931455444    -1.471625752328     0.766081030214    15.994914619570
         N           -1.241026455444     1.799994247672     0.308398030214    14.003074004430
         C           -0.354714455444     0.757654247672    -0.225845969786    12.000000000000
         C            1.002476544556     0.858781247672     0.455967030214    12.000000000000
         C           -1.018773455444    -0.571790752328     0.075105030214    12.000000000000
         H           -0.211409455444     0.805118247672    -1.318354969786     1.007825032230
         H            1.380122544556     1.878828247672     0.334999030214     1.007825032230
         H            0.889769544556     0.667358247672     1.524406030214     1.007825032230
         H           -2.155787455444     1.721645247672    -0.134300969786     1.007825032230
         H           -0.868878455444     2.713891247672     0.051543030214     1.007825032230
         H            1.788542544556    -1.359605752328     0.245950030214     1.007825032230
         H           -2.616862455444    -1.504756752328    -0.265668969786     1.007825032230

  Basis Set: AUG-CC-PVTZ
    Blend: AUG-CC-PVTZ
  Basis Set: (AUG-CC-PVTZ AUX)
    Blend: AUG-CC-PVTZ-JKFIT
	 Reference Energy          =    -719.5355861997284137 [Eh]
	 Singles Energy            =      -0.0000000000000000 [Eh]
	 Same-Spin Energy          =      -0.3752144715494908 [Eh]
	 Opposite-Spin Energy      =      -1.1598068143107818 [Eh]
	 Correlation Energy        =      -1.5350212858602728 [Eh]
	 Total Energy              =    -721.0706074855886527 [Eh]

	 ================> DF-SCS-MP2 Energies <==================
	-----------------------------------------------------------
	 SCS Same-Spin Scale       =       0.3333333333333333 [-]
	 SCS Opposite-Spin Scale   =       1.2000000000000000 [-]
	 SCS Same-Spin Energy      =      -0.1250714905164969 [Eh]
	 SCS Opposite-Spin Energy  =      -1.3917681771729382 [Eh]
	 SCS Correlation Energy    =      -1.5168396676894351 [Eh]
	 SCS Total Energy          =    -721.0524258674178100 [Eh]
	-----------------------------------------------------------

  Dipole Moment: [D]
     X:    -1.8842      Y:     1.3084      Z:    -1.0658     Total:     2.5295

*** Psi4 exiting successfully. Buy a developer a beer!
