                               Psi4 1.3.2 release

  ==> Input File <==

--------------------------------------------------------------------------
#psi4
#
memory 32 gb

molecule  {
0 1
  S        2.2579180    -0.2726900    -0.2934460
  O       -2.2551230    -0.6936910    -0.5624970
  O       -0.5935940    -1.5242440     0.7320250
  N       -1.2606890     1.7473760     0.2743420
  C       -0.3743770     0.7050360    -0.2599020
  C        0.9047671     0.7947359     0.5603463
  C       -1.0384360    -0.6244090     0.0410490
  H       -0.2310720     0.7525000    -1.3524110
  H        1.3604600     1.8262100     0.3009430
  H        0.8701070     0.6147400     1.4903500
  H       -2.1754500     1.6690270    -0.1683570
  H       -0.8885410     2.6612730     0.0174870
  H        1.7688800    -1.4122240     0.2118940
  H       -2.6365250    -1.5573750    -0.2997250
units angstrom
no_reorient  #important for SAPT in psi4, default
symmetry c1  #important for SAPT in psi4, default
}

set PROPERTIES_ORIGIN ["COM"]
properties('MP2/aug-cc-pvtz', properties = ['dipole'])
--------------------------------------------------------------------------

    Molecular point group: c1
  Charge       = 0
  Multiplicity = 1
  Basis Set: AUG-CC-PVTZ
    Blend: AUG-CC-PVTZ
  Basis Set: (AUG-CC-PVTZ AUX)
    Blend: AUG-CC-PVTZ-JKFIT

    Orbital Energies [Eh]
    ---------------------

    Doubly Occupied:

       1A    -91.947936     2A    -20.628692     3A    -20.566407
       4A    -15.569984     5A    -11.401620     6A    -11.298138
       7A    -11.270539     8A     -8.948247     9A     -6.629480
      10A     -6.628488    11A     -6.627575    12A     -1.474248
      13A     -1.371692    14A     -1.219054    15A     -1.055910
      16A     -0.959382    17A     -0.883805    18A     -0.801601
      19A     -0.726876    20A     -0.718088    21A     -0.673016
      22A     -0.655238    23A     -0.633737    24A     -0.601000
      25A     -0.589689    26A     -0.551272    27A     -0.509984
      28A     -0.491492    29A     -0.467836    30A     -0.444155
      31A     -0.425717    32A     -0.358201

  @DF-RHF Final Energy:  -719.51014022136496

   => Energetics <=

    Nuclear Repulsion Energy =            379.4859597970176424
    One-Electron Energy =               -1743.7340024191255452
    Two-Electron Energy =                 644.7379024007429962
    Total Energy =                       -719.5101402213649635
  Basis Set: (AUG-CC-PVTZ AUX)
    Blend: AUG-CC-PVTZ-RI
    Molecular point group: c1

    Geometry (in Angstrom), charge = 0, multiplicity = 1:

       Center              X                  Y                   Z               Mass
    ------------   -----------------  -----------------  -----------------  -----------------
         S            2.250249850089    -0.234420482512    -0.305599452998    31.972071174400
         O           -2.262791149911    -0.655421482512    -0.574650452998    15.994914619570
         O           -0.601262149911    -1.485974482512     0.719871547002    15.994914619570
         N           -1.268357149911     1.785645517488     0.262188547002    14.003074004430
         C           -0.382045149911     0.743305517488    -0.272055452998    12.000000000000
         C            0.897098950089     0.833005417488     0.548192847002    12.000000000000
         C           -1.046104149911    -0.586139482512     0.028895547002    12.000000000000
         H           -0.238740149911     0.790769517488    -1.364564452998     1.007825032230
         H            1.352791850089     1.864479517488     0.288789547002     1.007825032230
         H            0.862438850089     0.653009517488     1.478196547002     1.007825032230
         H           -2.183118149911     1.707296517488    -0.180510452998     1.007825032230
         H           -0.896209149911     2.699542517488     0.005333547002     1.007825032230
         H            1.761211850089    -1.373954482512     0.199740547002     1.007825032230
         H           -2.644193149911    -1.519105482512    -0.311878452998     1.007825032230

  Basis Set: AUG-CC-PVTZ
    Blend: AUG-CC-PVTZ
  Basis Set: (AUG-CC-PVTZ AUX)
    Blend: AUG-CC-PVTZ-JKFIT
	 Reference Energy          =    -719.5101402213649635 [Eh]
	 Singles Energy            =      -0.0000000000000000 [Eh]
	 Same-Spin Energy          =      -0.3749321009633484 [Eh]
	 Opposite-Spin Energy      =      -1.1608855656977999 [Eh]
	 Correlation Energy        =      -1.5358176666611483 [Eh]
	 Total Energy              =    -721.0459578880261233 [Eh]

	 ================> DF-SCS-MP2 Energies <==================
	-----------------------------------------------------------
	 SCS Same-Spin Scale       =       0.3333333333333333 [-]
	 SCS Opposite-Spin Scale   =       1.2000000000000000 [-]
	 SCS Same-Spin Energy      =      -0.1249773669877828 [Eh]
	 SCS Opposite-Spin Energy  =      -1.3930626788373599 [Eh]
	 SCS Correlation Energy    =      -1.5180400458251426 [Eh]
	 SCS Total Energy          =    -721.0281802671901232 [Eh]
	-----------------------------------------------------------

  Dipole Moment: [D]
     X:    -2.1692      Y:     1.3160      Z:    -1.2079     Total:     2.8100

*** Psi4 exiting successfully. Buy a developer a beer!
