                               Psi4 1.3.2 release

  ==> Input File <==

--------------------------------------------------------------------------
#psi4
#
memory 32 gb

molecule  {
0 1
  S        2.2579180    -0.2726900    -0.2934460
  O       -2.2551230    -0.6936910    -0.5624970
  O       -0.5935940    -1.5242440     0.7320250
  N       -1.2606890     1.7473760     0.2743420
  C       -0.4052944     0.6695694    -0.2395368
  C        0.9828140     0.8061630     0.4219110
  C       -1.0384360    -0.6244090     0.0410490
  H       -0.2310720     0.7525000    -1.3524110
  H        1.3604600     1.8262100     0.3009430
  H        0.8701070     0.6147400     1.4903500
  H       -2.1754500     1.6690270    -0.1683570
  H       -0.8885410     2.6612730     0.0174870
  H        1.7688800    -1.4122240     0.2118940
  H       -2.6365250    -1.5573750    -0.2997250
units angstrom
no_reorient  #important for SAPT in psi4, default
symmetry c1  #important for SAPT in psi4, default
}

set PROPERTIES_ORIGIN ["COM"]
properties('MP2/aug-cc-pvtz', properties = ['dipole'])
--------------------------------------------------------------------------

    Molecular point group: c1
  Charge       = 0
  Multiplicity = 1
  Basis Set: AUG-CC-PVTZ
    Blend: AUG-CC-PVTZ
  Basis Set: (AUG-CC-PVTZ AUX)
    Blend: AUG-CC-PVTZ-JKFIT

    Orbital Energies [Eh]
    ---------------------

    Doubly Occupied:

       1A    -91.949748     2A    -20.628659     3A    -20.566859
       4A    -15.570124     5A    -11.401498     6A    -11.294769
       7A    -11.269608     8A     -8.951190     9A     -6.632559
      10A     -6.631618    11A     -6.630629    12A     -1.475592
      13A     -1.372308    14A     -1.216542    15A     -1.061851
      16A     -0.973853    17A     -0.879400    18A     -0.789515
      19A     -0.721328    20A     -0.717258    21A     -0.675178
      22A     -0.655684    23A     -0.623672    24A     -0.603343
      25A     -0.573643    26A     -0.548898    27A     -0.524028
      28A     -0.495548    29A     -0.478364    30A     -0.451034
      31A     -0.419903    32A     -0.358129

  @DF-RHF Final Energy:  -719.53563970359107

   => Energetics <=

    Nuclear Repulsion Energy =            380.6013773297938201
    One-Electron Energy =               -1745.9893626835814757
    Two-Electron Energy =                 645.8523456501965256
    Total Energy =                       -719.5356397035910732
  Basis Set: (AUG-CC-PVTZ AUX)
    Blend: AUG-CC-PVTZ-RI
    Molecular point group: c1

    Geometry (in Angstrom), charge = 0, multiplicity = 1:

       Center              X                  Y                   Z               Mass
    ------------   -----------------  -----------------  -----------------  -----------------
         S            2.245576612856    -0.232036788934    -0.293891932496    31.972071174400
         O           -2.267464387144    -0.653037788934    -0.562942932496    15.994914619570
         O           -0.605935387144    -1.483590788934     0.731579067504    15.994914619570
         N           -1.273030387144     1.788029211066     0.273896067504    14.003074004430
         C           -0.417635787144     0.710222611066    -0.239982732496    12.000000000000
         C            0.970472612856     0.846816211066     0.421465067504    12.000000000000
         C           -1.050777387144    -0.583755788934     0.040603067504    12.000000000000
         H           -0.243413387144     0.793153211066    -1.352856932496     1.007825032230
         H            1.348118612856     1.866863211066     0.300497067504     1.007825032230
         H            0.857765612856     0.655393211066     1.489904067504     1.007825032230
         H           -2.187791387144     1.709680211066    -0.168802932496     1.007825032230
         H           -0.900882387144     2.701926211066     0.017041067504     1.007825032230
         H            1.756538612856    -1.371570788934     0.211448067504     1.007825032230
         H           -2.648866387144    -1.516721788934    -0.300170932496     1.007825032230

  Basis Set: AUG-CC-PVTZ
    Blend: AUG-CC-PVTZ
  Basis Set: (AUG-CC-PVTZ AUX)
    Blend: AUG-CC-PVTZ-JKFIT
	 Reference Energy          =    -719.5356397035910732 [Eh]
	 Singles Energy            =      -0.0000000000000000 [Eh]
	 Same-Spin Energy          =      -0.3750421609707248 [Eh]
	 Opposite-Spin Energy      =      -1.1598132076475622 [Eh]
	 Correlation Energy        =      -1.5348553686182871 [Eh]
	 Total Energy              =    -721.0704950722093827 [Eh]

	 ================> DF-SCS-MP2 Energies <==================
	-----------------------------------------------------------
	 SCS Same-Spin Scale       =       0.3333333333333333 [-]
	 SCS Opposite-Spin Scale   =       1.2000000000000000 [-]
	 SCS Same-Spin Energy      =      -0.1250140536569083 [Eh]
	 SCS Opposite-Spin Energy  =      -1.3917758491770746 [Eh]
	 SCS Correlation Energy    =      -1.5167899028339829 [Eh]
	 SCS Total Energy          =    -721.0524296064251075 [Eh]
	-----------------------------------------------------------

  Dipole Moment: [D]
     X:    -2.0364      Y:     1.2868      Z:    -1.1881     Total:     2.6860

*** Psi4 exiting successfully. Buy a developer a beer!
