                               Psi4 1.3.2 release

  ==> Input File <==

--------------------------------------------------------------------------
#psi4
#
memory 32 gb

molecule  {
0 1
  S        2.2579180    -0.2726900    -0.2934460
  O       -2.2551230    -0.6936910    -0.5624970
  O       -0.5935940    -1.5242440     0.7320250
  N       -1.2606890     1.7473760     0.2743420
  C       -0.3643813     0.8073618    -0.2866978
  C        0.9828140     0.8061630     0.4219110
  C       -1.0384360    -0.6244090     0.0410490
  H       -0.2310720     0.7525000    -1.3524110
  H        1.3604600     1.8262100     0.3009430
  H        0.8701070     0.6147400     1.4903500
  H       -2.1754500     1.6690270    -0.1683570
  H       -0.8885410     2.6612730     0.0174870
  H        1.7688800    -1.4122240     0.2118940
  H       -2.6365250    -1.5573750    -0.2997250
units angstrom
no_reorient  #important for SAPT in psi4, default
symmetry c1  #important for SAPT in psi4, default
}

set PROPERTIES_ORIGIN ["COM"]
properties('MP2/aug-cc-pvtz', properties = ['dipole'])
--------------------------------------------------------------------------

    Molecular point group: c1
  Charge       = 0
  Multiplicity = 1
  Basis Set: AUG-CC-PVTZ
    Blend: AUG-CC-PVTZ
  Basis Set: (AUG-CC-PVTZ AUX)
    Blend: AUG-CC-PVTZ-JKFIT

    Orbital Energies [Eh]
    ---------------------

    Doubly Occupied:

       1A    -91.951022     2A    -20.625714     3A    -20.562777
       4A    -15.571873     5A    -11.397955     6A    -11.296794
       7A    -11.267156     8A     -8.952305     9A     -6.633673
      10A     -6.632728    11A     -6.631746    12A     -1.468809
      13A     -1.366787    14A     -1.233522    15A     -1.061985
      16A     -0.949796    17A     -0.874901    18A     -0.792583
      19A     -0.719713    20A     -0.710566    21A     -0.680224
      22A     -0.659338    23A     -0.622091    24A     -0.606560
      25A     -0.568316    26A     -0.548697    27A     -0.524015
      28A     -0.494725    29A     -0.471709    30A     -0.445741
      31A     -0.421693    32A     -0.359669

  @DF-RHF Final Energy:  -719.52840590887081

   => Energetics <=

    Nuclear Repulsion Energy =            379.2259713175736238
    One-Electron Energy =               -1743.2983868691558200
    Two-Electron Energy =                 644.5440096427114440
    Total Energy =                       -719.5284059088708091
  Basis Set: (AUG-CC-PVTZ AUX)
    Blend: AUG-CC-PVTZ-RI
    Molecular point group: c1

    Geometry (in Angstrom), charge = 0, multiplicity = 1:

       Center              X                  Y                   Z               Mass
    ------------   -----------------  -----------------  -----------------  -----------------
         S            2.241519777492    -0.245699920819    -0.289215571806    31.972071174400
         O           -2.271521222508    -0.666700920819    -0.558266571806    15.994914619570
         O           -0.609992222508    -1.497253920819     0.736255428194    15.994914619570
         N           -1.277087222508     1.774366079181     0.278572428194    14.003074004430
         C           -0.380779522508     0.834351879181    -0.282467371806    12.000000000000
         C            0.966415777492     0.833153079181     0.426141428194    12.000000000000
         C           -1.054834222508    -0.597418920819     0.045279428194    12.000000000000
         H           -0.247470222508     0.779490079181    -1.348180571806     1.007825032230
         H            1.344061777492     1.853200079181     0.305173428194     1.007825032230
         H            0.853708777492     0.641730079181     1.494580428194     1.007825032230
         H           -2.191848222508     1.696017079181    -0.164126571806     1.007825032230
         H           -0.904939222508     2.688263079181     0.021717428194     1.007825032230
         H            1.752481777492    -1.385233920819     0.216124428194     1.007825032230
         H           -2.652923222508    -1.530384920819    -0.295494571806     1.007825032230

  Basis Set: AUG-CC-PVTZ
    Blend: AUG-CC-PVTZ
  Basis Set: (AUG-CC-PVTZ AUX)
    Blend: AUG-CC-PVTZ-JKFIT
	 Reference Energy          =    -719.5284059088708091 [Eh]
	 Singles Energy            =      -0.0000000000000000 [Eh]
	 Same-Spin Energy          =      -0.3751026060447192 [Eh]
	 Opposite-Spin Energy      =      -1.1597399505124930 [Eh]
	 Correlation Energy        =      -1.5348425565572121 [Eh]
	 Total Energy              =    -721.0632484654280461 [Eh]

	 ================> DF-SCS-MP2 Energies <==================
	-----------------------------------------------------------
	 SCS Same-Spin Scale       =       0.3333333333333333 [-]
	 SCS Opposite-Spin Scale   =       1.2000000000000000 [-]
	 SCS Same-Spin Energy      =      -0.1250342020149064 [Eh]
	 SCS Opposite-Spin Energy  =      -1.3916879406149916 [Eh]
	 SCS Correlation Energy    =      -1.5167221426298980 [Eh]
	 SCS Total Energy          =    -721.0451280515006829 [Eh]
	-----------------------------------------------------------

  Dipole Moment: [D]
     X:    -2.0858      Y:     1.3861      Z:    -1.1856     Total:     2.7708

*** Psi4 exiting successfully. Buy a developer a beer!
