                               Psi4 1.3.2 release

  ==> Input File <==

--------------------------------------------------------------------------
#psi4
#
memory 32 gb

molecule  {
0 1
  S        2.2579180    -0.2726900    -0.2934460
  O       -2.2551230    -0.6936910    -0.5624970
  O       -0.5935940    -1.5242440     0.7320250
  N       -1.2606890     1.7473760     0.2743420
  C       -0.3445394     0.7417725    -0.2796163
  C        0.9828140     0.8061630     0.4219110
  C       -1.0384360    -0.6244090     0.0410490
  H       -0.2310720     0.7525000    -1.3524110
  H        1.3604600     1.8262100     0.3009430
  H        0.8701070     0.6147400     1.4903500
  H       -2.1754500     1.6690270    -0.1683570
  H       -0.8885410     2.6612730     0.0174870
  H        1.7688800    -1.4122240     0.2118940
  H       -2.6365250    -1.5573750    -0.2997250
units angstrom
no_reorient  #important for SAPT in psi4, default
symmetry c1  #important for SAPT in psi4, default
}

set PROPERTIES_ORIGIN ["COM"]
properties('MP2/aug-cc-pvtz', properties = ['dipole'])
--------------------------------------------------------------------------

    Molecular point group: c1
  Charge       = 0
  Multiplicity = 1
  Basis Set: AUG-CC-PVTZ
    Blend: AUG-CC-PVTZ
  Basis Set: (AUG-CC-PVTZ AUX)
    Blend: AUG-CC-PVTZ-JKFIT

    Orbital Energies [Eh]
    ---------------------

    Doubly Occupied:

       1A    -91.950589     2A    -20.627731     3A    -20.564115
       4A    -15.570293     5A    -11.400675     6A    -11.295340
       7A    -11.267680     8A     -8.952023     9A     -6.633385
      10A     -6.632450    11A     -6.631457    12A     -1.471466
      13A     -1.369093    14A     -1.217048    15A     -1.065648
      16A     -0.957225    17A     -0.878544    18A     -0.792963
      19A     -0.719648    20A     -0.714438    21A     -0.670545
      22A     -0.657528    23A     -0.623426    24A     -0.602422
      25A     -0.567064    26A     -0.559471    27A     -0.525097
      28A     -0.494652    29A     -0.470881    30A     -0.448397
      31A     -0.424885    32A     -0.360028

  @DF-RHF Final Energy:  -719.53627127248706

   => Energetics <=

    Nuclear Repulsion Energy =            379.7456211199906306
    One-Electron Energy =               -1744.3313690880740978
    Two-Electron Energy =                 645.0494766955964678
    Total Energy =                       -719.5362712724870562
  Basis Set: (AUG-CC-PVTZ AUX)
    Blend: AUG-CC-PVTZ-RI
    Molecular point group: c1

    Geometry (in Angstrom), charge = 0, multiplicity = 1:

       Center              X                  Y                   Z               Mass
    ------------   -----------------  -----------------  -----------------  -----------------
         S            2.239552306888    -0.239196258381    -0.289917754716    31.972071174400
         O           -2.273488693112    -0.660197258381    -0.558968754716    15.994914619570
         O           -0.611959693112    -1.490750258381     0.735553245284    15.994914619570
         N           -1.279054693112     1.780869741619     0.277870245284    14.003074004430
         C           -0.362905093112     0.775266241619    -0.276088054716    12.000000000000
         C            0.964448306888     0.839656741619     0.425439245284    12.000000000000
         C           -1.056801693112    -0.590915258381     0.044577245284    12.000000000000
         H           -0.249437693112     0.785993741619    -1.348882754716     1.007825032230
         H            1.342094306888     1.859703741619     0.304471245284     1.007825032230
         H            0.851741306888     0.648233741619     1.493878245284     1.007825032230
         H           -2.193815693112     1.702520741619    -0.164828754716     1.007825032230
         H           -0.906906693112     2.694766741619     0.021015245284     1.007825032230
         H            1.750514306888    -1.378730258381     0.215422245284     1.007825032230
         H           -2.654890693112    -1.523881258381    -0.296196754716     1.007825032230

  Basis Set: AUG-CC-PVTZ
    Blend: AUG-CC-PVTZ
  Basis Set: (AUG-CC-PVTZ AUX)
    Blend: AUG-CC-PVTZ-JKFIT
	 Reference Energy          =    -719.5362712724870562 [Eh]
	 Singles Energy            =      -0.0000000000000000 [Eh]
	 Same-Spin Energy          =      -0.3747894133451488 [Eh]
	 Opposite-Spin Energy      =      -1.1594477460645460 [Eh]
	 Correlation Energy        =      -1.5342371594096949 [Eh]
	 Total Energy              =    -721.0705084318967693 [Eh]

	 ================> DF-SCS-MP2 Energies <==================
	-----------------------------------------------------------
	 SCS Same-Spin Scale       =       0.3333333333333333 [-]
	 SCS Opposite-Spin Scale   =       1.2000000000000000 [-]
	 SCS Same-Spin Energy      =      -0.1249298044483829 [Eh]
	 SCS Opposite-Spin Energy  =      -1.3913372952774552 [Eh]
	 SCS Correlation Energy    =      -1.5162670997258381 [Eh]
	 SCS Total Energy          =    -721.0525383722128936 [Eh]
	-----------------------------------------------------------

  Dipole Moment: [D]
     X:    -2.0080      Y:     1.2899      Z:    -1.2210     Total:     2.6808

*** Psi4 exiting successfully. Buy a developer a beer!
