                               Psi4 1.3.2 release

  ==> Input File <==

--------------------------------------------------------------------------
#psi4
#
memory 32 gb

molecule  {
0 1
  S        2.2579180    -0.2726900    -0.2934460
  O       -2.2551230    -0.6936910    -0.5624970
  O       -0.5935940    -1.5242440     0.7320250
  N       -1.2606890     1.7473760     0.2743420
  C       -0.3743770     0.7050360    -0.2599020
  C        1.0719744     0.8128065     0.4667026
  C       -1.0384360    -0.6244090     0.0410490
  H       -0.2310720     0.7525000    -1.3524110
  H        1.3604600     1.8262100     0.3009430
  H        0.8701070     0.6147400     1.4903500
  H       -2.1754500     1.6690270    -0.1683570
  H       -0.8885410     2.6612730     0.0174870
  H        1.7688800    -1.4122240     0.2118940
  H       -2.6365250    -1.5573750    -0.2997250
units angstrom
no_reorient  #important for SAPT in psi4, default
symmetry c1  #important for SAPT in psi4, default
}

set PROPERTIES_ORIGIN ["COM"]
properties('MP2/aug-cc-pvtz', properties = ['dipole'])
--------------------------------------------------------------------------

    Molecular point group: c1
  Charge       = 0
  Multiplicity = 1
  Basis Set: AUG-CC-PVTZ
    Blend: AUG-CC-PVTZ
  Basis Set: (AUG-CC-PVTZ AUX)
    Blend: AUG-CC-PVTZ-JKFIT

    Orbital Energies [Eh]
    ---------------------

    Doubly Occupied:

       1A    -91.950472     2A    -20.627586     3A    -20.564360
       4A    -15.569085     5A    -11.400484     6A    -11.296550
       7A    -11.267420     8A     -8.952510     9A     -6.633943
      10A     -6.633005    11A     -6.631973    12A     -1.472577
      13A     -1.369685    14A     -1.211036    15A     -1.062470
      16A     -0.964207    17A     -0.875745    18A     -0.792733
      19A     -0.719272    20A     -0.712690    21A     -0.669013
      22A     -0.656205    23A     -0.626972    24A     -0.600515
      25A     -0.575860    26A     -0.539242    27A     -0.534845
      28A     -0.495129    29A     -0.476737    30A     -0.451636
      31A     -0.419639    32A     -0.355638

  @DF-RHF Final Energy:  -719.53178164249141

   => Energetics <=

    Nuclear Repulsion Energy =            379.1776433710918468
    One-Electron Energy =               -1743.2003783479678987
    Two-Electron Energy =                 644.4909533343846988
    Total Energy =                       -719.5317816424914099
  Basis Set: (AUG-CC-PVTZ AUX)
    Blend: AUG-CC-PVTZ-RI
    Molecular point group: c1

    Geometry (in Angstrom), charge = 0, multiplicity = 1:

       Center              X                  Y                   Z               Mass
    ------------   -----------------  -----------------  -----------------  -----------------
         S            2.233670014104    -0.236212315668    -0.296313990060    31.972071174400
         O           -2.279370985896    -0.657213315668    -0.565364990060    15.994914619570
         O           -0.617841985896    -1.487766315668     0.729157009940    15.994914619570
         N           -1.284936985896     1.783853684332     0.271474009940    14.003074004430
         C           -0.398624985896     0.741513684332    -0.262769990060    12.000000000000
         C            1.047726414104     0.849284184332     0.463834609940    12.000000000000
         C           -1.062683985896    -0.587931315668     0.038181009940    12.000000000000
         H           -0.255319985896     0.788977684332    -1.355278990060     1.007825032230
         H            1.336212014104     1.862687684332     0.298075009940     1.007825032230
         H            0.845859014104     0.651217684332     1.487482009940     1.007825032230
         H           -2.199697985896     1.705504684332    -0.171224990060     1.007825032230
         H           -0.912788985896     2.697750684332     0.014619009940     1.007825032230
         H            1.744632014104    -1.375746315668     0.209026009940     1.007825032230
         H           -2.660772985896    -1.520897315668    -0.302592990060     1.007825032230

  Basis Set: AUG-CC-PVTZ
    Blend: AUG-CC-PVTZ
  Basis Set: (AUG-CC-PVTZ AUX)
    Blend: AUG-CC-PVTZ-JKFIT
	 Reference Energy          =    -719.5317816424914099 [Eh]
	 Singles Energy            =      -0.0000000000000000 [Eh]
	 Same-Spin Energy          =      -0.3745764399474889 [Eh]
	 Opposite-Spin Energy      =      -1.1592922009986031 [Eh]
	 Correlation Energy        =      -1.5338686409460920 [Eh]
	 Total Energy              =    -721.0656502834375488 [Eh]

	 ================> DF-SCS-MP2 Energies <==================
	-----------------------------------------------------------
	 SCS Same-Spin Scale       =       0.3333333333333333 [-]
	 SCS Opposite-Spin Scale   =       1.2000000000000000 [-]
	 SCS Same-Spin Energy      =      -0.1248588133158296 [Eh]
	 SCS Opposite-Spin Energy  =      -1.3911506411983237 [Eh]
	 SCS Correlation Energy    =      -1.5160094545141534 [Eh]
	 SCS Total Energy          =    -721.0477910970055291 [Eh]
	-----------------------------------------------------------

  Dipole Moment: [D]
     X:    -1.9683      Y:     1.2681      Z:    -1.2170     Total:     2.6388

*** Psi4 exiting successfully. Buy a developer a beer!
