                               Psi4 1.3.2 release

  ==> Input File <==

--------------------------------------------------------------------------
#psi4
#
memory 32 gb

molecule  {
0 1
  S        2.2579180    -0.2726900    -0.2934460
  O       -2.2551230    -0.6936910    -0.5624970
  O       -0.5935940    -1.5242440     0.7320250
  N       -1.2606890     1.7473760     0.2743420
  C       -0.3743770     0.7050360    -0.2599020
  C        0.9584116     0.8024711     0.4689629
  C       -1.0384360    -0.6244090     0.0410490
  H       -0.2310720     0.7525000    -1.3524110
  H        1.3604600     1.8262100     0.3009430
  H        0.8701070     0.6147400     1.4903500
  H       -2.1754500     1.6690270    -0.1683570
  H       -0.8885410     2.6612730     0.0174870
  H        1.7688800    -1.4122240     0.2118940
  H       -2.6365250    -1.5573750    -0.2997250
units angstrom
no_reorient  #important for SAPT in psi4, default
symmetry c1  #important for SAPT in psi4, default
}

set PROPERTIES_ORIGIN ["COM"]
properties('MP2/aug-cc-pvtz', properties = ['dipole'])
--------------------------------------------------------------------------

    Molecular point group: c1
  Charge       = 0
  Multiplicity = 1
  Basis Set: AUG-CC-PVTZ
    Blend: AUG-CC-PVTZ
  Basis Set: (AUG-CC-PVTZ AUX)
    Blend: AUG-CC-PVTZ-JKFIT

    Orbital Energies [Eh]
    ---------------------

    Doubly Occupied:

       1A    -91.949501     2A    -20.628404     3A    -20.565782
       4A    -15.569836     5A    -11.401444     6A    -11.295443
       7A    -11.268377     8A     -8.950521     9A     -6.631842
      10A     -6.630885    11A     -6.629927    12A     -1.473732
      13A     -1.371029    14A     -1.217180    15A     -1.060301
      16A     -0.962745    17A     -0.880220    18A     -0.793381
      19A     -0.721965    20A     -0.717461    21A     -0.672006
      22A     -0.656426    23A     -0.626477    24A     -0.601703
      25A     -0.572205    26A     -0.558965    27A     -0.518426
      28A     -0.493977    29A     -0.473219    30A     -0.449537
      31A     -0.424026    32A     -0.359210

  @DF-RHF Final Energy:  -719.53611313296597

   => Energetics <=

    Nuclear Repulsion Energy =            379.9341415471710661
    One-Electron Energy =               -1744.6882017640796221
    Two-Electron Energy =                 645.2179470839425903
    Total Energy =                       -719.5361131329659656
  Basis Set: (AUG-CC-PVTZ AUX)
    Blend: AUG-CC-PVTZ-RI
    Molecular point group: c1

    Geometry (in Angstrom), charge = 0, multiplicity = 1:

       Center              X                  Y                   Z               Mass
    ------------   -----------------  -----------------  -----------------  -----------------
         S            2.244930602595    -0.235187484594    -0.296538115462    31.972071174400
         O           -2.268110397405    -0.656188484594    -0.565589115462    15.994914619570
         O           -0.606581397405    -1.486741484594     0.728932884538    15.994914619570
         N           -1.273676397405     1.784878515406     0.271249884538    14.003074004430
         C           -0.387364397405     0.742538515406    -0.262994115462    12.000000000000
         C            0.945424202595     0.839973615406     0.465870784538    12.000000000000
         C           -1.051423397405    -0.586906484594     0.037956884538    12.000000000000
         H           -0.244059397405     0.790002515406    -1.355503115462     1.007825032230
         H            1.347472602595     1.863712515406     0.297850884538     1.007825032230
         H            0.857119602595     0.652242515406     1.487257884538     1.007825032230
         H           -2.188437397405     1.706529515406    -0.171449115462     1.007825032230
         H           -0.901528397405     2.698775515406     0.014394884538     1.007825032230
         H            1.755892602595    -1.374721484594     0.208801884538     1.007825032230
         H           -2.649512397405    -1.519872484594    -0.302817115462     1.007825032230

  Basis Set: AUG-CC-PVTZ
    Blend: AUG-CC-PVTZ
  Basis Set: (AUG-CC-PVTZ AUX)
    Blend: AUG-CC-PVTZ-JKFIT
	 Reference Energy          =    -719.5361131329659656 [Eh]
	 Singles Energy            =      -0.0000000000000000 [Eh]
	 Same-Spin Energy          =      -0.3746989534163215 [Eh]
	 Opposite-Spin Energy      =      -1.1595434081440064 [Eh]
	 Correlation Energy        =      -1.5342423615603278 [Eh]
	 Total Energy              =    -721.0703554945263249 [Eh]

	 ================> DF-SCS-MP2 Energies <==================
	-----------------------------------------------------------
	 SCS Same-Spin Scale       =       0.3333333333333333 [-]
	 SCS Opposite-Spin Scale   =       1.2000000000000000 [-]
	 SCS Same-Spin Energy      =      -0.1248996511387738 [Eh]
	 SCS Opposite-Spin Energy  =      -1.3914520897728075 [Eh]
	 SCS Correlation Energy    =      -1.5163517409115814 [Eh]
	 SCS Total Energy          =    -721.0524648738775113 [Eh]
	-----------------------------------------------------------

  Dipole Moment: [D]
     X:    -2.0656      Y:     1.2947      Z:    -1.2027     Total:     2.7183

*** Psi4 exiting successfully. Buy a developer a beer!
