                               Psi4 1.3.2 release

  ==> Input File <==

--------------------------------------------------------------------------
#psi4
#
memory 32 gb

molecule  {
0 1
  S        2.2579180    -0.2726900    -0.2934460
  O       -2.2551230    -0.6936910    -0.5624970
  O       -0.5935940    -1.5242440     0.7320250
  N       -1.2606890     1.7473760     0.2743420
  C       -0.3768971     0.6540268    -0.2452497
  C        0.9828140     0.8061630     0.4219110
  C       -1.0384360    -0.6244090     0.0410490
  H       -0.2310720     0.7525000    -1.3524110
  H        1.3604600     1.8262100     0.3009430
  H        0.8701070     0.6147400     1.4903500
  H       -2.1754500     1.6690270    -0.1683570
  H       -0.8885410     2.6612730     0.0174870
  H        1.7688800    -1.4122240     0.2118940
  H       -2.6365250    -1.5573750    -0.2997250
units angstrom
no_reorient  #important for SAPT in psi4, default
symmetry c1  #important for SAPT in psi4, default
}

set PROPERTIES_ORIGIN ["COM"]
properties('MP2/aug-cc-pvtz', properties = ['dipole'])
--------------------------------------------------------------------------

    Molecular point group: c1
  Charge       = 0
  Multiplicity = 1
  Basis Set: AUG-CC-PVTZ
    Blend: AUG-CC-PVTZ
  Basis Set: (AUG-CC-PVTZ AUX)
    Blend: AUG-CC-PVTZ-JKFIT

    Orbital Energies [Eh]
    ---------------------

    Doubly Occupied:

       1A    -91.949809     2A    -20.629286     3A    -20.566437
       4A    -15.569597     5A    -11.401781     6A    -11.294874
       7A    -11.269716     8A     -8.951329     9A     -6.632692
      10A     -6.631759    11A     -6.630762    12A     -1.475677
      13A     -1.372447    14A     -1.209190    15A     -1.064859
      16A     -0.973879    17A     -0.881108    18A     -0.790521
      19A     -0.721181    20A     -0.718603    21A     -0.670798
      22A     -0.654094    23A     -0.624211    24A     -0.599467
      25A     -0.575917    26A     -0.554100    27A     -0.524389
      28A     -0.495114    29A     -0.475965    30A     -0.451369
      31A     -0.421013    32A     -0.358828

  @DF-RHF Final Energy:  -719.53564463176860

   => Energetics <=

    Nuclear Repulsion Energy =            380.6649524496531853
    One-Electron Energy =               -1746.1196588900047573
    Two-Electron Energy =                 645.9190618085830238
    Total Energy =                       -719.5356446317686050
  Basis Set: (AUG-CC-PVTZ AUX)
    Blend: AUG-CC-PVTZ-RI
    Molecular point group: c1

    Geometry (in Angstrom), charge = 0, multiplicity = 1:

       Center              X                  Y                   Z               Mass
    ------------   -----------------  -----------------  -----------------  -----------------
         S            2.242760811294    -0.230495625607    -0.293325456362    31.972071174400
         O           -2.270280188706    -0.651496625607    -0.562376456362    15.994914619570
         O           -0.608751188706    -1.482049625607     0.732145543638    15.994914619570
         N           -1.275846188706     1.789570374393     0.274462543638    14.003074004430
         C           -0.392054288706     0.696221174393    -0.245129156362    12.000000000000
         C            0.967656811294     0.848357374393     0.422031543638    12.000000000000
         C           -1.053593188706    -0.582214625607     0.041169543638    12.000000000000
         H           -0.246229188706     0.794694374393    -1.352290456362     1.007825032230
         H            1.345302811294     1.868404374393     0.301063543638     1.007825032230
         H            0.854949811294     0.656934374393     1.490470543638     1.007825032230
         H           -2.190607188706     1.711221374393    -0.168236456362     1.007825032230
         H           -0.903698188706     2.703467374393     0.017607543638     1.007825032230
         H            1.753722811294    -1.370029625607     0.212014543638     1.007825032230
         H           -2.651682188706    -1.515180625607    -0.299604456362     1.007825032230

  Basis Set: AUG-CC-PVTZ
    Blend: AUG-CC-PVTZ
  Basis Set: (AUG-CC-PVTZ AUX)
    Blend: AUG-CC-PVTZ-JKFIT
	 Reference Energy          =    -719.5356446317686050 [Eh]
	 Singles Energy            =      -0.0000000000000000 [Eh]
	 Same-Spin Energy          =      -0.3750117124110119 [Eh]
	 Opposite-Spin Energy      =      -1.1599223704306771 [Eh]
	 Correlation Energy        =      -1.5349340828416891 [Eh]
	 Total Energy              =    -721.0705787146102921 [Eh]

	 ================> DF-SCS-MP2 Energies <==================
	-----------------------------------------------------------
	 SCS Same-Spin Scale       =       0.3333333333333333 [-]
	 SCS Opposite-Spin Scale   =       1.2000000000000000 [-]
	 SCS Same-Spin Energy      =      -0.1250039041370040 [Eh]
	 SCS Opposite-Spin Energy  =      -1.3919068445168126 [Eh]
	 SCS Correlation Energy    =      -1.5169107486538165 [Eh]
	 SCS Total Energy          =    -721.0525553804224046 [Eh]
	-----------------------------------------------------------

  Dipole Moment: [D]
     X:    -1.9857      Y:     1.2485      Z:    -1.2160     Total:     2.6420

*** Psi4 exiting successfully. Buy a developer a beer!
