                               Psi4 1.3.2 release

  ==> Input File <==

--------------------------------------------------------------------------
#psi4
#
memory 32 gb

molecule  {
0 1
  S        2.2579180    -0.2726900    -0.2934460
  O       -2.2551230    -0.6936910    -0.5624970
  O       -0.5935940    -1.5242440     0.7320250
  N       -1.2606890     1.7473760     0.2743420
  C       -0.4702169     0.6026173    -0.1969538
  C        0.9828140     0.8061630     0.4219110
  C       -1.0384360    -0.6244090     0.0410490
  H       -0.2310720     0.7525000    -1.3524110
  H        1.3604600     1.8262100     0.3009430
  H        0.8701070     0.6147400     1.4903500
  H       -2.1754500     1.6690270    -0.1683570
  H       -0.8885410     2.6612730     0.0174870
  H        1.7688800    -1.4122240     0.2118940
  H       -2.6365250    -1.5573750    -0.2997250
units angstrom
no_reorient  #important for SAPT in psi4, default
symmetry c1  #important for SAPT in psi4, default
}

set PROPERTIES_ORIGIN ["COM"]
properties('MP2/aug-cc-pvtz', properties = ['dipole'])
--------------------------------------------------------------------------

    Molecular point group: c1
  Charge       = 0
  Multiplicity = 1
  Basis Set: AUG-CC-PVTZ
    Blend: AUG-CC-PVTZ
  Basis Set: (AUG-CC-PVTZ AUX)
    Blend: AUG-CC-PVTZ-JKFIT

    Orbital Energies [Eh]
    ---------------------

    Doubly Occupied:

       1A    -91.949296     2A    -20.628114     3A    -20.568502
       4A    -15.571530     5A    -11.398947     6A    -11.295971
       7A    -11.272767     8A     -8.950719     9A     -6.632094
      10A     -6.631147    11A     -6.630161    12A     -1.479168
      13A     -1.374436    14A     -1.217586    15A     -1.060654
      16A     -0.995345    17A     -0.877957    18A     -0.787435
      19A     -0.724270    20A     -0.716076    21A     -0.684314
      22A     -0.652614    23A     -0.622797    24A     -0.607063
      25A     -0.581067    26A     -0.535171    27A     -0.520282
      28A     -0.495341    29A     -0.483795    30A     -0.451970
      31A     -0.411597    32A     -0.356040

  @DF-RHF Final Energy:  -719.51000396753284

   => Energetics <=

    Nuclear Repulsion Energy =            381.4681580071321605
    One-Electron Energy =               -1747.6278711753095649
    Two-Electron Energy =                 646.6497092006445655
    Total Energy =                       -719.5100039675328389
  Basis Set: (AUG-CC-PVTZ AUX)
    Blend: AUG-CC-PVTZ-RI
    Molecular point group: c1

    Geometry (in Angstrom), charge = 0, multiplicity = 1:

       Center              X                  Y                   Z               Mass
    ------------   -----------------  -----------------  -----------------  -----------------
         S            2.252014157160    -0.225397994834    -0.298114350751    31.972071174400
         O           -2.261026842840    -0.646398994834    -0.567165350751    15.994914619570
         O           -0.599497842840    -1.476951994834     0.727356649249    15.994914619570
         N           -1.266592842840     1.794668005166     0.269673649249    14.003074004430
         C           -0.476120742840     0.649909305166    -0.201622150751    12.000000000000
         C            0.976910157160     0.853455005166     0.417242649249    12.000000000000
         C           -1.044339842840    -0.577116994834     0.036380649249    12.000000000000
         H           -0.236975842840     0.799792005166    -1.357079350751     1.007825032230
         H            1.354556157160     1.873502005166     0.296274649249     1.007825032230
         H            0.864203157160     0.662032005166     1.485681649249     1.007825032230
         H           -2.181353842840     1.716319005166    -0.173025350751     1.007825032230
         H           -0.894444842840     2.708565005166     0.012818649249     1.007825032230
         H            1.762976157160    -1.364931994834     0.207225649249     1.007825032230
         H           -2.642428842840    -1.510082994834    -0.304393350751     1.007825032230

  Basis Set: AUG-CC-PVTZ
    Blend: AUG-CC-PVTZ
  Basis Set: (AUG-CC-PVTZ AUX)
    Blend: AUG-CC-PVTZ-JKFIT
	 Reference Energy          =    -719.5100039675328389 [Eh]
	 Singles Energy            =      -0.0000000000000000 [Eh]
	 Same-Spin Energy          =      -0.3763318081991807 [Eh]
	 Opposite-Spin Energy      =      -1.1621046806268380 [Eh]
	 Correlation Energy        =      -1.5384364888260187 [Eh]
	 Total Energy              =    -721.0484404563588896 [Eh]

	 ================> DF-SCS-MP2 Energies <==================
	-----------------------------------------------------------
	 SCS Same-Spin Scale       =       0.3333333333333333 [-]
	 SCS Opposite-Spin Scale   =       1.2000000000000000 [-]
	 SCS Same-Spin Energy      =      -0.1254439360663935 [Eh]
	 SCS Opposite-Spin Energy  =      -1.3945256167522055 [Eh]
	 SCS Correlation Energy    =      -1.5199695528185990 [Eh]
	 SCS Total Energy          =    -721.0299735203514047 [Eh]
	-----------------------------------------------------------

  Dipole Moment: [D]
     X:    -2.0361      Y:     1.3330      Z:    -1.1508     Total:     2.6920

*** Psi4 exiting successfully. Buy a developer a beer!
