                               Psi4 1.3.2 release

  ==> Input File <==

--------------------------------------------------------------------------
#psi4
#
memory 32 gb

molecule  {
0 1
  S        2.2579180    -0.2726900    -0.2934460
  O       -2.2551230    -0.6936910    -0.5624970
  O       -0.5935940    -1.5242440     0.7320250
  N       -1.2606890     1.7473760     0.2743420
  C       -0.3743770     0.7050360    -0.2599020
  C        0.9828140     0.8061630     0.4219110
  C       -1.0384360    -0.6244090     0.0410490
  H       -0.2310720     0.7525000    -1.3524110
  H        1.3604600     1.8262100     0.3009430
  H        0.8701070     0.6147400     1.4903500
  H       -2.1754500     1.6690270    -0.1683570
  H       -0.8885410     2.6612730     0.0174870
  H        1.6958377    -1.5824239     0.2873712
  H       -2.6365250    -1.5573750    -0.2997250
units angstrom
no_reorient  #important for SAPT in psi4, default
symmetry c1  #important for SAPT in psi4, default
}

set PROPERTIES_ORIGIN ["COM"]
properties('MP2/aug-cc-pvtz', properties = ['dipole'])
--------------------------------------------------------------------------

    Molecular point group: c1
  Charge       = 0
  Multiplicity = 1
  Basis Set: AUG-CC-PVTZ
    Blend: AUG-CC-PVTZ
  Basis Set: (AUG-CC-PVTZ AUX)
    Blend: AUG-CC-PVTZ-JKFIT

    Orbital Energies [Eh]
    ---------------------

    Doubly Occupied:

       1A    -91.960881     2A    -20.628820     3A    -20.566041
       4A    -15.570061     5A    -11.402155     6A    -11.294753
       7A    -11.268480     8A     -8.958621     9A     -6.639727
      10A     -6.638821    11A     -6.638001    12A     -1.474117
      13A     -1.371511    14A     -1.216614    15A     -1.059448
      16A     -0.959169    17A     -0.866921    18A     -0.788736
      19A     -0.720995    20A     -0.716448    21A     -0.670990
      22A     -0.655255    23A     -0.623394    24A     -0.603026
      25A     -0.562040    26A     -0.556833    27A     -0.511999
      28A     -0.492704    29A     -0.475054    30A     -0.438828
      31A     -0.423053    32A     -0.357420

  @DF-RHF Final Energy:  -719.52111756224417

   => Energetics <=

    Nuclear Repulsion Energy =            379.2947148901318997
    One-Electron Energy =               -1743.4098378026537830
    Two-Electron Energy =                 644.5940053502777118
    Total Energy =                       -719.5211175622441715
  Basis Set: (AUG-CC-PVTZ AUX)
    Blend: AUG-CC-PVTZ-RI
    Molecular point group: c1

    Geometry (in Angstrom), charge = 0, multiplicity = 1:

       Center              X                  Y                   Z               Mass
    ------------   -----------------  -----------------  -----------------  -----------------
         S            2.243119204519    -0.234136177514    -0.292501129847    31.972071174400
         O           -2.269921795481    -0.655137177514    -0.561552129847    15.994914619570
         O           -0.608392795481    -1.485690177514     0.732969870153    15.994914619570
         N           -1.275487795481     1.785929822486     0.275286870153    14.003074004430
         C           -0.389175795481     0.743589822486    -0.258957129847    12.000000000000
         C            0.968015204519     0.844716822486     0.422855870153    12.000000000000
         C           -1.053234795481    -0.585855177514     0.041993870153    12.000000000000
         H           -0.245870795481     0.791053822486    -1.351466129847     1.007825032230
         H            1.345661204519     1.864763822486     0.301887870153     1.007825032230
         H            0.855308204519     0.653293822486     1.491294870153     1.007825032230
         H           -2.190248795481     1.707580822486    -0.167412129847     1.007825032230
         H           -0.903339795481     2.699826822486     0.018431870153     1.007825032230
         H            1.681038904519    -1.543870077514     0.288316070153     1.007825032230
         H           -2.651323795481    -1.518821177514    -0.298780129847     1.007825032230

  Basis Set: AUG-CC-PVTZ
    Blend: AUG-CC-PVTZ
  Basis Set: (AUG-CC-PVTZ AUX)
    Blend: AUG-CC-PVTZ-JKFIT
	 Reference Energy          =    -719.5211175622441715 [Eh]
	 Singles Energy            =      -0.0000000000000000 [Eh]
	 Same-Spin Energy          =      -0.3752301088553468 [Eh]
	 Opposite-Spin Energy      =      -1.1613147664202625 [Eh]
	 Correlation Energy        =      -1.5365448752756095 [Eh]
	 Total Energy              =    -721.0576624375197525 [Eh]

	 ================> DF-SCS-MP2 Energies <==================
	-----------------------------------------------------------
	 SCS Same-Spin Scale       =       0.3333333333333333 [-]
	 SCS Opposite-Spin Scale   =       1.2000000000000000 [-]
	 SCS Same-Spin Energy      =      -0.1250767029517822 [Eh]
	 SCS Opposite-Spin Energy  =      -1.3935777197043151 [Eh]
	 SCS Correlation Energy    =      -1.5186544226560974 [Eh]
	 SCS Total Energy          =    -721.0397719849003124 [Eh]
	-----------------------------------------------------------

  Dipole Moment: [D]
     X:    -2.0984      Y:     1.2460      Z:    -1.1745     Total:     2.7083

*** Psi4 exiting successfully. Buy a developer a beer!
