                               Psi4 1.3.2 release

  ==> Input File <==

--------------------------------------------------------------------------
#psi4
#
memory 32 gb

molecule  {
0 1
  S        2.2787210    -0.2617547    -0.2721543
  O       -2.2551230    -0.6936910    -0.5624970
  O       -0.5935940    -1.5242440     0.7320250
  N       -1.2606890     1.7473760     0.2743420
  C       -0.3743770     0.7050360    -0.2599020
  C        0.9828140     0.8061630     0.4219110
  C       -1.0384360    -0.6244090     0.0410490
  H       -0.2310720     0.7525000    -1.3524110
  H        1.3604600     1.8262100     0.3009430
  H        0.8701070     0.6147400     1.4903500
  H       -2.1754500     1.6690270    -0.1683570
  H       -0.8885410     2.6612730     0.0174870
  H        1.7688800    -1.4122240     0.2118940
  H       -2.6365250    -1.5573750    -0.2997250
units angstrom
no_reorient  #important for SAPT in psi4, default
symmetry c1  #important for SAPT in psi4, default
}

set PROPERTIES_ORIGIN ["COM"]
properties('MP2/aug-cc-pvtz', properties = ['dipole'])
--------------------------------------------------------------------------

    Molecular point group: c1
  Charge       = 0
  Multiplicity = 1
  Basis Set: AUG-CC-PVTZ
    Blend: AUG-CC-PVTZ
  Basis Set: (AUG-CC-PVTZ AUX)
    Blend: AUG-CC-PVTZ-JKFIT

    Orbital Energies [Eh]
    ---------------------

    Doubly Occupied:

       1A    -91.950921     2A    -20.628535     3A    -20.565838
       4A    -15.570317     5A    -11.401691     6A    -11.295188
       7A    -11.268307     8A     -8.952099     9A     -6.633446
      10A     -6.632512    11A     -6.631531    12A     -1.473778
      13A     -1.371003    14A     -1.216785    15A     -1.063066
      16A     -0.964981    17A     -0.878556    18A     -0.790893
      19A     -0.720490    20A     -0.716431    21A     -0.672016
      22A     -0.657234    23A     -0.623710    24A     -0.602985
      25A     -0.567437    26A     -0.557057    27A     -0.523340
      28A     -0.495316    29A     -0.474776    30A     -0.450170
      31A     -0.423226    32A     -0.359038

  @DF-RHF Final Energy:  -719.53863635341372

   => Energetics <=

    Nuclear Repulsion Energy =            379.7175396416448052
    One-Electron Energy =               -1744.2470080043904090
    Two-Electron Energy =                 644.9908320093318252
    Total Energy =                       -719.5386363534137217
  Basis Set: (AUG-CC-PVTZ AUX)
    Blend: AUG-CC-PVTZ-RI
    Molecular point group: c1

    Geometry (in Angstrom), charge = 0, multiplicity = 1:

       Center              X                  Y                   Z               Mass
    ------------   -----------------  -----------------  -----------------  -----------------
         S            2.257818003699    -0.227507248260    -0.276205903051    31.972071174400
         O           -2.276025996301    -0.659443548260    -0.566548603051    15.994914619570
         O           -0.614496996301    -1.489996548260     0.727973396949    15.994914619570
         N           -1.281591996301     1.781623451740     0.270290396949    14.003074004430
         C           -0.395279996301     0.739283451740    -0.263953603051    12.000000000000
         C            0.961911003699     0.840410451740     0.417859396949    12.000000000000
         C           -1.059338996301    -0.590161548260     0.036997396949    12.000000000000
         H           -0.251974996301     0.786747451740    -1.356462603051     1.007825032230
         H            1.339557003699     1.860457451740     0.296891396949     1.007825032230
         H            0.849204003699     0.648987451740     1.486298396949     1.007825032230
         H           -2.196352996301     1.703274451740    -0.172408603051     1.007825032230
         H           -0.909443996301     2.695520451740     0.013435396949     1.007825032230
         H            1.747977003699    -1.377976548260     0.207842396949     1.007825032230
         H           -2.657427996301    -1.523127548260    -0.303776603051     1.007825032230

  Basis Set: AUG-CC-PVTZ
    Blend: AUG-CC-PVTZ
  Basis Set: (AUG-CC-PVTZ AUX)
    Blend: AUG-CC-PVTZ-JKFIT
	 Reference Energy          =    -719.5386363534137217 [Eh]
	 Singles Energy            =      -0.0000000000000000 [Eh]
	 Same-Spin Energy          =      -0.3747631067709459 [Eh]
	 Opposite-Spin Energy      =      -1.1594162038547084 [Eh]
	 Correlation Energy        =      -1.5341793106256545 [Eh]
	 Total Energy              =    -721.0728156640393536 [Eh]

	 ================> DF-SCS-MP2 Energies <==================
	-----------------------------------------------------------
	 SCS Same-Spin Scale       =       0.3333333333333333 [-]
	 SCS Opposite-Spin Scale   =       1.2000000000000000 [-]
	 SCS Same-Spin Energy      =      -0.1249210355903153 [Eh]
	 SCS Opposite-Spin Energy  =      -1.3912994446256501 [Eh]
	 SCS Correlation Energy    =      -1.5162204802159653 [Eh]
	 SCS Total Energy          =    -721.0548568336297421 [Eh]
	-----------------------------------------------------------

  Dipole Moment: [D]
     X:    -2.0461      Y:     1.2777      Z:    -1.2296     Total:     2.7076

*** Psi4 exiting successfully. Buy a developer a beer!
