                               Psi4 1.3.2 release

  ==> Input File <==

--------------------------------------------------------------------------
#psi4
#
memory 32 gb

molecule  {
0 1
  S        2.2579180    -0.2726900    -0.2934460
  O       -2.2551230    -0.6936910    -0.5624970
  O       -0.5935940    -1.5242440     0.7320250
  N       -1.2606890     1.7473760     0.2743420
  C       -0.3743770     0.7050360    -0.2599020
  C        0.8424626     0.9249129     0.5006507
  C       -1.0384360    -0.6244090     0.0410490
  H       -0.2310720     0.7525000    -1.3524110
  H        1.3604600     1.8262100     0.3009430
  H        0.8701070     0.6147400     1.4903500
  H       -2.1754500     1.6690270    -0.1683570
  H       -0.8885410     2.6612730     0.0174870
  H        1.7688800    -1.4122240     0.2118940
  H       -2.6365250    -1.5573750    -0.2997250
units angstrom
no_reorient  #important for SAPT in psi4, default
symmetry c1  #important for SAPT in psi4, default
}

set PROPERTIES_ORIGIN ["COM"]
properties('MP2/aug-cc-pvtz', properties = ['dipole'])
--------------------------------------------------------------------------

    Molecular point group: c1
  Charge       = 0
  Multiplicity = 1
  Basis Set: AUG-CC-PVTZ
    Blend: AUG-CC-PVTZ
  Basis Set: (AUG-CC-PVTZ AUX)
    Blend: AUG-CC-PVTZ-JKFIT

    Orbital Energies [Eh]
    ---------------------

    Doubly Occupied:

       1A    -91.940675     2A    -20.631798     3A    -20.568420
       4A    -15.571840     5A    -11.405835     6A    -11.297362
       7A    -11.275502     8A     -8.940783     9A     -6.621953
      10A     -6.621038    11A     -6.620140    12A     -1.476823
      13A     -1.373645    14A     -1.228555    15A     -1.056169
      16A     -0.955227    17A     -0.888268    18A     -0.801156
      19A     -0.729122    20A     -0.723051    21A     -0.679274
      22A     -0.661995    23A     -0.632697    24A     -0.606471
      25A     -0.582677    26A     -0.574168    27A     -0.516973
      28A     -0.494017    29A     -0.469819    30A     -0.430269
      31A     -0.414749    32A     -0.353579

  @DF-RHF Final Energy:  -719.51510745878443

   => Energetics <=

    Nuclear Repulsion Energy =            379.0875621112060117
    One-Electron Energy =               -1742.9172355222121951
    Two-Electron Energy =                 644.3145659522218693
    Total Energy =                       -719.5151074587844278
  Basis Set: (AUG-CC-PVTZ AUX)
    Blend: AUG-CC-PVTZ-RI
    Molecular point group: c1

    Geometry (in Angstrom), charge = 0, multiplicity = 1:

       Center              X                  Y                   Z               Mass
    ------------   -----------------  -----------------  -----------------  -----------------
         S            2.256427800400    -0.247328491367    -0.299680194347    31.972071174400
         O           -2.256613199600    -0.668329491367    -0.568731194347    15.994914619570
         O           -0.595084199600    -1.498882491367     0.725790805653    15.994914619570
         N           -1.262179199600     1.772737508633     0.268107805653    14.003074004430
         C           -0.375867199600     0.730397508633    -0.266136194347    12.000000000000
         C            0.840972400400     0.950274408633     0.494416505653    12.000000000000
         C           -1.039926199600    -0.599047491367     0.034814805653    12.000000000000
         H           -0.232562199600     0.777861508633    -1.358645194347     1.007825032230
         H            1.358969800400     1.851571508633     0.294708805653     1.007825032230
         H            0.868616800400     0.640101508633     1.484115805653     1.007825032230
         H           -2.176940199600     1.694388508633    -0.174591194347     1.007825032230
         H           -0.890031199600     2.686634508633     0.011252805653     1.007825032230
         H            1.767389800400    -1.386862491367     0.205659805653     1.007825032230
         H           -2.638015199600    -1.532013491367    -0.305959194347     1.007825032230

  Basis Set: AUG-CC-PVTZ
    Blend: AUG-CC-PVTZ
  Basis Set: (AUG-CC-PVTZ AUX)
    Blend: AUG-CC-PVTZ-JKFIT
	 Reference Energy          =    -719.5151074587844278 [Eh]
	 Singles Energy            =      -0.0000000000000000 [Eh]
	 Same-Spin Energy          =      -0.3752769262425252 [Eh]
	 Opposite-Spin Energy      =      -1.1611656605062612 [Eh]
	 Correlation Energy        =      -1.5364425867487865 [Eh]
	 Total Energy              =    -721.0515500455331903 [Eh]

	 ================> DF-SCS-MP2 Energies <==================
	-----------------------------------------------------------
	 SCS Same-Spin Scale       =       0.3333333333333333 [-]
	 SCS Opposite-Spin Scale   =       1.2000000000000000 [-]
	 SCS Same-Spin Energy      =      -0.1250923087475084 [Eh]
	 SCS Opposite-Spin Energy  =      -1.3933987926075135 [Eh]
	 SCS Correlation Energy    =      -1.5184911013550220 [Eh]
	 SCS Total Energy          =    -721.0335985601394668 [Eh]
	-----------------------------------------------------------

  Dipole Moment: [D]
     X:    -2.3853      Y:     1.4576      Z:    -1.1287     Total:     3.0146

*** Psi4 exiting successfully. Buy a developer a beer!
