                               Psi4 1.3.2 release

  ==> Input File <==

--------------------------------------------------------------------------
#psi4
#
memory 32 gb

molecule  {
0 1
  S        2.2579180    -0.2726900    -0.2934460
  O       -2.2551230    -0.6936910    -0.5624970
  O       -0.5935940    -1.5242440     0.7320250
  N       -1.2606890     1.7473760     0.2743420
  C       -0.3724966     0.7305907    -0.2669177
  C        0.9828140     0.8061630     0.4219110
  C       -1.0384360    -0.6244090     0.0410490
  H       -0.2310720     0.7525000    -1.3524110
  H        1.3604600     1.8262100     0.3009430
  H        0.8701070     0.6147400     1.4903500
  H       -2.1754500     1.6690270    -0.1683570
  H       -0.8885410     2.6612730     0.0174870
  H        1.7688800    -1.4122240     0.2118940
  H       -2.6365250    -1.5573750    -0.2997250
units angstrom
no_reorient  #important for SAPT in psi4, default
symmetry c1  #important for SAPT in psi4, default
}

set PROPERTIES_ORIGIN ["COM"]
properties('MP2/aug-cc-pvtz', properties = ['dipole'])
--------------------------------------------------------------------------

    Molecular point group: c1
  Charge       = 0
  Multiplicity = 1
  Basis Set: AUG-CC-PVTZ
    Blend: AUG-CC-PVTZ
  Basis Set: (AUG-CC-PVTZ AUX)
    Blend: AUG-CC-PVTZ-JKFIT

    Orbital Energies [Eh]
    ---------------------

    Doubly Occupied:

       1A    -91.950317     2A    -20.627809     3A    -20.565044
       4A    -15.570340     5A    -11.400999     6A    -11.294982
       7A    -11.267986     8A     -8.951718     9A     -6.633085
      10A     -6.632144    11A     -6.631156    12A     -1.472483
      13A     -1.369917    14A     -1.220589    15A     -1.063028
      16A     -0.960543    17A     -0.878304    18A     -0.791405
      19A     -0.720181    20A     -0.714892    21A     -0.673195
      22A     -0.658333    23A     -0.623357    24A     -0.604159
      25A     -0.565003    26A     -0.557114    27A     -0.524799
      28A     -0.495207    29A     -0.473848    30A     -0.449044
      31A     -0.423526    32A     -0.359239

  @DF-RHF Final Energy:  -719.53813750198867

   => Energetics <=

    Nuclear Repulsion Energy =            379.9332786877213266
    One-Electron Energy =               -1744.6953410384305698
    Two-Electron Energy =                 645.2239248487204577
    Total Energy =                       -719.5381375019886718
  Basis Set: (AUG-CC-PVTZ AUX)
    Blend: AUG-CC-PVTZ-RI
    Molecular point group: c1

    Geometry (in Angstrom), charge = 0, multiplicity = 1:

       Center              X                  Y                   Z               Mass
    ------------   -----------------  -----------------  -----------------  -----------------
         S            2.242324469291    -0.238087500509    -0.291176914485    31.972071174400
         O           -2.270716530709    -0.659088500509    -0.560227914485    15.994914619570
         O           -0.609187530709    -1.489641500509     0.734294085515    15.994914619570
         N           -1.276282530709     1.781978499491     0.276611085515    14.003074004430
         C           -0.388090130709     0.765193199491    -0.264648614485    12.000000000000
         C            0.967220469291     0.840765499491     0.424180085515    12.000000000000
         C           -1.054029530709    -0.589806500509     0.043318085515    12.000000000000
         H           -0.246665530709     0.787102499491    -1.350141914485     1.007825032230
         H            1.344866469291     1.860812499491     0.303212085515     1.007825032230
         H            0.854513469291     0.649342499491     1.492619085515     1.007825032230
         H           -2.191043530709     1.703629499491    -0.166087914485     1.007825032230
         H           -0.904134530709     2.695875499491     0.019756085515     1.007825032230
         H            1.753286469291    -1.377621500509     0.214163085515     1.007825032230
         H           -2.652118530709    -1.522772500509    -0.297455914485     1.007825032230

  Basis Set: AUG-CC-PVTZ
    Blend: AUG-CC-PVTZ
  Basis Set: (AUG-CC-PVTZ AUX)
    Blend: AUG-CC-PVTZ-JKFIT
	 Reference Energy          =    -719.5381375019886718 [Eh]
	 Singles Energy            =      -0.0000000000000000 [Eh]
	 Same-Spin Energy          =      -0.3747831271900344 [Eh]
	 Opposite-Spin Energy      =      -1.1593221296458354 [Eh]
	 Correlation Energy        =      -1.5341052568358697 [Eh]
	 Total Energy              =    -721.0722427588245864 [Eh]

	 ================> DF-SCS-MP2 Energies <==================
	-----------------------------------------------------------
	 SCS Same-Spin Scale       =       0.3333333333333333 [-]
	 SCS Opposite-Spin Scale   =       1.2000000000000000 [-]
	 SCS Same-Spin Energy      =      -0.1249277090633448 [Eh]
	 SCS Opposite-Spin Energy  =      -1.3911865555750025 [Eh]
	 SCS Correlation Energy    =      -1.5161142646383472 [Eh]
	 SCS Total Energy          =    -721.0542517666269760 [Eh]
	-----------------------------------------------------------

  Dipole Moment: [D]
     X:    -2.0425      Y:     1.3045      Z:    -1.2005     Total:     2.7046

*** Psi4 exiting successfully. Buy a developer a beer!
