                               Psi4 1.3.2 release

  ==> Input File <==

--------------------------------------------------------------------------
#psi4
#
memory 32 gb

molecule  {
0 1
  S        2.2579180    -0.2726900    -0.2934460
  O       -2.2551230    -0.6936910    -0.5624970
  O       -0.5935940    -1.5242440     0.7320250
  N       -1.2606890     1.7473760     0.2743420
  C       -0.3702034     0.7561685    -0.2737236
  C        0.9828140     0.8061630     0.4219110
  C       -1.0384360    -0.6244090     0.0410490
  H       -0.2310720     0.7525000    -1.3524110
  H        1.3604600     1.8262100     0.3009430
  H        0.8701070     0.6147400     1.4903500
  H       -2.1754500     1.6690270    -0.1683570
  H       -0.8885410     2.6612730     0.0174870
  H        1.7688800    -1.4122240     0.2118940
  H       -2.6365250    -1.5573750    -0.2997250
units angstrom
no_reorient  #important for SAPT in psi4, default
symmetry c1  #important for SAPT in psi4, default
}

set PROPERTIES_ORIGIN ["COM"]
properties('MP2/aug-cc-pvtz', properties = ['dipole'])
--------------------------------------------------------------------------

    Molecular point group: c1
  Charge       = 0
  Multiplicity = 1
  Basis Set: AUG-CC-PVTZ
    Blend: AUG-CC-PVTZ
  Basis Set: (AUG-CC-PVTZ AUX)
    Blend: AUG-CC-PVTZ-JKFIT

    Orbital Energies [Eh]
    ---------------------

    Doubly Occupied:

       1A    -91.950529     2A    -20.627179     3A    -20.564386
       4A    -15.570760     5A    -11.400239     6A    -11.295378
       7A    -11.267606     8A     -8.951891     9A     -6.633259
      10A     -6.632316    11A     -6.631331    12A     -1.471314
      13A     -1.368944    14A     -1.224753    15A     -1.062594
      16A     -0.956654    17A     -0.877239    18A     -0.791784
      19A     -0.720021    20A     -0.713416    21A     -0.675046
      22A     -0.659071    23A     -0.622982    24A     -0.605220
      25A     -0.565089    26A     -0.554890    27A     -0.524722
      28A     -0.495119    29A     -0.473054    30A     -0.447948
      31A     -0.423594    32A     -0.359379

  @DF-RHF Final Energy:  -719.53614962185850

   => Energetics <=

    Nuclear Repulsion Energy =            379.6954299311867089
    One-Electron Energy =               -1744.2277500985712777
    Two-Electron Energy =                 644.9961705455260699
    Total Energy =                       -719.5361496218584989
  Basis Set: (AUG-CC-PVTZ AUX)
    Blend: AUG-CC-PVTZ-RI
    Molecular point group: c1

    Geometry (in Angstrom), charge = 0, multiplicity = 1:

       Center              X                  Y                   Z               Mass
    ------------   -----------------  -----------------  -----------------  -----------------
         S            2.242097081612    -0.240623727868    -0.290502059346    31.972071174400
         O           -2.270943918388    -0.661624727868    -0.559553059346    15.994914619570
         O           -0.609414918388    -1.492177727868     0.734968940654    15.994914619570
         N           -1.276509918388     1.779442272132     0.277285940654    14.003074004430
         C           -0.386024318388     0.788234772132    -0.270779659346    12.000000000000
         C            0.966993081612     0.838229272132     0.424854940654    12.000000000000
         C           -1.054256918388    -0.592342727868     0.043992940654    12.000000000000
         H           -0.246892918388     0.784566272132    -1.349467059346     1.007825032230
         H            1.344639081612     1.858276272132     0.303886940654     1.007825032230
         H            0.854286081612     0.646806272132     1.493293940654     1.007825032230
         H           -2.191270918388     1.701093272132    -0.165413059346     1.007825032230
         H           -0.904361918388     2.693339272132     0.020430940654     1.007825032230
         H            1.753059081612    -1.380157727868     0.214837940654     1.007825032230
         H           -2.652345918388    -1.525308727868    -0.296781059346     1.007825032230

  Basis Set: AUG-CC-PVTZ
    Blend: AUG-CC-PVTZ
  Basis Set: (AUG-CC-PVTZ AUX)
    Blend: AUG-CC-PVTZ-JKFIT
	 Reference Energy          =    -719.5361496218584989 [Eh]
	 Singles Energy            =      -0.0000000000000000 [Eh]
	 Same-Spin Energy          =      -0.3748317957370905 [Eh]
	 Opposite-Spin Energy      =      -1.1593532869226659 [Eh]
	 Correlation Energy        =      -1.5341850826597563 [Eh]
	 Total Energy              =    -721.0703347045182454 [Eh]

	 ================> DF-SCS-MP2 Energies <==================
	-----------------------------------------------------------
	 SCS Same-Spin Scale       =       0.3333333333333333 [-]
	 SCS Opposite-Spin Scale   =       1.2000000000000000 [-]
	 SCS Same-Spin Energy      =      -0.1249439319123635 [Eh]
	 SCS Opposite-Spin Energy  =      -1.3912239443071990 [Eh]
	 SCS Correlation Energy    =      -1.5161678762195625 [Eh]
	 SCS Total Energy          =    -721.0523174980780823 [Eh]
	-----------------------------------------------------------

  Dipole Moment: [D]
     X:    -2.0585      Y:     1.3291      Z:    -1.1954     Total:     2.7263

*** Psi4 exiting successfully. Buy a developer a beer!
