                               Psi4 1.3.2 release

  ==> Input File <==

--------------------------------------------------------------------------
#psi4
#
memory 32 gb

molecule  {
0 1
  S        2.2579180    -0.2726900    -0.2934460
  O       -2.2551230    -0.6936910    -0.5624970
  O       -0.5935940    -1.5242440     0.7320250
  N       -1.2606890     1.7473760     0.2743420
  C       -0.3743770     0.7050360    -0.2599020
  C        1.0266305     0.8131728     0.3253736
  C       -1.0384360    -0.6244090     0.0410490
  H       -0.2310720     0.7525000    -1.3524110
  H        1.3604600     1.8262100     0.3009430
  H        0.8701070     0.6147400     1.4903500
  H       -2.1754500     1.6690270    -0.1683570
  H       -0.8885410     2.6612730     0.0174870
  H        1.7688800    -1.4122240     0.2118940
  H       -2.6365250    -1.5573750    -0.2997250
units angstrom
no_reorient  #important for SAPT in psi4, default
symmetry c1  #important for SAPT in psi4, default
}

set PROPERTIES_ORIGIN ["COM"]
properties('MP2/aug-cc-pvtz', properties = ['dipole'])
--------------------------------------------------------------------------

    Molecular point group: c1
  Charge       = 0
  Multiplicity = 1
  Basis Set: AUG-CC-PVTZ
    Blend: AUG-CC-PVTZ
  Basis Set: (AUG-CC-PVTZ AUX)
    Blend: AUG-CC-PVTZ-JKFIT

    Orbital Energies [Eh]
    ---------------------

    Doubly Occupied:

       1A    -91.951305     2A    -20.628488     3A    -20.565497
       4A    -15.570763     5A    -11.401890     6A    -11.294682
       7A    -11.270840     8A     -8.953672     9A     -6.635146
      10A     -6.634211    11A     -6.633151    12A     -1.473550
      13A     -1.370633    14A     -1.216060    15A     -1.071729
      16A     -0.968895    17A     -0.878742    18A     -0.788999
      19A     -0.719640    20A     -0.712706    21A     -0.672345
      22A     -0.658498    23A     -0.619492    24A     -0.606122
      25A     -0.571907    26A     -0.549091    27A     -0.530585
      28A     -0.496872    29A     -0.475077    30A     -0.447836
      31A     -0.420897    32A     -0.356982

  @DF-RHF Final Energy:  -719.52774680774598

   => Energetics <=

    Nuclear Repulsion Energy =            380.6587527784334384
    One-Electron Energy =               -1746.0803887886816028
    Two-Electron Energy =                 645.8938892025022369
    Total Energy =                       -719.5277468077459844
  Basis Set: (AUG-CC-PVTZ AUX)
    Blend: AUG-CC-PVTZ-RI
    Molecular point group: c1

    Geometry (in Angstrom), charge = 0, multiplicity = 1:

       Center              X                  Y                   Z               Mass
    ------------   -----------------  -----------------  -----------------  -----------------
         S            2.238166195939    -0.236248637013    -0.282300178224    31.972071174400
         O           -2.274874804061    -0.657249637013    -0.551351178224    15.994914619570
         O           -0.613345804061    -1.487802637013     0.743170821776    15.994914619570
         N           -1.280440804061     1.783817362987     0.285487821776    14.003074004430
         C           -0.394128804061     0.741477362987    -0.248756178224    12.000000000000
         C            1.006878695939     0.849614162987     0.336519421776    12.000000000000
         C           -1.058187804061    -0.587967637013     0.052194821776    12.000000000000
         H           -0.250823804061     0.788941362987    -1.341265178224     1.007825032230
         H            1.340708195939     1.862651362987     0.312088821776     1.007825032230
         H            0.850355195939     0.651181362987     1.501495821776     1.007825032230
         H           -2.195201804061     1.705468362987    -0.157211178224     1.007825032230
         H           -0.908292804061     2.697714362987     0.028632821776     1.007825032230
         H            1.749128195939    -1.375782637013     0.223039821776     1.007825032230
         H           -2.656276804061    -1.520933637013    -0.288579178224     1.007825032230

  Basis Set: AUG-CC-PVTZ
    Blend: AUG-CC-PVTZ
  Basis Set: (AUG-CC-PVTZ AUX)
    Blend: AUG-CC-PVTZ-JKFIT
	 Reference Energy          =    -719.5277468077459844 [Eh]
	 Singles Energy            =      -0.0000000000000000 [Eh]
	 Same-Spin Energy          =      -0.3753895820307731 [Eh]
	 Opposite-Spin Energy      =      -1.1600749767258058 [Eh]
	 Correlation Energy        =      -1.5354645587565789 [Eh]
	 Total Energy              =    -721.0632113665025145 [Eh]

	 ================> DF-SCS-MP2 Energies <==================
	-----------------------------------------------------------
	 SCS Same-Spin Scale       =       0.3333333333333333 [-]
	 SCS Opposite-Spin Scale   =       1.2000000000000000 [-]
	 SCS Same-Spin Energy      =      -0.1251298606769243 [Eh]
	 SCS Opposite-Spin Energy  =      -1.3920899720709670 [Eh]
	 SCS Correlation Energy    =      -1.5172198327478914 [Eh]
	 SCS Total Energy          =    -721.0449666404938398 [Eh]
	-----------------------------------------------------------

  Dipole Moment: [D]
     X:    -1.9628      Y:     1.2570      Z:    -1.2241     Total:     2.6327

*** Psi4 exiting successfully. Buy a developer a beer!
