                               Psi4 1.4a3.dev225

  ==> Input File <==

--------------------------------------------------------------------------
#psi4
#
memory 32 gb

molecule  {
0 1
  S        2.2579050    -0.2727850    -0.2934720
  O       -2.2550500    -0.6937950    -0.5626610
  O       -0.5937490    -1.5240650     0.7322790
  N       -1.2606540     1.7474040     0.2743750
  C       -0.3743580     0.7050630    -0.2599560
  C        1.0179465     0.7765036     0.4022043
  C       -1.0384730    -0.6243520     0.0410630
  H       -0.2310980     0.7525420    -1.3524390
  H        1.3604840     1.8262480     0.3009370
  H        0.8701350     0.6147610     1.4903210
  H       -2.1753310     1.6691650    -0.1685200
  H       -0.8883350     2.6612490     0.0175910
  H        1.7689400    -1.4123290     0.2119310
  H       -2.6364810    -1.5574560    -0.2998170
units angstrom
no_reorient  #important for SAPT in psi4, default
symmetry c1  #important for SAPT in psi4, default
}

set PROPERTIES_ORIGIN ["COM"]
properties('MP2/aug-cc-pvtz', properties = ['dipole'])
--------------------------------------------------------------------------

    Molecular point group: c1
  Charge       = 0
  Multiplicity = 1
  Basis Set: AUG-CC-PVTZ
    Blend: AUG-CC-PVTZ
  Basis Set: (AUG-CC-PVTZ AUX)
    Blend: AUG-CC-PVTZ-JKFIT

    Orbital Energies [Eh]
    ---------------------

    Doubly Occupied:

       1A    -91.951117     2A    -20.627660     3A    -20.565015
       4A    -15.570194     5A    -11.400603     6A    -11.294777
       7A    -11.268997     8A     -8.953286     9A     -6.634723
      10A     -6.633755    11A     -6.632716    12A     -1.472933
      13A     -1.370219    14A     -1.214688    15A     -1.068314
      16A     -0.967293    17A     -0.875854    18A     -0.788641
      19A     -0.719375    20A     -0.714163    21A     -0.671137
      22A     -0.656826    23A     -0.622087    24A     -0.601995
      25A     -0.568013    26A     -0.550992    27A     -0.527257
      28A     -0.496239    29A     -0.476887    30A     -0.451510
      31A     -0.421892    32A     -0.358823

  @DF-RHF Final Energy:  -719.53617477051603

   => Energetics <=

    Nuclear Repulsion Energy =            380.4923791418848964
    One-Electron Energy =               -1745.8011490959070215
    Two-Electron Energy =                 645.7725951835061551
    Total Energy =                       -719.5361747705160269
  Basis Set: (AUG-CC-PVTZ AUX)
    Blend: AUG-CC-PVTZ-RI
    Molecular point group: c1

    Geometry (in Angstrom), charge = 0, multiplicity = 1:

       Center              X                  Y                   Z               Mass
    ------------   -----------------  -----------------  -----------------  -----------------
         S            2.239022496630    -0.232704240828    -0.289947912590    31.972071174400
         O           -2.273932503370    -0.653714240828    -0.559136912590    15.994914619570
         O           -0.612631503370    -1.483984240828     0.735803087410    15.994914619570
         N           -1.279536503370     1.787484759172     0.277899087410    14.003074004430
         C           -0.393240503370     0.745143759172    -0.256431912590    12.000000000000
         C            0.999063996630     0.816584359172     0.405728387410    12.000000000000
         C           -1.057355503370    -0.584271240828     0.044587087410    12.000000000000
         H           -0.249980503370     0.792622759172    -1.348914912590     1.007825032230
         H            1.341601496630     1.866328759172     0.304461087410     1.007825032230
         H            0.851252496630     0.654841759172     1.493845087410     1.007825032230
         H           -2.194213503370     1.709245759172    -0.164995912590     1.007825032230
         H           -0.907217503370     2.701329759172     0.021115087410     1.007825032230
         H            1.750057496630    -1.372248240828     0.215455087410     1.007825032230
         H           -2.655363503370    -1.517375240828    -0.296292912590     1.007825032230

  Basis Set: AUG-CC-PVTZ
    Blend: AUG-CC-PVTZ
  Basis Set: (AUG-CC-PVTZ AUX)
    Blend: AUG-CC-PVTZ-JKFIT
	 Reference Energy          =    -719.5361747705160269 [Eh]
	 Singles Energy            =      -0.0000000000000000 [Eh]
	 Same-Spin Energy          =      -0.3751085504698966 [Eh]
	 Opposite-Spin Energy      =      -1.1596405607454230 [Eh]
	 Correlation Energy        =      -1.5347491112153195 [Eh]
	 Total Energy              =    -721.0709238817313462 [Eh]

	 ================> DF-SCS-MP2 Energies <==================
	-----------------------------------------------------------
	 SCS Same-Spin Scale       =       0.3333333333333333 [-]
	 SCS Opposite-Spin Scale   =       1.2000000000000000 [-]
	 SCS Same-Spin Energy      =      -0.1250361834899655 [Eh]
	 SCS Opposite-Spin Energy  =      -1.3915686728945076 [Eh]
	 SCS Correlation Energy    =      -1.5166048563844732 [Eh]
	 SCS Total Energy          =    -721.0527796269004739 [Eh]
	-----------------------------------------------------------

  Dipole Moment: [D]
     X:    -1.9530      Y:     1.2496      Z:    -1.2225     Total:     2.6211

*** Psi4 exiting successfully. Buy a developer a beer!
