                               Psi4 1.3.2 release

  ==> Input File <==

--------------------------------------------------------------------------
#psi4
#
memory 32 gb

molecule  {
0 1
  S        2.2579180    -0.2726900    -0.2934460
  O       -2.2551230    -0.6936910    -0.5624970
  O       -0.5935940    -1.5242440     0.7320250
  N       -1.1932681     1.8169023     0.2407065
  C       -0.3743770     0.7050360    -0.2599020
  C        0.9828140     0.8061630     0.4219110
  C       -1.0384360    -0.6244090     0.0410490
  H       -0.2310720     0.7525000    -1.3524110
  H        1.3604600     1.8262100     0.3009430
  H        0.8701070     0.6147400     1.4903500
  H       -2.1754500     1.6690270    -0.1683570
  H       -0.8885410     2.6612730     0.0174870
  H        1.7688800    -1.4122240     0.2118940
  H       -2.6365250    -1.5573750    -0.2997250
units angstrom
no_reorient  #important for SAPT in psi4, default
symmetry c1  #important for SAPT in psi4, default
}

set PROPERTIES_ORIGIN ["COM"]
properties('MP2/aug-cc-pvtz', properties = ['dipole'])
--------------------------------------------------------------------------

    Molecular point group: c1
  Charge       = 0
  Multiplicity = 1
  Basis Set: AUG-CC-PVTZ
    Blend: AUG-CC-PVTZ
  Basis Set: (AUG-CC-PVTZ AUX)
    Blend: AUG-CC-PVTZ-JKFIT

    Orbital Energies [Eh]
    ---------------------

    Doubly Occupied:

       1A    -91.948561     2A    -20.630585     3A    -20.568592
       4A    -15.562808     5A    -11.404938     6A    -11.295563
       7A    -11.267137     8A     -8.950066     9A     -6.631435
      10A     -6.630497    11A     -6.629508    12A     -1.475731
      13A     -1.373250    14A     -1.219771    15A     -1.064505
      16A     -0.969467    17A     -0.878547    18A     -0.793443
      19A     -0.723335    20A     -0.717200    21A     -0.686701
      22A     -0.651991    23A     -0.626190    24A     -0.609346
      25A     -0.567152    26A     -0.555886    27A     -0.522853
      28A     -0.495732    29A     -0.478484    30A     -0.448492
      31A     -0.417348    32A     -0.357574

  @DF-RHF Final Energy:  -719.52739007035859

   => Energetics <=

    Nuclear Repulsion Energy =            379.9391091409693786
    One-Electron Energy =               -1744.6276238147615913
    Two-Electron Energy =                 645.1611246034336773
    Total Energy =                       -719.5273900703585923
  Basis Set: (AUG-CC-PVTZ AUX)
    Blend: AUG-CC-PVTZ-RI
    Molecular point group: c1

    Geometry (in Angstrom), charge = 0, multiplicity = 1:

       Center              X                  Y                   Z               Mass
    ------------   -----------------  -----------------  -----------------  -----------------
         S            2.234709720005    -0.243598382214    -0.287980642829    31.972071174400
         O           -2.278331279995    -0.664599382214    -0.557031642829    15.994914619570
         O           -0.616802279995    -1.495152382214     0.737490357171    15.994914619570
         N           -1.216476379995     1.845993917786     0.246171857171    14.003074004430
         C           -0.397585279995     0.734127617786    -0.254436642829    12.000000000000
         C            0.959605720005     0.835254617786     0.427376357171    12.000000000000
         C           -1.061644279995    -0.595317382214     0.046514357171    12.000000000000
         H           -0.254280279995     0.781591617786    -1.346945642829     1.007825032230
         H            1.337251720005     1.855301617786     0.306408357171     1.007825032230
         H            0.846898720005     0.643831617786     1.495815357171     1.007825032230
         H           -2.198658279995     1.698118617786    -0.162891642829     1.007825032230
         H           -0.911749279995     2.690364617786     0.022952357171     1.007825032230
         H            1.745671720005    -1.383132382214     0.217359357171     1.007825032230
         H           -2.659733279995    -1.528283382214    -0.294259642829     1.007825032230

  Basis Set: AUG-CC-PVTZ
    Blend: AUG-CC-PVTZ
  Basis Set: (AUG-CC-PVTZ AUX)
    Blend: AUG-CC-PVTZ-JKFIT
	 Reference Energy          =    -719.5273900703585923 [Eh]
	 Singles Energy            =      -0.0000000000000000 [Eh]
	 Same-Spin Energy          =      -0.3746221818347830 [Eh]
	 Opposite-Spin Energy      =      -1.1590224829140858 [Eh]
	 Correlation Energy        =      -1.5336446647488688 [Eh]
	 Total Energy              =    -721.0610347351074552 [Eh]

	 ================> DF-SCS-MP2 Energies <==================
	-----------------------------------------------------------
	 SCS Same-Spin Scale       =       0.3333333333333333 [-]
	 SCS Opposite-Spin Scale   =       1.2000000000000000 [-]
	 SCS Same-Spin Energy      =      -0.1248740606115943 [Eh]
	 SCS Opposite-Spin Energy  =      -1.3908269794969030 [Eh]
	 SCS Correlation Energy    =      -1.5157010401084974 [Eh]
	 SCS Total Energy          =    -721.0430911104671168 [Eh]
	-----------------------------------------------------------

  Dipole Moment: [D]
     X:    -2.1668      Y:     1.1650      Z:    -1.1277     Total:     2.7063

*** Psi4 exiting successfully. Buy a developer a beer!
