                               Psi4 1.3.2 release

  ==> Input File <==

--------------------------------------------------------------------------
#psi4
#
memory 32 gb

molecule  {
0 1
  S        2.2579180    -0.2726900    -0.2934460
  O       -2.2551230    -0.6936910    -0.5624970
  O       -0.5935940    -1.5242440     0.7320250
  N       -1.2606890     1.7473760     0.2743420
  C       -0.3769664     0.5526263    -0.2135254
  C        0.9828140     0.8061630     0.4219110
  C       -1.0384360    -0.6244090     0.0410490
  H       -0.2310720     0.7525000    -1.3524110
  H        1.3604600     1.8262100     0.3009430
  H        0.8701070     0.6147400     1.4903500
  H       -2.1754500     1.6690270    -0.1683570
  H       -0.8885410     2.6612730     0.0174870
  H        1.7688800    -1.4122240     0.2118940
  H       -2.6365250    -1.5573750    -0.2997250
units angstrom
no_reorient  #important for SAPT in psi4, default
symmetry c1  #important for SAPT in psi4, default
}

set PROPERTIES_ORIGIN ["COM"]
properties('MP2/aug-cc-pvtz', properties = ['dipole'])
--------------------------------------------------------------------------

    Molecular point group: c1
  Charge       = 0
  Multiplicity = 1
  Basis Set: AUG-CC-PVTZ
    Blend: AUG-CC-PVTZ
  Basis Set: (AUG-CC-PVTZ AUX)
    Blend: AUG-CC-PVTZ-JKFIT

    Orbital Energies [Eh]
    ---------------------

    Doubly Occupied:

       1A    -91.949412     2A    -20.630266     3A    -20.566968
       4A    -15.569760     5A    -11.399489     6A    -11.296633
       7A    -11.273262     8A     -8.951088     9A     -6.632443
      10A     -6.631524    11A     -6.630511    12A     -1.479240
      13A     -1.375049    14A     -1.197143    15A     -1.068567
      16A     -0.994385    17A     -0.884071    18A     -0.790461
      19A     -0.725577    20A     -0.718833    21A     -0.671359
      22A     -0.648078    23A     -0.624671    24A     -0.596878
      25A     -0.589237    26A     -0.545881    27A     -0.522882
      28A     -0.494497    29A     -0.476023    30A     -0.452361
      31A     -0.415011    32A     -0.358228

  @DF-RHF Final Energy:  -719.51004684062798

   => Energetics <=

    Nuclear Repulsion Energy =            381.6962383053029839
    One-Electron Energy =               -1748.0929958643280315
    Two-Electron Energy =                 646.8867107183970120
    Total Energy =                       -719.5100468406279788
  Basis Set: (AUG-CC-PVTZ AUX)
    Blend: AUG-CC-PVTZ-RI
    Molecular point group: c1

    Geometry (in Angstrom), charge = 0, multiplicity = 1:

       Center              X                  Y                   Z               Mass
    ------------   -----------------  -----------------  -----------------  -----------------
         S            2.242767682900    -0.220441018788    -0.296471154491    31.972071174400
         O           -2.270273317100    -0.641442018788    -0.565522154491    15.994914619570
         O           -0.608744317100    -1.471995018788     0.728999845509    15.994914619570
         N           -1.275839317100     1.799624981212     0.271316845509    14.003074004430
         C           -0.392116717100     0.604875281212    -0.216550554491    12.000000000000
         C            0.967663682900     0.858411981212     0.418885845509    12.000000000000
         C           -1.053586317100    -0.572160018788     0.038023845509    12.000000000000
         H           -0.246222317100     0.804748981212    -1.355436154491     1.007825032230
         H            1.345309682900     1.878458981212     0.297917845509     1.007825032230
         H            0.854956682900     0.666988981212     1.487324845509     1.007825032230
         H           -2.190600317100     1.721275981212    -0.171382154491     1.007825032230
         H           -0.903691317100     2.713521981212     0.014461845509     1.007825032230
         H            1.753729682900    -1.359975018788     0.208868845509     1.007825032230
         H           -2.651675317100    -1.505126018788    -0.302750154491     1.007825032230

  Basis Set: AUG-CC-PVTZ
    Blend: AUG-CC-PVTZ
  Basis Set: (AUG-CC-PVTZ AUX)
    Blend: AUG-CC-PVTZ-JKFIT
	 Reference Energy          =    -719.5100468406279788 [Eh]
	 Singles Energy            =      -0.0000000000000000 [Eh]
	 Same-Spin Energy          =      -0.3762735743866236 [Eh]
	 Opposite-Spin Energy      =      -1.1624818716304222 [Eh]
	 Correlation Energy        =      -1.5387554460170456 [Eh]
	 Total Energy              =    -721.0488022866450137 [Eh]

	 ================> DF-SCS-MP2 Energies <==================
	-----------------------------------------------------------
	 SCS Same-Spin Scale       =       0.3333333333333333 [-]
	 SCS Opposite-Spin Scale   =       1.2000000000000000 [-]
	 SCS Same-Spin Energy      =      -0.1254245247955412 [Eh]
	 SCS Opposite-Spin Energy  =      -1.3949782459565065 [Eh]
	 SCS Correlation Energy    =      -1.5204027707520478 [Eh]
	 SCS Total Energy          =    -721.0304496113800496 [Eh]
	-----------------------------------------------------------

  Dipole Moment: [D]
     X:    -1.8908      Y:     1.2192      Z:    -1.2367     Total:     2.5673

*** Psi4 exiting successfully. Buy a developer a beer!
