                               Psi4 1.3.2 release

  ==> Input File <==

--------------------------------------------------------------------------
#psi4
#
memory 32 gb

molecule  {
0 1
  S        2.2579180    -0.2726900    -0.2934460
  O       -2.2551230    -0.6936910    -0.5624970
  O       -0.6287971    -1.5467535     0.7240658
  N       -1.2606890     1.7473760     0.2743420
  C       -0.3743770     0.7050360    -0.2599020
  C        0.9828140     0.8061630     0.4219110
  C       -1.0384360    -0.6244090     0.0410490
  H       -0.2310720     0.7525000    -1.3524110
  H        1.3604600     1.8262100     0.3009430
  H        0.8701070     0.6147400     1.4903500
  H       -2.1754500     1.6690270    -0.1683570
  H       -0.8885410     2.6612730     0.0174870
  H        1.7688800    -1.4122240     0.2118940
  H       -2.6365250    -1.5573750    -0.2997250
units angstrom
no_reorient  #important for SAPT in psi4, default
symmetry c1  #important for SAPT in psi4, default
}

set PROPERTIES_ORIGIN ["COM"]
properties('MP2/aug-cc-pvtz', properties = ['dipole'])
--------------------------------------------------------------------------

    Molecular point group: c1
  Charge       = 0
  Multiplicity = 1
  Basis Set: AUG-CC-PVTZ
    Blend: AUG-CC-PVTZ
  Basis Set: (AUG-CC-PVTZ AUX)
    Blend: AUG-CC-PVTZ-JKFIT

    Orbital Energies [Eh]
    ---------------------

    Doubly Occupied:

       1A    -91.951330     2A    -20.624764     3A    -20.564760
       4A    -15.570889     5A    -11.401081     6A    -11.296828
       7A    -11.269751     8A     -8.952762     9A     -6.634124
      10A     -6.633185    11A     -6.632190    12A     -1.473386
      13A     -1.367315    14A     -1.217739    15A     -1.064932
      16A     -0.965623    17A     -0.879807    18A     -0.790597
      19A     -0.719285    20A     -0.715915    21A     -0.671929
      22A     -0.657584    23A     -0.622870    24A     -0.602502
      25A     -0.568655    26A     -0.558198    27A     -0.525176
      28A     -0.493641    29A     -0.474657    30A     -0.451048
      31A     -0.424215    32A     -0.360219

  @DF-RHF Final Energy:  -719.53874050831348

   => Energetics <=

    Nuclear Repulsion Energy =            379.8106079323042650
    One-Electron Energy =               -1744.4247834612301631
    Two-Electron Energy =                 645.0754350206124172
    Total Energy =                       -719.5387405083134809
  Basis Set: (AUG-CC-PVTZ AUX)
    Blend: AUG-CC-PVTZ-RI
    Molecular point group: c1

    Geometry (in Angstrom), charge = 0, multiplicity = 1:

       Center              X                  Y                   Z               Mass
    ------------   -----------------  -----------------  -----------------  -----------------
         S            2.247163641249    -0.232578532489    -0.290820622850    31.972071174400
         O           -2.265877358751    -0.653579532489    -0.559871622850    15.994914619570
         O           -0.639551458751    -1.506642032489     0.726691177150    15.994914619570
         N           -1.271443358751     1.787487467511     0.276967377150    14.003074004430
         C           -0.385131358751     0.745147467511    -0.257276622850    12.000000000000
         C            0.972059641249     0.846274467511     0.424536377150    12.000000000000
         C           -1.049190358751    -0.584297532489     0.043674377150    12.000000000000
         H           -0.241826358751     0.792611467511    -1.349785622850     1.007825032230
         H            1.349705641249     1.866321467511     0.303568377150     1.007825032230
         H            0.859352641249     0.654851467511     1.492975377150     1.007825032230
         H           -2.186204358751     1.709138467511    -0.165731622850     1.007825032230
         H           -0.899295358751     2.701384467511     0.020112377150     1.007825032230
         H            1.758125641249    -1.372112532489     0.214519377150     1.007825032230
         H           -2.647279358751    -1.517263532489    -0.297099622850     1.007825032230

  Basis Set: AUG-CC-PVTZ
    Blend: AUG-CC-PVTZ
  Basis Set: (AUG-CC-PVTZ AUX)
    Blend: AUG-CC-PVTZ-JKFIT
	 Reference Energy          =    -719.5387405083134809 [Eh]
	 Singles Energy            =      -0.0000000000000000 [Eh]
	 Same-Spin Energy          =      -0.3746562106957080 [Eh]
	 Opposite-Spin Energy      =      -1.1591760961595967 [Eh]
	 Correlation Energy        =      -1.5338323068553046 [Eh]
	 Total Energy              =    -721.0725728151687690 [Eh]

	 ================> DF-SCS-MP2 Energies <==================
	-----------------------------------------------------------
	 SCS Same-Spin Scale       =       0.3333333333333333 [-]
	 SCS Opposite-Spin Scale   =       1.2000000000000000 [-]
	 SCS Same-Spin Energy      =      -0.1248854035652360 [Eh]
	 SCS Opposite-Spin Energy  =      -1.3910113153915160 [Eh]
	 SCS Correlation Energy    =      -1.5158967189567520 [Eh]
	 SCS Total Energy          =    -721.0546372272701774 [Eh]
	-----------------------------------------------------------

  Dipole Moment: [D]
     X:    -1.9126      Y:     1.3669      Z:    -1.1975     Total:     2.6383

*** Psi4 exiting successfully. Buy a developer a beer!
