                               Psi4 1.3.2 release

  ==> Input File <==

--------------------------------------------------------------------------
#psi4
#
memory 32 gb

molecule  {
0 1
  S        2.2579180    -0.2726900    -0.2934460
  O       -2.2551230    -0.6936910    -0.5624970
  O       -0.5935940    -1.5242440     0.7320250
  N       -1.2606890     1.7473760     0.2743420
  C       -0.4347187     0.7760003    -0.2235297
  C        0.9828140     0.8061630     0.4219110
  C       -1.0384360    -0.6244090     0.0410490
  H       -0.2310720     0.7525000    -1.3524110
  H        1.3604600     1.8262100     0.3009430
  H        0.8701070     0.6147400     1.4903500
  H       -2.1754500     1.6690270    -0.1683570
  H       -0.8885410     2.6612730     0.0174870
  H        1.7688800    -1.4122240     0.2118940
  H       -2.6365250    -1.5573750    -0.2997250
units angstrom
no_reorient  #important for SAPT in psi4, default
symmetry c1  #important for SAPT in psi4, default
}

set PROPERTIES_ORIGIN ["COM"]
properties('MP2/aug-cc-pvtz', properties = ['dipole'])
--------------------------------------------------------------------------

    Molecular point group: c1
  Charge       = 0
  Multiplicity = 1
  Basis Set: AUG-CC-PVTZ
    Blend: AUG-CC-PVTZ
  Basis Set: (AUG-CC-PVTZ AUX)
    Blend: AUG-CC-PVTZ-JKFIT

    Orbital Energies [Eh]
    ---------------------

    Doubly Occupied:

       1A    -91.951002     2A    -20.626525     3A    -20.565219
       4A    -15.570958     5A    -11.399886     6A    -11.297008
       7A    -11.267161     8A     -8.952177     9A     -6.633549
      10A     -6.632589    11A     -6.631614    12A     -1.471867
      13A     -1.369300    14A     -1.247450    15A     -1.057122
      16A     -0.957396    17A     -0.876632    18A     -0.787522
      19A     -0.721581    20A     -0.711364    21A     -0.689566
      22A     -0.662233    23A     -0.622246    24A     -0.613026
      25A     -0.563159    26A     -0.543991    27A     -0.524093
      28A     -0.496601    29A     -0.477211    30A     -0.448403
      31A     -0.413651    32A     -0.358026

  @DF-RHF Final Energy:  -719.52821198291406

   => Energetics <=

    Nuclear Repulsion Energy =            380.0127030702338971
    One-Electron Energy =               -1744.8015740636351438
    Two-Electron Energy =                 645.2606590104873021
    Total Energy =                       -719.5282119829140584
  Basis Set: (AUG-CC-PVTZ AUX)
    Blend: AUG-CC-PVTZ-RI
    Molecular point group: c1

    Geometry (in Angstrom), charge = 0, multiplicity = 1:

       Center              X                  Y                   Z               Mass
    ------------   -----------------  -----------------  -----------------  -----------------
         S            2.248494249035    -0.242590196983    -0.295479154422    31.972071174400
         O           -2.264546750965    -0.663591196983    -0.564530154422    15.994914619570
         O           -0.603017750965    -1.494144196983     0.729991845578    15.994914619570
         N           -1.270112750965     1.777475803017     0.272308845578    14.003074004430
         C           -0.444142450965     0.806100103017    -0.225562854422    12.000000000000
         C            0.973390249035     0.836262803017     0.419877845578    12.000000000000
         C           -1.047859750965    -0.594309196983     0.039015845578    12.000000000000
         H           -0.240495750965     0.782599803017    -1.354444154422     1.007825032230
         H            1.351036249035     1.856309803017     0.298909845578     1.007825032230
         H            0.860683249035     0.644839803017     1.488316845578     1.007825032230
         H           -2.184873750965     1.699126803017    -0.170390154422     1.007825032230
         H           -0.897964750965     2.691372803017     0.015453845578     1.007825032230
         H            1.759456249035    -1.382124196983     0.209860845578     1.007825032230
         H           -2.645948750965    -1.527275196983    -0.301758154422     1.007825032230

  Basis Set: AUG-CC-PVTZ
    Blend: AUG-CC-PVTZ
  Basis Set: (AUG-CC-PVTZ AUX)
    Blend: AUG-CC-PVTZ-JKFIT
	 Reference Energy          =    -719.5282119829140584 [Eh]
	 Singles Energy            =      -0.0000000000000000 [Eh]
	 Same-Spin Energy          =      -0.3753544431182170 [Eh]
	 Opposite-Spin Energy      =      -1.1596650719863639 [Eh]
	 Correlation Energy        =      -1.5350195151045809 [Eh]
	 Total Energy              =    -721.0632314980186948 [Eh]

	 ================> DF-SCS-MP2 Energies <==================
	-----------------------------------------------------------
	 SCS Same-Spin Scale       =       0.3333333333333333 [-]
	 SCS Opposite-Spin Scale   =       1.2000000000000000 [-]
	 SCS Same-Spin Energy      =      -0.1251181477060723 [Eh]
	 SCS Opposite-Spin Energy  =      -1.3915980863836366 [Eh]
	 SCS Correlation Energy    =      -1.5167162340897089 [Eh]
	 SCS Total Energy          =    -721.0449282170037577 [Eh]
	-----------------------------------------------------------

  Dipole Moment: [D]
     X:    -2.1716      Y:     1.4257      Z:    -1.0826     Total:     2.8144

*** Psi4 exiting successfully. Buy a developer a beer!
