                               Psi4 1.3.2 release

  ==> Input File <==

--------------------------------------------------------------------------
#psi4
#
memory 32 gb

molecule  {
0 1
  S        2.2579180    -0.2726900    -0.2934460
  O       -2.2551230    -0.6936910    -0.5624970
  O       -0.5935940    -1.5242440     0.7320250
  N       -1.3237918     1.6727715     0.3053747
  C       -0.3743770     0.7050360    -0.2599020
  C        0.9828140     0.8061630     0.4219110
  C       -1.0384360    -0.6244090     0.0410490
  H       -0.2310720     0.7525000    -1.3524110
  H        1.3604600     1.8262100     0.3009430
  H        0.8701070     0.6147400     1.4903500
  H       -2.1754500     1.6690270    -0.1683570
  H       -0.8885410     2.6612730     0.0174870
  H        1.7688800    -1.4122240     0.2118940
  H       -2.6365250    -1.5573750    -0.2997250
units angstrom
no_reorient  #important for SAPT in psi4, default
symmetry c1  #important for SAPT in psi4, default
}

set PROPERTIES_ORIGIN ["COM"]
properties('MP2/aug-cc-pvtz', properties = ['dipole'])
--------------------------------------------------------------------------

    Molecular point group: c1
  Charge       = 0
  Multiplicity = 1
  Basis Set: AUG-CC-PVTZ
    Blend: AUG-CC-PVTZ
  Basis Set: (AUG-CC-PVTZ AUX)
    Blend: AUG-CC-PVTZ-JKFIT

    Orbital Energies [Eh]
    ---------------------

    Doubly Occupied:

       1A    -91.951783     2A    -20.626423     3A    -20.562953
       4A    -15.577931     5A    -11.398713     6A    -11.295438
       7A    -11.270073     8A     -8.953167     9A     -6.634529
      10A     -6.633589    11A     -6.632597    12A     -1.471897
      13A     -1.368756    14A     -1.216785    15A     -1.064595
      16A     -0.962479    17A     -0.879970    18A     -0.790683
      19A     -0.717979    20A     -0.715304    21A     -0.680264
      22A     -0.644398    23A     -0.621151    24A     -0.594533
      25A     -0.565489    26A     -0.554477    27A     -0.526380
      28A     -0.494539    29A     -0.471311    30A     -0.451394
      31A     -0.429099    32A     -0.360700

  @DF-RHF Final Energy:  -719.52633746209608

   => Energetics <=

    Nuclear Repulsion Energy =            380.5387960055475673
    One-Electron Energy =               -1745.8915093330510899
    Two-Electron Energy =                 645.8263758654074991
    Total Energy =                       -719.5263374620960803
  Basis Set: (AUG-CC-PVTZ AUX)
    Blend: AUG-CC-PVTZ-RI
    Molecular point group: c1

    Geometry (in Angstrom), charge = 0, multiplicity = 1:

       Center              X                  Y                   Z               Mass
    ------------   -----------------  -----------------  -----------------  -----------------
         S            2.249812486585    -0.226921151723    -0.295463335472    31.972071174400
         O           -2.263228513415    -0.647922151723    -0.564514335472    15.994914619570
         O           -0.601699513415    -1.478475151723     0.730007664528    15.994914619570
         N           -1.331897313415     1.718540348277     0.303357364528    14.003074004430
         C           -0.382482513415     0.750804848277    -0.261919335472    12.000000000000
         C            0.974708486585     0.851931848277     0.419893664528    12.000000000000
         C           -1.046541513415    -0.578640151723     0.039031664528    12.000000000000
         H           -0.239177513415     0.798268848277    -1.354428335472     1.007825032230
         H            1.352354486585     1.871978848277     0.298925664528     1.007825032230
         H            0.862001486585     0.660508848277     1.488332664528     1.007825032230
         H           -2.183555513415     1.714795848277    -0.170374335472     1.007825032230
         H           -0.896646513415     2.707041848277     0.015469664528     1.007825032230
         H            1.760774486585    -1.366455151723     0.209876664528     1.007825032230
         H           -2.644630513415    -1.511606151723    -0.301742335472     1.007825032230

  Basis Set: AUG-CC-PVTZ
    Blend: AUG-CC-PVTZ
  Basis Set: (AUG-CC-PVTZ AUX)
    Blend: AUG-CC-PVTZ-JKFIT
	 Reference Energy          =    -719.5263374620960803 [Eh]
	 Singles Energy            =      -0.0000000000000000 [Eh]
	 Same-Spin Energy          =      -0.3753066649648209 [Eh]
	 Opposite-Spin Energy      =      -1.1609290590882841 [Eh]
	 Correlation Energy        =      -1.5362357240531050 [Eh]
	 Total Energy              =    -721.0625731861491658 [Eh]

	 ================> DF-SCS-MP2 Energies <==================
	-----------------------------------------------------------
	 SCS Same-Spin Scale       =       0.3333333333333333 [-]
	 SCS Opposite-Spin Scale   =       1.2000000000000000 [-]
	 SCS Same-Spin Energy      =      -0.1251022216549403 [Eh]
	 SCS Opposite-Spin Energy  =      -1.3931148709059409 [Eh]
	 SCS Correlation Energy    =      -1.5182170925608811 [Eh]
	 SCS Total Energy          =    -721.0445545546569974 [Eh]
	-----------------------------------------------------------

  Dipole Moment: [D]
     X:    -1.8880      Y:     1.3653      Z:    -1.2781     Total:     2.6574

*** Psi4 exiting successfully. Buy a developer a beer!
