                               Psi4 1.4a3.dev225

  ==> Input File <==

--------------------------------------------------------------------------
#psi4
#
memory 32 gb

molecule  {
0 1
  S        2.2579050    -0.2727850    -0.2934720
  O       -2.2550500    -0.6937950    -0.5626610
  O       -0.5937490    -1.5240650     0.7322790
  N       -1.2606540     1.7474040     0.2743750
  C       -0.3743580     0.7050630    -0.2599560
  C        0.9828610     0.8061940     0.4218890
  C       -1.0165730    -0.5805130     0.0311366
  H       -0.2310980     0.7525420    -1.3524390
  H        1.3604840     1.8262480     0.3009370
  H        0.8701350     0.6147610     1.4903210
  H       -2.1753310     1.6691650    -0.1685200
  H       -0.8883350     2.6612490     0.0175910
  H        1.7689400    -1.4123290     0.2119310
  H       -2.6364810    -1.5574560    -0.2998170
units angstrom
no_reorient  #important for SAPT in psi4, default
symmetry c1  #important for SAPT in psi4, default
}

set PROPERTIES_ORIGIN ["COM"]
properties('MP2/aug-cc-pvtz', properties = ['dipole'])
--------------------------------------------------------------------------

    Molecular point group: c1
  Charge       = 0
  Multiplicity = 1
  Basis Set: AUG-CC-PVTZ
    Blend: AUG-CC-PVTZ
  Basis Set: (AUG-CC-PVTZ AUX)
    Blend: AUG-CC-PVTZ-JKFIT

    Orbital Energies [Eh]
    ---------------------

    Doubly Occupied:

       1A    -91.951323     2A    -20.624193     3A    -20.563848
       4A    -15.573601     5A    -11.406197     6A    -11.296496
       7A    -11.271105     8A     -8.952772     9A     -6.634134
      10A     -6.633200    11A     -6.632208    12A     -1.460554
      13A     -1.352119    14A     -1.223020    15A     -1.068049
      16A     -0.976592    17A     -0.881950    18A     -0.790211
      19A     -0.720145    20A     -0.713085    21A     -0.672239
      22A     -0.657807    23A     -0.615924    24A     -0.596790
      25A     -0.571526    26A     -0.559888    27A     -0.524671
      28A     -0.486600    29A     -0.475590    30A     -0.450980
      31A     -0.427781    32A     -0.360524

  @DF-RHF Final Energy:  -719.53101153023920

   => Energetics <=

    Nuclear Repulsion Energy =            380.3050479283746768
    One-Electron Energy =               -1745.4218676742800653
    Two-Electron Energy =                 645.5858082156661339
    Total Energy =                       -719.5310115302391978
  Basis Set: (AUG-CC-PVTZ AUX)
    Blend: AUG-CC-PVTZ-RI
    Molecular point group: c1

    Geometry (in Angstrom), charge = 0, multiplicity = 1:

       Center              X                  Y                   Z               Mass
    ------------   -----------------  -----------------  -----------------  -----------------
         S            2.240329936122    -0.239995222693    -0.290915519947    31.972071174400
         O           -2.272625063878    -0.661005222693    -0.560104519947    15.994914619570
         O           -0.611324063878    -1.491275222693     0.734835480053    15.994914619570
         N           -1.278229063878     1.780193777307     0.276931480053    14.003074004430
         C           -0.391933063878     0.737852777307    -0.257399519947    12.000000000000
         C            0.965285936122     0.838983777307     0.424445480053    12.000000000000
         C           -1.034148063878    -0.547723222693     0.033693080053    12.000000000000
         H           -0.248673063878     0.785331777307    -1.349882519947     1.007825032230
         H            1.342908936122     1.859037777307     0.303493480053     1.007825032230
         H            0.852559936122     0.647550777307     1.492877480053     1.007825032230
         H           -2.192906063878     1.701954777307    -0.165963519947     1.007825032230
         H           -0.905910063878     2.694038777307     0.020147480053     1.007825032230
         H            1.751364936122    -1.379539222693     0.214487480053     1.007825032230
         H           -2.654056063878    -1.524666222693    -0.297260519947     1.007825032230

  Basis Set: AUG-CC-PVTZ
    Blend: AUG-CC-PVTZ
  Basis Set: (AUG-CC-PVTZ AUX)
    Blend: AUG-CC-PVTZ-JKFIT
	 Reference Energy          =    -719.5310115302391978 [Eh]
	 Singles Energy            =      -0.0000000000000000 [Eh]
	 Same-Spin Energy          =      -0.3759466073042832 [Eh]
	 Opposite-Spin Energy      =      -1.1617128173573641 [Eh]
	 Correlation Energy        =      -1.5376594246616473 [Eh]
	 Total Energy              =    -721.0686709549008810 [Eh]

	 ================> DF-SCS-MP2 Energies <==================
	-----------------------------------------------------------
	 SCS Same-Spin Scale       =       0.3333333333333333 [-]
	 SCS Opposite-Spin Scale   =       1.2000000000000000 [-]
	 SCS Same-Spin Energy      =      -0.1253155357680944 [Eh]
	 SCS Opposite-Spin Energy  =      -1.3940553808288370 [Eh]
	 SCS Correlation Energy    =      -1.5193709165969314 [Eh]
	 SCS Total Energy          =    -721.0503824468361245 [Eh]
	-----------------------------------------------------------

  Dipole Moment: [D]
     X:    -1.8775      Y:     1.4879      Z:    -1.2309     Total:     2.6933

*** Psi4 exiting successfully. Buy a developer a beer!
