                               Psi4 1.3.2 release

  ==> Input File <==

--------------------------------------------------------------------------
#psi4
#
memory 32 gb

molecule  {
0 1
  S        2.2579180    -0.2726900    -0.2934460
  O       -2.2581344    -0.7154322    -0.5534640
  O       -0.5935940    -1.5242440     0.7320250
  N       -1.2606890     1.7473760     0.2743420
  C       -0.3743770     0.7050360    -0.2599020
  C        0.9828140     0.8061630     0.4219110
  C       -1.0384360    -0.6244090     0.0410490
  H       -0.2310720     0.7525000    -1.3524110
  H        1.3604600     1.8262100     0.3009430
  H        0.8701070     0.6147400     1.4903500
  H       -2.1754500     1.6690270    -0.1683570
  H       -0.8885410     2.6612730     0.0174870
  H        1.7688800    -1.4122240     0.2118940
  H       -2.6365250    -1.5573750    -0.2997250
units angstrom
no_reorient  #important for SAPT in psi4, default
symmetry c1  #important for SAPT in psi4, default
}

set PROPERTIES_ORIGIN ["COM"]
properties('MP2/aug-cc-pvtz', properties = ['dipole'])
--------------------------------------------------------------------------

    Molecular point group: c1
  Charge       = 0
  Multiplicity = 1
  Basis Set: AUG-CC-PVTZ
    Blend: AUG-CC-PVTZ
  Basis Set: (AUG-CC-PVTZ AUX)
    Blend: AUG-CC-PVTZ-JKFIT

    Orbital Energies [Eh]
    ---------------------

    Doubly Occupied:

       1A    -91.950355     2A    -20.625177     3A    -20.564493
       4A    -15.570592     5A    -11.401489     6A    -11.295895
       7A    -11.269023     8A     -8.951797     9A     -6.633162
      10A     -6.632224    11A     -6.631233    12A     -1.475728
      13A     -1.370879    14A     -1.217356    15A     -1.064010
      16A     -0.966095    17A     -0.881363    18A     -0.795297
      19A     -0.719676    20A     -0.717712    21A     -0.671926
      22A     -0.657968    23A     -0.623470    24A     -0.602794
      25A     -0.567896    26A     -0.558165    27A     -0.524826
      28A     -0.494473    29A     -0.474648    30A     -0.450199
      31A     -0.423545    32A     -0.359371

  @DF-RHF Final Energy:  -719.54005620484020

   => Energetics <=

    Nuclear Repulsion Energy =            380.1499345303087694
    One-Electron Energy =               -1745.0943096820262781
    Two-Electron Energy =                 645.4043189468771970
    Total Energy =                       -719.5400562048401980
  Basis Set: (AUG-CC-PVTZ AUX)
    Blend: AUG-CC-PVTZ-RI
    Molecular point group: c1

    Geometry (in Angstrom), charge = 0, multiplicity = 1:

       Center              X                  Y                   Z               Mass
    ------------   -----------------  -----------------  -----------------  -----------------
         S            2.242908934935    -0.232680077013    -0.293066444619    31.972071174400
         O           -2.273143465065    -0.675422277013    -0.553084444619    15.994914619570
         O           -0.608603065065    -1.484234077013     0.732404555381    15.994914619570
         N           -1.275698065065     1.787385922987     0.274721555381    14.003074004430
         C           -0.389386065065     0.745045922987    -0.259522444619    12.000000000000
         C            0.967804934935     0.846172922987     0.422290555381    12.000000000000
         C           -1.053445065065    -0.584399077013     0.041428555381    12.000000000000
         H           -0.246081065065     0.792509922987    -1.352031444619     1.007825032230
         H            1.345450934935     1.866219922987     0.301322555381     1.007825032230
         H            0.855097934935     0.654749922987     1.490729555381     1.007825032230
         H           -2.190459065065     1.709036922987    -0.167977444619     1.007825032230
         H           -0.903550065065     2.701282922987     0.017866555381     1.007825032230
         H            1.753870934935    -1.372214077013     0.212273555381     1.007825032230
         H           -2.651534065065    -1.517365077013    -0.299345444619     1.007825032230

  Basis Set: AUG-CC-PVTZ
    Blend: AUG-CC-PVTZ
  Basis Set: (AUG-CC-PVTZ AUX)
    Blend: AUG-CC-PVTZ-JKFIT
	 Reference Energy          =    -719.5400562048401980 [Eh]
	 Singles Energy            =      -0.0000000000000000 [Eh]
	 Same-Spin Energy          =      -0.3743374270639903 [Eh]
	 Opposite-Spin Energy      =      -1.1584563495779938 [Eh]
	 Correlation Energy        =      -1.5327937766419841 [Eh]
	 Total Energy              =    -721.0728499814821362 [Eh]

	 ================> DF-SCS-MP2 Energies <==================
	-----------------------------------------------------------
	 SCS Same-Spin Scale       =       0.3333333333333333 [-]
	 SCS Opposite-Spin Scale   =       1.2000000000000000 [-]
	 SCS Same-Spin Energy      =      -0.1247791423546634 [Eh]
	 SCS Opposite-Spin Energy  =      -1.3901476194935924 [Eh]
	 SCS Correlation Energy    =      -1.5149267618482558 [Eh]
	 SCS Total Energy          =    -721.0549829666884989 [Eh]
	-----------------------------------------------------------

  Dipole Moment: [D]
     X:    -1.9964      Y:     1.3251      Z:    -1.2102     Total:     2.6845

*** Psi4 exiting successfully. Buy a developer a beer!
