                               Psi4 1.3.2 release

  ==> Input File <==

--------------------------------------------------------------------------
#psi4
#
memory 32 gb

molecule  {
0 1
  S        2.2579180    -0.2726900    -0.2934460
  O       -2.2551230    -0.6936910    -0.5624970
  O       -0.5935940    -1.5242440     0.7320250
  N       -1.2606890     1.7473760     0.2743420
  C       -0.3897031     0.6871412    -0.2497992
  C        0.9828140     0.8061630     0.4219110
  C       -1.0384360    -0.6244090     0.0410490
  H       -0.2310720     0.7525000    -1.3524110
  H        1.3604600     1.8262100     0.3009430
  H        0.8701070     0.6147400     1.4903500
  H       -2.1754500     1.6690270    -0.1683570
  H       -0.8885410     2.6612730     0.0174870
  H        1.7688800    -1.4122240     0.2118940
  H       -2.6365250    -1.5573750    -0.2997250
units angstrom
no_reorient  #important for SAPT in psi4, default
symmetry c1  #important for SAPT in psi4, default
}

set PROPERTIES_ORIGIN ["COM"]
properties('MP2/aug-cc-pvtz', properties = ['dipole'])
--------------------------------------------------------------------------

    Molecular point group: c1
  Charge       = 0
  Multiplicity = 1
  Basis Set: AUG-CC-PVTZ
    Blend: AUG-CC-PVTZ
  Basis Set: (AUG-CC-PVTZ AUX)
    Blend: AUG-CC-PVTZ-JKFIT

    Orbital Energies [Eh]
    ---------------------

    Doubly Occupied:

       1A    -91.949926     2A    -20.628560     3A    -20.566264
       4A    -15.570015     5A    -11.401608     6A    -11.294710
       7A    -11.268995     8A     -8.951368     9A     -6.632736
      10A     -6.631796    11A     -6.630806    12A     -1.474613
      13A     -1.371598    14A     -1.216519    15A     -1.062640
      16A     -0.969101    17A     -0.879430    18A     -0.790240
      19A     -0.720785    20A     -0.716947    21A     -0.673380
      22A     -0.656503    23A     -0.623715    24A     -0.603047
      25A     -0.570567    26A     -0.553031    27A     -0.524442
      28A     -0.495422    29A     -0.476550    30A     -0.450582
      31A     -0.421565    32A     -0.358621

  @DF-RHF Final Energy:  -719.53794602817266

   => Energetics <=

    Nuclear Repulsion Energy =            380.3874693300003287
    One-Electron Energy =               -1745.5786658636777702
    Two-Electron Energy =                 645.6532505055047295
    Total Energy =                       -719.5379460281726551
  Basis Set: (AUG-CC-PVTZ AUX)
    Blend: AUG-CC-PVTZ-RI
    Molecular point group: c1

    Geometry (in Angstrom), charge = 0, multiplicity = 1:

       Center              X                  Y                   Z               Mass
    ------------   -----------------  -----------------  -----------------  -----------------
         S            2.244030620565    -0.233779162395    -0.292874339910    31.972071174400
         O           -2.269010379435    -0.654780162395    -0.561925339910    15.994914619570
         O           -0.607481379435    -1.485333162395     0.732596660090    15.994914619570
         N           -1.274576379435     1.786286837605     0.274913660090    14.003074004430
         C           -0.403590479435     0.726052037605    -0.249227539910    12.000000000000
         C            0.968926620565     0.845073837605     0.422482660090    12.000000000000
         C           -1.052323379435    -0.585498162395     0.041620660090    12.000000000000
         H           -0.244959379435     0.791410837605    -1.351839339910     1.007825032230
         H            1.346572620565     1.865120837605     0.301514660090     1.007825032230
         H            0.856219620565     0.653650837605     1.490921660090     1.007825032230
         H           -2.189337379435     1.707937837605    -0.167785339910     1.007825032230
         H           -0.902428379435     2.700183837605     0.018058660090     1.007825032230
         H            1.754992620565    -1.373313162395     0.212465660090     1.007825032230
         H           -2.650412379435    -1.518464162395    -0.299153339910     1.007825032230

  Basis Set: AUG-CC-PVTZ
    Blend: AUG-CC-PVTZ
  Basis Set: (AUG-CC-PVTZ AUX)
    Blend: AUG-CC-PVTZ-JKFIT
	 Reference Energy          =    -719.5379460281726551 [Eh]
	 Singles Energy            =      -0.0000000000000000 [Eh]
	 Same-Spin Energy          =      -0.3748875307925301 [Eh]
	 Opposite-Spin Energy      =      -1.1595500990168330 [Eh]
	 Correlation Energy        =      -1.5344376298093632 [Eh]
	 Total Energy              =    -721.0723836579820727 [Eh]

	 ================> DF-SCS-MP2 Energies <==================
	-----------------------------------------------------------
	 SCS Same-Spin Scale       =       0.3333333333333333 [-]
	 SCS Opposite-Spin Scale   =       1.2000000000000000 [-]
	 SCS Same-Spin Energy      =      -0.1249625102641767 [Eh]
	 SCS Opposite-Spin Energy  =      -1.3914601188201996 [Eh]
	 SCS Correlation Energy    =      -1.5164226290843763 [Eh]
	 SCS Total Energy          =    -721.0543686572569868 [Eh]
	-----------------------------------------------------------

  Dipole Moment: [D]
     X:    -2.0315      Y:     1.2834      Z:    -1.1970     Total:     2.6846

*** Psi4 exiting successfully. Buy a developer a beer!
