                               Psi4 1.3.2 release

  ==> Input File <==

--------------------------------------------------------------------------
#psi4
#
memory 32 gb

molecule  {
0 1
  S        2.2579180    -0.2726900    -0.2934460
  O       -2.2551230    -0.6936910    -0.5624970
  O       -0.5935940    -1.5242440     0.7320250
  N       -1.2606890     1.7473760     0.2743420
  C       -0.3743770     0.7050360    -0.2599020
  C        0.9968943     0.8312218     0.4085138
  C       -1.0384360    -0.6244090     0.0410490
  H       -0.2310720     0.7525000    -1.3524110
  H        1.3604600     1.8262100     0.3009430
  H        0.8701070     0.6147400     1.4903500
  H       -2.1754500     1.6690270    -0.1683570
  H       -0.8885410     2.6612730     0.0174870
  H        1.7688800    -1.4122240     0.2118940
  H       -2.6365250    -1.5573750    -0.2997250
units angstrom
no_reorient  #important for SAPT in psi4, default
symmetry c1  #important for SAPT in psi4, default
}

set PROPERTIES_ORIGIN ["COM"]
properties('MP2/aug-cc-pvtz', properties = ['dipole'])
--------------------------------------------------------------------------

    Molecular point group: c1
  Charge       = 0
  Multiplicity = 1
  Basis Set: AUG-CC-PVTZ
    Blend: AUG-CC-PVTZ
  Basis Set: (AUG-CC-PVTZ AUX)
    Blend: AUG-CC-PVTZ-JKFIT

    Orbital Energies [Eh]
    ---------------------

    Doubly Occupied:

       1A    -91.949779     2A    -20.628728     3A    -20.565663
       4A    -15.569928     5A    -11.402035     6A    -11.295167
       7A    -11.268377     8A     -8.951251     9A     -6.632624
      10A     -6.631712    11A     -6.630716    12A     -1.473799
      13A     -1.370891    14A     -1.216244    15A     -1.062896
      16A     -0.964512    17A     -0.880161    18A     -0.792119
      19A     -0.720230    20A     -0.715571    21A     -0.671878
      22A     -0.657844    23A     -0.623483    24A     -0.603831
      25A     -0.569569    26A     -0.552600    27A     -0.530559
      28A     -0.495511    29A     -0.474260    30A     -0.448269
      31A     -0.422335    32A     -0.358206

  @DF-RHF Final Energy:  -719.53791479720508

   => Energetics <=

    Nuclear Repulsion Energy =            379.9147420881412245
    One-Electron Energy =               -1744.6438210862966116
    Two-Electron Energy =                 645.1911642009501975
    Total Energy =                       -719.5379147972050760
  Basis Set: (AUG-CC-PVTZ AUX)
    Blend: AUG-CC-PVTZ-RI
    Molecular point group: c1

    Geometry (in Angstrom), charge = 0, multiplicity = 1:

       Center              X                  Y                   Z               Mass
    ------------   -----------------  -----------------  -----------------  -----------------
         S            2.241114759302    -0.238038328370    -0.290544141733    31.972071174400
         O           -2.271926240698    -0.659039328370    -0.559595141733    15.994914619570
         O           -0.610397240698    -1.489592328370     0.734926858267    15.994914619570
         N           -1.277492240698     1.782027671630     0.277243858267    14.003074004430
         C           -0.391180240698     0.739687671630    -0.257000141733    12.000000000000
         C            0.980091059302     0.865873471630     0.411415658267    12.000000000000
         C           -1.055239240698    -0.589757328370     0.043950858267    12.000000000000
         H           -0.247875240698     0.787151671630    -1.349509141733     1.007825032230
         H            1.343656759302     1.860861671630     0.303844858267     1.007825032230
         H            0.853303759302     0.649391671630     1.493251858267     1.007825032230
         H           -2.192253240698     1.703678671630    -0.165455141733     1.007825032230
         H           -0.905344240698     2.695924671630     0.020388858267     1.007825032230
         H            1.752076759302    -1.377572328370     0.214795858267     1.007825032230
         H           -2.653328240698    -1.522723328370    -0.296823141733     1.007825032230

  Basis Set: AUG-CC-PVTZ
    Blend: AUG-CC-PVTZ
  Basis Set: (AUG-CC-PVTZ AUX)
    Blend: AUG-CC-PVTZ-JKFIT
	 Reference Energy          =    -719.5379147972050760 [Eh]
	 Singles Energy            =      -0.0000000000000000 [Eh]
	 Same-Spin Energy          =      -0.3746551636273714 [Eh]
	 Opposite-Spin Energy      =      -1.1592383639191968 [Eh]
	 Correlation Energy        =      -1.5338935275465682 [Eh]
	 Total Energy              =    -721.0718083247516006 [Eh]

	 ================> DF-SCS-MP2 Energies <==================
	-----------------------------------------------------------
	 SCS Same-Spin Scale       =       0.3333333333333333 [-]
	 SCS Opposite-Spin Scale   =       1.2000000000000000 [-]
	 SCS Same-Spin Energy      =      -0.1248850545424571 [Eh]
	 SCS Opposite-Spin Energy  =      -1.3910860367030360 [Eh]
	 SCS Correlation Energy    =      -1.5159710912454931 [Eh]
	 SCS Total Energy          =    -721.0538858884506226 [Eh]
	-----------------------------------------------------------

  Dipole Moment: [D]
     X:    -2.0364      Y:     1.2940      Z:    -1.2004     Total:     2.6949

*** Psi4 exiting successfully. Buy a developer a beer!
