                               Psi4 1.3.2 release

  ==> Input File <==

--------------------------------------------------------------------------
#psi4
#
memory 32 gb

molecule  {
0 1
  S        2.2579180    -0.2726900    -0.2934460
  O       -2.2551230    -0.6936910    -0.5624970
  O       -0.5935940    -1.5242440     0.7320250
  N       -1.2606890     1.7473760     0.2743420
  C       -0.3743770     0.7050360    -0.2599020
  C        1.0459912     0.8164821     0.2760056
  C       -1.0384360    -0.6244090     0.0410490
  H       -0.2310720     0.7525000    -1.3524110
  H        1.3604600     1.8262100     0.3009430
  H        0.8701070     0.6147400     1.4903500
  H       -2.1754500     1.6690270    -0.1683570
  H       -0.8885410     2.6612730     0.0174870
  H        1.7688800    -1.4122240     0.2118940
  H       -2.6365250    -1.5573750    -0.2997250
units angstrom
no_reorient  #important for SAPT in psi4, default
symmetry c1  #important for SAPT in psi4, default
}

set PROPERTIES_ORIGIN ["COM"]
properties('MP2/aug-cc-pvtz', properties = ['dipole'])
--------------------------------------------------------------------------

    Molecular point group: c1
  Charge       = 0
  Multiplicity = 1
  Basis Set: AUG-CC-PVTZ
    Blend: AUG-CC-PVTZ
  Basis Set: (AUG-CC-PVTZ AUX)
    Blend: AUG-CC-PVTZ-JKFIT

    Orbital Energies [Eh]
    ---------------------

    Doubly Occupied:

       1A    -91.951940     2A    -20.628627     3A    -20.565560
       4A    -15.571323     5A    -11.402194     6A    -11.295200
       7A    -11.273091     8A     -8.954794     9A     -6.636336
      10A     -6.635371    11A     -6.634283    12A     -1.473621
      13A     -1.370639    14A     -1.216083    15A     -1.076469
      16A     -0.971023    17A     -0.878911    18A     -0.788757
      19A     -0.719692    20A     -0.711280    21A     -0.672831
      22A     -0.659077    23A     -0.617932    24A     -0.608031
      25A     -0.574861    26A     -0.554941    27A     -0.524416
      28A     -0.497318    29A     -0.474700    30A     -0.445527
      31A     -0.419846    32A     -0.354599

  @DF-RHF Final Energy:  -719.51574593489988

   => Energetics <=

    Nuclear Repulsion Energy =            380.8922176347517734
    One-Electron Energy =               -1746.4973807980120455
    Two-Electron Energy =                 646.0894172283605030
    Total Energy =                       -719.5157459348998827
  Basis Set: (AUG-CC-PVTZ AUX)
    Blend: AUG-CC-PVTZ-RI
    Molecular point group: c1

    Geometry (in Angstrom), charge = 0, multiplicity = 1:

       Center              X                  Y                   Z               Mass
    ------------   -----------------  -----------------  -----------------  -----------------
         S            2.236246439860    -0.236576778495    -0.277404977220    31.972071174400
         O           -2.276794560140    -0.657577778495    -0.546455977220    15.994914619570
         O           -0.615265560140    -1.488130778495     0.748066022780    15.994914619570
         N           -1.282360560140     1.783489221505     0.290383022780    14.003074004430
         C           -0.396048560140     0.741149221505    -0.243860977220    12.000000000000
         C            1.024319639860     0.852595321505     0.292046622780    12.000000000000
         C           -1.060107560140    -0.588295778495     0.057090022780    12.000000000000
         H           -0.252743560140     0.788613221505    -1.336369977220     1.007825032230
         H            1.338788439860     1.862323221505     0.316984022780     1.007825032230
         H            0.848435439860     0.650853221505     1.506391022780     1.007825032230
         H           -2.197121560140     1.705140221505    -0.152315977220     1.007825032230
         H           -0.910212560140     2.697386221505     0.033528022780     1.007825032230
         H            1.747208439860    -1.376110778495     0.227935022780     1.007825032230
         H           -2.658196560140    -1.521261778495    -0.283683977220     1.007825032230

  Basis Set: AUG-CC-PVTZ
    Blend: AUG-CC-PVTZ
  Basis Set: (AUG-CC-PVTZ AUX)
    Blend: AUG-CC-PVTZ-JKFIT
	 Reference Energy          =    -719.5157459348998827 [Eh]
	 Singles Energy            =      -0.0000000000000000 [Eh]
	 Same-Spin Energy          =      -0.3758764142310084 [Eh]
	 Opposite-Spin Energy      =      -1.1608529120756867 [Eh]
	 Correlation Energy        =      -1.5367293263066952 [Eh]
	 Total Energy              =    -721.0524752612066095 [Eh]

	 ================> DF-SCS-MP2 Energies <==================
	-----------------------------------------------------------
	 SCS Same-Spin Scale       =       0.3333333333333333 [-]
	 SCS Opposite-Spin Scale   =       1.2000000000000000 [-]
	 SCS Same-Spin Energy      =      -0.1252921380770028 [Eh]
	 SCS Opposite-Spin Energy  =      -1.3930234944908240 [Eh]
	 SCS Correlation Energy    =      -1.5183156325678269 [Eh]
	 SCS Total Energy          =    -721.0340615674676883 [Eh]
	-----------------------------------------------------------

  Dipole Moment: [D]
     X:    -1.9398      Y:     1.2431      Z:    -1.2402     Total:     2.6165

*** Psi4 exiting successfully. Buy a developer a beer!
