                               Psi4 1.3.2 release

  ==> Input File <==

--------------------------------------------------------------------------
#psi4
#
memory 32 gb

molecule  {
0 1
  S        2.2579180    -0.2726900    -0.2934460
  O       -2.2551230    -0.6936910    -0.5624970
  O       -0.5935940    -1.5242440     0.7320250
  N       -1.2606890     1.7473760     0.2743420
  C       -0.3743770     0.7050360    -0.2599020
  C        1.0529897     0.7467880     0.3825411
  C       -1.0384360    -0.6244090     0.0410490
  H       -0.2310720     0.7525000    -1.3524110
  H        1.3604600     1.8262100     0.3009430
  H        0.8701070     0.6147400     1.4903500
  H       -2.1754500     1.6690270    -0.1683570
  H       -0.8885410     2.6612730     0.0174870
  H        1.7688800    -1.4122240     0.2118940
  H       -2.6365250    -1.5573750    -0.2997250
units angstrom
no_reorient  #important for SAPT in psi4, default
symmetry c1  #important for SAPT in psi4, default
}

set PROPERTIES_ORIGIN ["COM"]
properties('MP2/aug-cc-pvtz', properties = ['dipole'])
--------------------------------------------------------------------------

    Molecular point group: c1
  Charge       = 0
  Multiplicity = 1
  Basis Set: AUG-CC-PVTZ
    Blend: AUG-CC-PVTZ
  Basis Set: (AUG-CC-PVTZ AUX)
    Blend: AUG-CC-PVTZ-JKFIT

    Orbital Energies [Eh]
    ---------------------

    Doubly Occupied:

       1A    -91.951588     2A    -20.627005     3A    -20.564483
       4A    -15.570521     5A    -11.399778     6A    -11.294946
       7A    -11.270262     8A     -8.954693     9A     -6.636228
      10A     -6.635183    11A     -6.634095    12A     -1.472317
      13A     -1.369671    14A     -1.213114    15A     -1.074822
      16A     -0.969625    17A     -0.872008    18A     -0.786241
      19A     -0.718565    20A     -0.712109    21A     -0.670608
      22A     -0.656816    23A     -0.620853    24A     -0.601274
      25A     -0.570367    26A     -0.545458    27A     -0.530319
      28A     -0.497064    29A     -0.477862    30A     -0.450914
      31A     -0.420944    32A     -0.357616

  @DF-RHF Final Energy:  -719.52905748685782

   => Energetics <=

    Nuclear Repulsion Energy =            380.8482251793809041
    One-Electron Energy =               -1746.4998694468458780
    Two-Electron Energy =                 646.1225867806070937
    Total Energy =                       -719.5290574868578233
  Basis Set: (AUG-CC-PVTZ AUX)
    Blend: AUG-CC-PVTZ-RI
    Molecular point group: c1

    Geometry (in Angstrom), charge = 0, multiplicity = 1:

       Center              X                  Y                   Z               Mass
    ------------   -----------------  -----------------  -----------------  -----------------
         S            2.235552487012    -0.229666094888    -0.287968757130    31.972071174400
         O           -2.277488512988    -0.650667094888    -0.557019757130    15.994914619570
         O           -0.615959512988    -1.481220094888     0.737502242870    15.994914619570
         N           -1.283054512988     1.790399905112     0.279819242870    14.003074004430
         C           -0.396742512988     0.748059905112    -0.254424757130    12.000000000000
         C            1.030624187012     0.789811905112     0.388018342870    12.000000000000
         C           -1.060801512988    -0.581385094888     0.046526242870    12.000000000000
         H           -0.253437512988     0.795523905112    -1.346933757130     1.007825032230
         H            1.338094487012     1.869233905112     0.306420242870     1.007825032230
         H            0.847741487012     0.657763905112     1.495827242870     1.007825032230
         H           -2.197815512988     1.712050905112    -0.162879757130     1.007825032230
         H           -0.910906512988     2.704296905112     0.022964242870     1.007825032230
         H            1.746514487012    -1.369200094888     0.217371242870     1.007825032230
         H           -2.658890512988    -1.514351094888    -0.294247757130     1.007825032230

  Basis Set: AUG-CC-PVTZ
    Blend: AUG-CC-PVTZ
  Basis Set: (AUG-CC-PVTZ AUX)
    Blend: AUG-CC-PVTZ-JKFIT
	 Reference Energy          =    -719.5290574868578233 [Eh]
	 Singles Energy            =      -0.0000000000000000 [Eh]
	 Same-Spin Energy          =      -0.3756333884592659 [Eh]
	 Opposite-Spin Energy      =      -1.1601930683560369 [Eh]
	 Correlation Energy        =      -1.5358264568153028 [Eh]
	 Total Energy              =    -721.0648839436731805 [Eh]

	 ================> DF-SCS-MP2 Energies <==================
	-----------------------------------------------------------
	 SCS Same-Spin Scale       =       0.3333333333333333 [-]
	 SCS Opposite-Spin Scale   =       1.2000000000000000 [-]
	 SCS Same-Spin Energy      =      -0.1252111294864220 [Eh]
	 SCS Opposite-Spin Energy  =      -1.3922316820272442 [Eh]
	 SCS Correlation Energy    =      -1.5174428115136662 [Eh]
	 SCS Total Energy          =    -721.0465002983714840 [Eh]
	-----------------------------------------------------------

  Dipole Moment: [D]
     X:    -1.8865      Y:     1.2193      Z:    -1.2384     Total:     2.5650

*** Psi4 exiting successfully. Buy a developer a beer!
