                               Psi4 1.3.2 release

  ==> Input File <==

--------------------------------------------------------------------------
#psi4
#
memory 32 gb

molecule  {
0 1
  S        2.2579180    -0.2726900    -0.2934460
  O       -2.2551230    -0.6936910    -0.5624970
  O       -0.5935940    -1.5242440     0.7320250
  N       -1.2606890     1.7473760     0.2743420
  C       -0.3593209     0.7232483    -0.2698420
  C        0.9828140     0.8061630     0.4219110
  C       -1.0384360    -0.6244090     0.0410490
  H       -0.2310720     0.7525000    -1.3524110
  H        1.3604600     1.8262100     0.3009430
  H        0.8701070     0.6147400     1.4903500
  H       -2.1754500     1.6690270    -0.1683570
  H       -0.8885410     2.6612730     0.0174870
  H        1.7688800    -1.4122240     0.2118940
  H       -2.6365250    -1.5573750    -0.2997250
units angstrom
no_reorient  #important for SAPT in psi4, default
symmetry c1  #important for SAPT in psi4, default
}

set PROPERTIES_ORIGIN ["COM"]
properties('MP2/aug-cc-pvtz', properties = ['dipole'])
--------------------------------------------------------------------------

    Molecular point group: c1
  Charge       = 0
  Multiplicity = 1
  Basis Set: AUG-CC-PVTZ
    Blend: AUG-CC-PVTZ
  Basis Set: (AUG-CC-PVTZ AUX)
    Blend: AUG-CC-PVTZ-JKFIT

    Orbital Energies [Eh]
    ---------------------

    Doubly Occupied:

       1A    -91.950348     2A    -20.628093     3A    -20.564887
       4A    -15.570099     5A    -11.401195     6A    -11.294983
       7A    -11.268026     8A     -8.951786     9A     -6.633150
      10A     -6.632213    11A     -6.631222    12A     -1.472551
      13A     -1.369987    14A     -1.216771    15A     -1.064559
      16A     -0.960760    17A     -0.879007    18A     -0.791968
      19A     -0.720005    20A     -0.715477    21A     -0.670934
      22A     -0.657571    23A     -0.623589    24A     -0.602639
      25A     -0.564958    26A     -0.560565    27A     -0.524969
      28A     -0.494971    29A     -0.472726    30A     -0.449268
      31A     -0.424138    32A     -0.359571

  @DF-RHF Final Energy:  -719.53817882674377

   => Energetics <=

    Nuclear Repulsion Energy =            379.9600761656873829
    One-Electron Energy =               -1744.7505424519467851
    Two-Electron Energy =                 645.2522874595155145
    Total Energy =                       -719.5381788267437742
  Basis Set: (AUG-CC-PVTZ AUX)
    Blend: AUG-CC-PVTZ-RI
    Molecular point group: c1

    Geometry (in Angstrom), charge = 0, multiplicity = 1:

       Center              X                  Y                   Z               Mass
    ------------   -----------------  -----------------  -----------------  -----------------
         S            2.241018001541    -0.237359447442    -0.290886948590    31.972071174400
         O           -2.272022998459    -0.658360447442    -0.559937948590    15.994914619570
         O           -0.610493998459    -1.488913447442     0.734584051410    15.994914619570
         N           -1.277588998459     1.782706552558     0.276901051410    14.003074004430
         C           -0.376220898459     0.758578852558    -0.267282948590    12.000000000000
         C            0.965914001541     0.841493552558     0.424470051410    12.000000000000
         C           -1.055335998459    -0.589078447442     0.043608051410    12.000000000000
         H           -0.247971998459     0.787830552558    -1.349851948590     1.007825032230
         H            1.343560001541     1.861540552558     0.303502051410     1.007825032230
         H            0.853207001541     0.650070552558     1.492909051410     1.007825032230
         H           -2.192349998459     1.704357552558    -0.165797948590     1.007825032230
         H           -0.905440998459     2.696603552558     0.020046051410     1.007825032230
         H            1.751980001541    -1.376893447442     0.214453051410     1.007825032230
         H           -2.653424998459    -1.522044447442    -0.297165948590     1.007825032230

  Basis Set: AUG-CC-PVTZ
    Blend: AUG-CC-PVTZ
  Basis Set: (AUG-CC-PVTZ AUX)
    Blend: AUG-CC-PVTZ-JKFIT
	 Reference Energy          =    -719.5381788267437742 [Eh]
	 Singles Energy            =      -0.0000000000000000 [Eh]
	 Same-Spin Energy          =      -0.3747634464306384 [Eh]
	 Opposite-Spin Energy      =      -1.1593712295728429 [Eh]
	 Correlation Energy        =      -1.5341346760034813 [Eh]
	 Total Energy              =    -721.0723135027473063 [Eh]

	 ================> DF-SCS-MP2 Energies <==================
	-----------------------------------------------------------
	 SCS Same-Spin Scale       =       0.3333333333333333 [-]
	 SCS Opposite-Spin Scale   =       1.2000000000000000 [-]
	 SCS Same-Spin Energy      =      -0.1249211488102128 [Eh]
	 SCS Opposite-Spin Energy  =      -1.3912454754874115 [Eh]
	 SCS Correlation Energy    =      -1.5161666242976244 [Eh]
	 SCS Total Energy          =    -721.0543454510413994 [Eh]
	-----------------------------------------------------------

  Dipole Moment: [D]
     X:    -2.0171      Y:     1.2851      Z:    -1.2136     Total:     2.6820

*** Psi4 exiting successfully. Buy a developer a beer!
