                               Psi4 1.4a3.dev225

  ==> Input File <==

--------------------------------------------------------------------------
#psi4
#
memory 32 gb

molecule  {
0 1
  S        2.2579050    -0.2727850    -0.2934720
  O       -2.2550500    -0.6937950    -0.5626610
  O       -0.5937490    -1.5240650     0.7322790
  N       -1.2606540     1.7474040     0.2743750
  C       -0.3743580     0.7050630    -0.2599560
  C        0.9828610     0.8061940     0.4218890
  C       -1.0384730    -0.6243520     0.0410630
  H       -0.2310980     0.7525420    -1.3524390
  H        1.3604840     1.8262480     0.3009370
  H        0.8701350     0.6147610     1.4903210
  H       -2.1753310     1.6691650    -0.1685200
  H       -0.8883350     2.6612490     0.0175910
  H        1.7616369    -1.4293491     0.2194796
  H       -2.6364810    -1.5574560    -0.2998170
units angstrom
no_reorient  #important for SAPT in psi4, default
symmetry c1  #important for SAPT in psi4, default
}

set PROPERTIES_ORIGIN ["COM"]
properties('MP2/aug-cc-pvtz', properties = ['dipole'])
--------------------------------------------------------------------------

    Molecular point group: c1
  Charge       = 0
  Multiplicity = 1
  Basis Set: AUG-CC-PVTZ
    Blend: AUG-CC-PVTZ
  Basis Set: (AUG-CC-PVTZ AUX)
    Blend: AUG-CC-PVTZ-JKFIT

    Orbital Energies [Eh]
    ---------------------

    Doubly Occupied:

       1A    -91.951411     2A    -20.628406     3A    -20.565630
       4A    -15.570014     5A    -11.401558     6A    -11.294769
       7A    -11.268468     8A     -8.952362     9A     -6.633693
      10A     -6.632777    11A     -6.631813    12A     -1.473641
      13A     -1.370873    14A     -1.216593    15A     -1.062966
      16A     -0.963938    17A     -0.877810    18A     -0.790806
      19A     -0.720401    20A     -0.716340    21A     -0.671761
      22A     -0.656974    23A     -0.623637    24A     -0.602830
      25A     -0.566644    26A     -0.557137    27A     -0.523405
      28A     -0.495101    29A     -0.474673    30A     -0.449175
      31A     -0.423015    32A     -0.358905

  @DF-RHF Final Energy:  -719.53830349354723

   => Energetics <=

    Nuclear Repulsion Energy =            380.0727912044748678
    One-Electron Energy =               -1744.9671374232402741
    Two-Electron Energy =                 645.3560427252181171
    Total Energy =                       -719.5383034935472324
  Basis Set: (AUG-CC-PVTZ AUX)
    Blend: AUG-CC-PVTZ-RI
    Molecular point group: c1

    Geometry (in Angstrom), charge = 0, multiplicity = 1:

       Center              X                  Y                   Z               Mass
    ------------   -----------------  -----------------  -----------------  -----------------
         S            2.242562301069    -0.235506523250    -0.291962658686    31.972071174400
         O           -2.270392698931    -0.656516523250    -0.561151658686    15.994914619570
         O           -0.609091698931    -1.486786523250     0.733788341314    15.994914619570
         N           -1.275996698931     1.784682476750     0.275884341314    14.003074004430
         C           -0.389700698931     0.742341476750    -0.258446658686    12.000000000000
         C            0.967518301069     0.843472476750     0.423398341314    12.000000000000
         C           -1.053815698931    -0.587073523250     0.042572341314    12.000000000000
         H           -0.246440698931     0.789820476750    -1.350929658686     1.007825032230
         H            1.345141301069     1.863526476750     0.302446341314     1.007825032230
         H            0.854792301069     0.652039476750     1.491830341314     1.007825032230
         H           -2.190673698931     1.706443476750    -0.167010658686     1.007825032230
         H           -0.903677698931     2.698527476750     0.019100341314     1.007825032230
         H            1.746294201069    -1.392070623250     0.220988941314     1.007825032230
         H           -2.651823698931    -1.520177523250    -0.298307658686     1.007825032230

  Basis Set: AUG-CC-PVTZ
    Blend: AUG-CC-PVTZ
  Basis Set: (AUG-CC-PVTZ AUX)
    Blend: AUG-CC-PVTZ-JKFIT
	 Reference Energy          =    -719.5383034935472324 [Eh]
	 Singles Energy            =      -0.0000000000000000 [Eh]
	 Same-Spin Energy          =      -0.3748252029879081 [Eh]
	 Opposite-Spin Energy      =      -1.1595370142025025 [Eh]
	 Correlation Energy        =      -1.5343622171904108 [Eh]
	 Total Energy              =    -721.0726657107376241 [Eh]

	 ================> DF-SCS-MP2 Energies <==================
	-----------------------------------------------------------
	 SCS Same-Spin Scale       =       0.3333333333333333 [-]
	 SCS Opposite-Spin Scale   =       1.2000000000000000 [-]
	 SCS Same-Spin Energy      =      -0.1249417343293027 [Eh]
	 SCS Opposite-Spin Energy  =      -1.3914444170430029 [Eh]
	 SCS Correlation Energy    =      -1.5163861513723056 [Eh]
	 SCS Total Energy          =    -721.0546896449195629 [Eh]
	-----------------------------------------------------------

  Dipole Moment: [D]
     X:    -2.0307      Y:     1.2791      Z:    -1.2032     Total:     2.6846

*** Psi4 exiting successfully. Buy a developer a beer!
