                               Psi4 1.3.2 release

  ==> Input File <==

--------------------------------------------------------------------------
#psi4
#
memory 32 gb

molecule  {
0 1
  S        2.2579180    -0.2726900    -0.2934460
  O       -2.2551230    -0.6936910    -0.5624970
  O       -0.5935940    -1.5242440     0.7320250
  N       -1.2274983     1.7827957     0.2578397
  C       -0.3743770     0.7050360    -0.2599020
  C        0.9828140     0.8061630     0.4219110
  C       -1.0384360    -0.6244090     0.0410490
  H       -0.2310720     0.7525000    -1.3524110
  H        1.3604600     1.8262100     0.3009430
  H        0.8701070     0.6147400     1.4903500
  H       -2.1754500     1.6690270    -0.1683570
  H       -0.8885410     2.6612730     0.0174870
  H        1.7688800    -1.4122240     0.2118940
  H       -2.6365250    -1.5573750    -0.2997250
units angstrom
no_reorient  #important for SAPT in psi4, default
symmetry c1  #important for SAPT in psi4, default
}

set PROPERTIES_ORIGIN ["COM"]
properties('MP2/aug-cc-pvtz', properties = ['dipole'])
--------------------------------------------------------------------------

    Molecular point group: c1
  Charge       = 0
  Multiplicity = 1
  Basis Set: AUG-CC-PVTZ
    Blend: AUG-CC-PVTZ
  Basis Set: (AUG-CC-PVTZ AUX)
    Blend: AUG-CC-PVTZ-JKFIT

    Orbital Energies [Eh]
    ---------------------

    Doubly Occupied:

       1A    -91.949325     2A    -20.629448     3A    -20.567058
       4A    -15.566327     5A    -11.403147     6A    -11.294970
       7A    -11.267758     8A     -8.950798     9A     -6.632165
      10A     -6.631227    11A     -6.630237    12A     -1.474618
      13A     -1.371995    14A     -1.217713    15A     -1.063713
      16A     -0.966795    17A     -0.878911    18A     -0.791934
      19A     -0.721775    20A     -0.716806    21A     -0.676694
      22A     -0.656834    23A     -0.624946    24A     -0.606514
      25A     -0.567470    26A     -0.556774    27A     -0.523834
      28A     -0.495529    29A     -0.476517    30A     -0.449276
      31A     -0.420067    32A     -0.358323

  @DF-RHF Final Energy:  -719.53662921970931

   => Energetics <=

    Nuclear Repulsion Energy =            380.0392581383059678
    One-Electron Energy =               -1744.8727791781698215
    Two-Electron Energy =                 645.2968918201545421
    Total Energy =                       -719.5366292197093117
  Basis Set: (AUG-CC-PVTZ AUX)
    Blend: AUG-CC-PVTZ-RI
    Molecular point group: c1

    Geometry (in Angstrom), charge = 0, multiplicity = 1:

       Center              X                  Y                   Z               Mass
    ------------   -----------------  -----------------  -----------------  -----------------
         S            2.238670462159    -0.239651941693    -0.289963108238    31.972071174400
         O           -2.274370537841    -0.660652941693    -0.559014108238    15.994914619570
         O           -0.612841537841    -1.491205941693     0.735507891762    15.994914619570
         N           -1.246745837841     1.815833758307     0.261322591762    14.003074004430
         C           -0.393624537841     0.738074058307    -0.256419108238    12.000000000000
         C            0.963566462159     0.839201058307     0.425393891762    12.000000000000
         C           -1.057683537841    -0.591370941693     0.044531891762    12.000000000000
         H           -0.250319537841     0.785538058307    -1.348928108238     1.007825032230
         H            1.341212462159     1.859248058307     0.304425891762     1.007825032230
         H            0.850859462159     0.647778058307     1.493832891762     1.007825032230
         H           -2.194697537841     1.702065058307    -0.164874108238     1.007825032230
         H           -0.907788537841     2.694311058307     0.020969891762     1.007825032230
         H            1.749632462159    -1.379185941693     0.215376891762     1.007825032230
         H           -2.655772537841    -1.524336941693    -0.296242108238     1.007825032230

  Basis Set: AUG-CC-PVTZ
    Blend: AUG-CC-PVTZ
  Basis Set: (AUG-CC-PVTZ AUX)
    Blend: AUG-CC-PVTZ-JKFIT
	 Reference Energy          =    -719.5366292197093117 [Eh]
	 Singles Energy            =      -0.0000000000000000 [Eh]
	 Same-Spin Energy          =      -0.3746642455130846 [Eh]
	 Opposite-Spin Energy      =      -1.1590635874953028 [Eh]
	 Correlation Energy        =      -1.5337278330083874 [Eh]
	 Total Energy              =    -721.0703570527176680 [Eh]

	 ================> DF-SCS-MP2 Energies <==================
	-----------------------------------------------------------
	 SCS Same-Spin Scale       =       0.3333333333333333 [-]
	 SCS Opposite-Spin Scale   =       1.2000000000000000 [-]
	 SCS Same-Spin Energy      =      -0.1248880818376949 [Eh]
	 SCS Opposite-Spin Energy  =      -1.3908763049943633 [Eh]
	 SCS Correlation Energy    =      -1.5157643868320583 [Eh]
	 SCS Total Energy          =    -721.0523936065413864 [Eh]
	-----------------------------------------------------------

  Dipole Moment: [D]
     X:    -2.0960      Y:     1.2284      Z:    -1.1673     Total:     2.6953

*** Psi4 exiting successfully. Buy a developer a beer!
