                               Psi4 1.4a3.dev225

  ==> Input File <==

--------------------------------------------------------------------------
#psi4
#
memory 32 gb

molecule  {
0 1
  S        2.2579050    -0.2727850    -0.2934720
  O       -2.2550500    -0.6937950    -0.5626610
  O       -0.5937490    -1.5240650     0.7322790
  N       -1.2606540     1.7474040     0.2743750
  C       -0.3743580     0.7050630    -0.2599560
  C        0.9828610     0.8061940     0.4218890
  C       -1.0297130    -0.6068164     0.0370924
  H       -0.2310980     0.7525420    -1.3524390
  H        1.3604840     1.8262480     0.3009370
  H        0.8701350     0.6147610     1.4903210
  H       -2.1753310     1.6691650    -0.1685200
  H       -0.8883350     2.6612490     0.0175910
  H        1.7689400    -1.4123290     0.2119310
  H       -2.6364810    -1.5574560    -0.2998170
units angstrom
no_reorient  #important for SAPT in psi4, default
symmetry c1  #important for SAPT in psi4, default
}

set PROPERTIES_ORIGIN ["COM"]
properties('MP2/aug-cc-pvtz', properties = ['dipole'])
--------------------------------------------------------------------------

    Molecular point group: c1
  Charge       = 0
  Multiplicity = 1
  Basis Set: AUG-CC-PVTZ
    Blend: AUG-CC-PVTZ
  Basis Set: (AUG-CC-PVTZ AUX)
    Blend: AUG-CC-PVTZ-JKFIT

    Orbital Energies [Eh]
    ---------------------

    Doubly Occupied:

       1A    -91.950606     2A    -20.626697     3A    -20.564869
       4A    -15.571432     5A    -11.403323     6A    -11.295575
       7A    -11.269516     8A     -8.952050     9A     -6.633414
      10A     -6.632478    11A     -6.631486    12A     -1.468369
      13A     -1.363288    14A     -1.219103    15A     -1.065263
      16A     -0.969367    17A     -0.880364    18A     -0.790790
      19A     -0.718232    20A     -0.716872    21A     -0.671791
      22A     -0.657529    23A     -0.620587    24A     -0.600602
      25A     -0.568803    26A     -0.558389    27A     -0.524648
      28A     -0.491734    29A     -0.475367    30A     -0.450501
      31A     -0.424970    32A     -0.359672

  @DF-RHF Final Energy:  -719.53658028708060

   => Energetics <=

    Nuclear Repulsion Energy =            380.2213928543048951
    One-Electron Energy =               -1745.2605743608939974
    Two-Electron Energy =                 645.5026012195085059
    Total Energy =                       -719.5365802870805965
  Basis Set: (AUG-CC-PVTZ AUX)
    Blend: AUG-CC-PVTZ-RI
    Molecular point group: c1

    Geometry (in Angstrom), charge = 0, multiplicity = 1:

       Center              X                  Y                   Z               Mass
    ------------   -----------------  -----------------  -----------------  -----------------
         S            2.241632863953    -0.237387046747    -0.291506081406    31.972071174400
         O           -2.271322136047    -0.658397046747    -0.560695081406    15.994914619570
         O           -0.610021136047    -1.488667046747     0.734244918594    15.994914619570
         N           -1.276926136047     1.782801953253     0.276340918594    14.003074004430
         C           -0.390630136047     0.740460953253    -0.257990081406    12.000000000000
         C            0.966588863953     0.841591953253     0.423854918594    12.000000000000
         C           -1.045985136047    -0.571418446747     0.039058318594    12.000000000000
         H           -0.247370136047     0.787939953253    -1.350473081406     1.007825032230
         H            1.344211863953     1.861645953253     0.302902918594     1.007825032230
         H            0.853862863953     0.650158953253     1.492286918594     1.007825032230
         H           -2.191603136047     1.704562953253    -0.166554081406     1.007825032230
         H           -0.904607136047     2.696646953253     0.019556918594     1.007825032230
         H            1.752667863953    -1.376931046747     0.213896918594     1.007825032230
         H           -2.652753136047    -1.522058046747    -0.297851081406     1.007825032230

  Basis Set: AUG-CC-PVTZ
    Blend: AUG-CC-PVTZ
  Basis Set: (AUG-CC-PVTZ AUX)
    Blend: AUG-CC-PVTZ-JKFIT
	 Reference Energy          =    -719.5365802870805965 [Eh]
	 Singles Energy            =      -0.0000000000000000 [Eh]
	 Same-Spin Energy          =      -0.3752164881522453 [Eh]
	 Opposite-Spin Energy      =      -1.1602544989323929 [Eh]
	 Correlation Energy        =      -1.5354709870846381 [Eh]
	 Total Energy              =    -721.0720512741652328 [Eh]

	 ================> DF-SCS-MP2 Energies <==================
	-----------------------------------------------------------
	 SCS Same-Spin Scale       =       0.3333333333333333 [-]
	 SCS Opposite-Spin Scale   =       1.2000000000000000 [-]
	 SCS Same-Spin Energy      =      -0.1250721627174151 [Eh]
	 SCS Opposite-Spin Energy  =      -1.3923053987188714 [Eh]
	 SCS Correlation Energy    =      -1.5173775614362865 [Eh]
	 SCS Total Energy          =    -721.0539578485169159 [Eh]
	-----------------------------------------------------------

  Dipole Moment: [D]
     X:    -1.9663      Y:     1.3661      Z:    -1.2167     Total:     2.6858

*** Psi4 exiting successfully. Buy a developer a beer!
