                               Psi4 1.3.2 release

  ==> Input File <==

--------------------------------------------------------------------------
#psi4
#
memory 32 gb

molecule  {
0 1
  S        2.2579180    -0.2726900    -0.2934460
  O       -2.2551230    -0.6936910    -0.5624970
  O       -0.5935940    -1.5242440     0.7320250
  N       -1.2606890     1.7473760     0.2743420
  C       -0.3158180     0.7797342    -0.2986557
  C        0.9828140     0.8061630     0.4219110
  C       -1.0384360    -0.6244090     0.0410490
  H       -0.2310720     0.7525000    -1.3524110
  H        1.3604600     1.8262100     0.3009430
  H        0.8701070     0.6147400     1.4903500
  H       -2.1754500     1.6690270    -0.1683570
  H       -0.8885410     2.6612730     0.0174870
  H        1.7688800    -1.4122240     0.2118940
  H       -2.6365250    -1.5573750    -0.2997250
units angstrom
no_reorient  #important for SAPT in psi4, default
symmetry c1  #important for SAPT in psi4, default
}

set PROPERTIES_ORIGIN ["COM"]
properties('MP2/aug-cc-pvtz', properties = ['dipole'])
--------------------------------------------------------------------------

    Molecular point group: c1
  Charge       = 0
  Multiplicity = 1
  Basis Set: AUG-CC-PVTZ
    Blend: AUG-CC-PVTZ
  Basis Set: (AUG-CC-PVTZ AUX)
    Blend: AUG-CC-PVTZ-JKFIT

    Orbital Energies [Eh]
    ---------------------

    Doubly Occupied:

       1A    -91.951126     2A    -20.626760     3A    -20.562420
       4A    -15.570984     5A    -11.399015     6A    -11.296557
       7A    -11.267282     8A     -8.952546     9A     -6.633905
      10A     -6.632972    11A     -6.631978    12A     -1.469187
      13A     -1.367138    14A     -1.217904    15A     -1.068003
      16A     -0.951458    17A     -0.877138    18A     -0.795164
      19A     -0.718794    20A     -0.711993    21A     -0.671597
      22A     -0.656034    23A     -0.622931    24A     -0.601827
      25A     -0.575438    26A     -0.553512    27A     -0.525032
      28A     -0.493843    29A     -0.467777    30A     -0.446539
      31A     -0.424566    32A     -0.360905

  @DF-RHF Final Energy:  -719.52884109117076

   => Energetics <=

    Nuclear Repulsion Energy =            379.3126091782475555
    One-Electron Energy =               -1743.4782479136488291
    Two-Electron Energy =                 644.6367976442304553
    Total Energy =                       -719.5288410911707615
  Basis Set: (AUG-CC-PVTZ AUX)
    Blend: AUG-CC-PVTZ-RI
    Molecular point group: c1

    Geometry (in Angstrom), charge = 0, multiplicity = 1:

       Center              X                  Y                   Z               Mass
    ------------   -----------------  -----------------  -----------------  -----------------
         S            2.236704368423    -0.242960440684    -0.288029857900    31.972071174400
         O           -2.276336631577    -0.663961440684    -0.557080857900    15.994914619570
         O           -0.614807631577    -1.494514440684     0.737441142100    15.994914619570
         N           -1.281902631577     1.777105559316     0.279758142100    14.003074004430
         C           -0.337031631577     0.809463759316    -0.293239557900    12.000000000000
         C            0.961600368423     0.835892559316     0.427327142100    12.000000000000
         C           -1.059649631577    -0.594679440684     0.046465142100    12.000000000000
         H           -0.252285631577     0.782229559316    -1.346994857900     1.007825032230
         H            1.339246368423     1.855939559316     0.306359142100     1.007825032230
         H            0.848893368423     0.644469559316     1.495766142100     1.007825032230
         H           -2.196663631577     1.698756559316    -0.162940857900     1.007825032230
         H           -0.909754631577     2.691002559316     0.022903142100     1.007825032230
         H            1.747666368423    -1.382494440684     0.217310142100     1.007825032230
         H           -2.657738631577    -1.527645440684    -0.294308857900     1.007825032230

  Basis Set: AUG-CC-PVTZ
    Blend: AUG-CC-PVTZ
  Basis Set: (AUG-CC-PVTZ AUX)
    Blend: AUG-CC-PVTZ-JKFIT
	 Reference Energy          =    -719.5288410911707615 [Eh]
	 Singles Energy            =      -0.0000000000000000 [Eh]
	 Same-Spin Energy          =      -0.3750059420022112 [Eh]
	 Opposite-Spin Energy      =      -1.1599133117997154 [Eh]
	 Correlation Energy        =      -1.5349192538019265 [Eh]
	 Total Energy              =    -721.0637603449727067 [Eh]

	 ================> DF-SCS-MP2 Energies <==================
	-----------------------------------------------------------
	 SCS Same-Spin Scale       =       0.3333333333333333 [-]
	 SCS Opposite-Spin Scale   =       1.2000000000000000 [-]
	 SCS Same-Spin Energy      =      -0.1250019806674037 [Eh]
	 SCS Opposite-Spin Energy  =      -1.3918959741596584 [Eh]
	 SCS Correlation Energy    =      -1.5168979548270620 [Eh]
	 SCS Total Energy          =    -721.0457390459978342 [Eh]
	-----------------------------------------------------------

  Dipole Moment: [D]
     X:    -1.9869      Y:     1.3067      Z:    -1.2337     Total:     2.6790

*** Psi4 exiting successfully. Buy a developer a beer!
