                               Psi4 1.4a3.dev225

  ==> Input File <==

--------------------------------------------------------------------------
#psi4
#
memory 32 gb

molecule  {
0 1
  S        2.2579050    -0.2727850    -0.2934720
  O       -2.2550500    -0.6937950    -0.5626610
  O       -0.5937490    -1.5240650     0.7322790
  N       -1.2606540     1.7474040     0.2743750
  C       -0.3743580     0.7050630    -0.2599560
  C        1.0006930     0.8075227     0.4308475
  C       -1.0384730    -0.6243520     0.0410630
  H       -0.2310980     0.7525420    -1.3524390
  H        1.3604840     1.8262480     0.3009370
  H        0.8701350     0.6147610     1.4903210
  H       -2.1753310     1.6691650    -0.1685200
  H       -0.8883350     2.6612490     0.0175910
  H        1.7689400    -1.4123290     0.2119310
  H       -2.6364810    -1.5574560    -0.2998170
units angstrom
no_reorient  #important for SAPT in psi4, default
symmetry c1  #important for SAPT in psi4, default
}

set PROPERTIES_ORIGIN ["COM"]
properties('MP2/aug-cc-pvtz', properties = ['dipole'])
--------------------------------------------------------------------------

    Molecular point group: c1
  Charge       = 0
  Multiplicity = 1
  Basis Set: AUG-CC-PVTZ
    Blend: AUG-CC-PVTZ
  Basis Set: (AUG-CC-PVTZ AUX)
    Blend: AUG-CC-PVTZ-JKFIT

    Orbital Energies [Eh]
    ---------------------

    Doubly Occupied:

       1A    -91.950146     2A    -20.628215     3A    -20.565345
       4A    -15.569825     5A    -11.401294     6A    -11.295271
       7A    -11.268096     8A     -8.951709     9A     -6.633088
      10A     -6.632151    11A     -6.631153    12A     -1.473393
      13A     -1.370584    14A     -1.215351    15A     -1.063023
      16A     -0.964702    17A     -0.878451    18A     -0.791508
      19A     -0.720124    20A     -0.715556    21A     -0.671274
      22A     -0.656941    23A     -0.624188    24A     -0.602195
      25A     -0.569097    26A     -0.553458    27A     -0.527142
      28A     -0.495279    29A     -0.475167    30A     -0.450420
      31A     -0.422388    32A     -0.358621

  @DF-RHF Final Energy:  -719.53859480868630

   => Energetics <=

    Nuclear Repulsion Energy =            379.9675095103307854
    One-Electron Energy =               -1744.7619026653615038
    Two-Electron Energy =                 645.2557983463444771
    Total Energy =                       -719.5385948086862982
  Basis Set: (AUG-CC-PVTZ AUX)
    Blend: AUG-CC-PVTZ-RI
    Molecular point group: c1

    Geometry (in Angstrom), charge = 0, multiplicity = 1:

       Center              X                  Y                   Z               Mass
    ------------   -----------------  -----------------  -----------------  -----------------
         S            2.240733308300    -0.235780013180    -0.292788096949    31.972071174400
         O           -2.272221691700    -0.656790013180    -0.561977096949    15.994914619570
         O           -0.610920691700    -1.487060013180     0.732962903051    15.994914619570
         N           -1.277825691700     1.784408986820     0.275058903051    14.003074004430
         C           -0.391529691700     0.742067986820    -0.259272096949    12.000000000000
         C            0.983521308300     0.844527686820     0.431531403051    12.000000000000
         C           -1.055644691700    -0.587347013180     0.041746903051    12.000000000000
         H           -0.248269691700     0.789546986820    -1.351755096949     1.007825032230
         H            1.343312308300     1.863252986820     0.301620903051     1.007825032230
         H            0.852963308300     0.651765986820     1.491004903051     1.007825032230
         H           -2.192502691700     1.706169986820    -0.167836096949     1.007825032230
         H           -0.905506691700     2.698253986820     0.018274903051     1.007825032230
         H            1.751768308300    -1.375324013180     0.212614903051     1.007825032230
         H           -2.653652691700    -1.520451013180    -0.299133096949     1.007825032230

  Basis Set: AUG-CC-PVTZ
    Blend: AUG-CC-PVTZ
  Basis Set: (AUG-CC-PVTZ AUX)
    Blend: AUG-CC-PVTZ-JKFIT
	 Reference Energy          =    -719.5385948086862982 [Eh]
	 Singles Energy            =      -0.0000000000000000 [Eh]
	 Same-Spin Energy          =      -0.3746886063376900 [Eh]
	 Opposite-Spin Energy      =      -1.1592708311327189 [Eh]
	 Correlation Energy        =      -1.5339594374704089 [Eh]
	 Total Energy              =    -721.0725542461567557 [Eh]

	 ================> DF-SCS-MP2 Energies <==================
	-----------------------------------------------------------
	 SCS Same-Spin Scale       =       0.3333333333333333 [-]
	 SCS Opposite-Spin Scale   =       1.2000000000000000 [-]
	 SCS Same-Spin Energy      =      -0.1248962021125633 [Eh]
	 SCS Opposite-Spin Energy  =      -1.3911249973592625 [Eh]
	 SCS Correlation Energy    =      -1.5160211994718258 [Eh]
	 SCS Total Energy          =    -721.0546160081581775 [Eh]
	-----------------------------------------------------------

  Dipole Moment: [D]
     X:    -2.0134      Y:     1.2808      Z:    -1.2079     Total:     2.6746

*** Psi4 exiting successfully. Buy a developer a beer!
