                               Psi4 1.3.2 release

  ==> Input File <==

--------------------------------------------------------------------------
#psi4
#
memory 32 gb

molecule  {
0 1
  S        2.2579180    -0.2726900    -0.2934460
  O       -2.2551230    -0.6936910    -0.5624970
  O       -0.5935940    -1.5242440     0.7320250
  N       -1.2606890     1.7473760     0.2743420
  C       -0.3743770     0.7050360    -0.2599020
  C        0.9828140     0.8061630     0.4219110
  C       -1.1260291    -0.7997703     0.0807461
  H       -0.2310720     0.7525000    -1.3524110
  H        1.3604600     1.8262100     0.3009430
  H        0.8701070     0.6147400     1.4903500
  H       -2.1754500     1.6690270    -0.1683570
  H       -0.8885410     2.6612730     0.0174870
  H        1.7688800    -1.4122240     0.2118940
  H       -2.6365250    -1.5573750    -0.2997250
units angstrom
no_reorient  #important for SAPT in psi4, default
symmetry c1  #important for SAPT in psi4, default
}

set PROPERTIES_ORIGIN ["COM"]
properties('MP2/aug-cc-pvtz', properties = ['dipole'])
--------------------------------------------------------------------------

    Molecular point group: c1
  Charge       = 0
  Multiplicity = 1
  Basis Set: AUG-CC-PVTZ
    Blend: AUG-CC-PVTZ
  Basis Set: (AUG-CC-PVTZ AUX)
    Blend: AUG-CC-PVTZ-JKFIT

    Orbital Energies [Eh]
    ---------------------

    Doubly Occupied:

       1A    -91.945135     2A    -20.647952     3A    -20.579391
       4A    -15.555574     5A    -11.393816     6A    -11.276615
       7A    -11.257800     8A     -8.946529     9A     -6.627912
      10A     -6.626949    11A     -6.625965    12A     -1.529064
      13A     -1.447616    14A     -1.193851    15A     -1.049182
      16A     -0.927614    17A     -0.868992    18A     -0.791082
      19A     -0.750948    20A     -0.721995    21A     -0.690726
      22A     -0.651948    23A     -0.644804    24A     -0.613541
      25A     -0.569719    26A     -0.545456    27A     -0.540815
      28A     -0.514539    29A     -0.454633    30A     -0.431875
      31A     -0.392659    32A     -0.352853

  @DF-RHF Final Energy:  -719.49808110360595

   => Energetics <=

    Nuclear Repulsion Energy =            379.7845975966919809
    One-Electron Energy =               -1744.2302594364373363
    Two-Electron Energy =                 644.9475807361393436
    Total Energy =                       -719.4980811036059549
  Basis Set: (AUG-CC-PVTZ AUX)
    Blend: AUG-CC-PVTZ-RI
    Molecular point group: c1

    Geometry (in Angstrom), charge = 0, multiplicity = 1:

       Center              X                  Y                   Z               Mass
    ------------   -----------------  -----------------  -----------------  -----------------
         S            2.251196426167    -0.218165198513    -0.295808832843    31.972071174400
         O           -2.261844573833    -0.639166198513    -0.564859832843    15.994914619570
         O           -0.600315573833    -1.469719198513     0.729662167157    15.994914619570
         N           -1.267410573833     1.801900801487     0.271979167157    14.003074004430
         C           -0.381098573833     0.759560801487    -0.262264832843    12.000000000000
         C            0.976092426167     0.860687801487     0.419548167157    12.000000000000
         C           -1.132750673833    -0.745245498513     0.078383267157    12.000000000000
         H           -0.237793573833     0.807024801487    -1.354773832843     1.007825032230
         H            1.353738426167     1.880734801487     0.298580167157     1.007825032230
         H            0.863385426167     0.669264801487     1.487987167157     1.007825032230
         H           -2.182171573833     1.723551801487    -0.170719832843     1.007825032230
         H           -0.895262573833     2.715797801487     0.015124167157     1.007825032230
         H            1.762158426167    -1.357699198513     0.209531167157     1.007825032230
         H           -2.643246573833    -1.502850198513    -0.302087832843     1.007825032230

  Basis Set: AUG-CC-PVTZ
    Blend: AUG-CC-PVTZ
  Basis Set: (AUG-CC-PVTZ AUX)
    Blend: AUG-CC-PVTZ-JKFIT
	 Reference Energy          =    -719.4980811036059549 [Eh]
	 Singles Energy            =      -0.0000000000000000 [Eh]
	 Same-Spin Energy          =      -0.3733716220771193 [Eh]
	 Opposite-Spin Energy      =      -1.1562065634922618 [Eh]
	 Correlation Energy        =      -1.5295781855693811 [Eh]
	 Total Energy              =    -721.0276592891752898 [Eh]

	 ================> DF-SCS-MP2 Energies <==================
	-----------------------------------------------------------
	 SCS Same-Spin Scale       =       0.3333333333333333 [-]
	 SCS Opposite-Spin Scale   =       1.2000000000000000 [-]
	 SCS Same-Spin Energy      =      -0.1244572073590398 [Eh]
	 SCS Opposite-Spin Energy  =      -1.3874478761907141 [Eh]
	 SCS Correlation Energy    =      -1.5119050835497538 [Eh]
	 SCS Total Energy          =    -721.0099861871557323 [Eh]
	-----------------------------------------------------------

  Dipole Moment: [D]
     X:    -2.6126      Y:     0.2888      Z:    -1.0230     Total:     2.8205

*** Psi4 exiting successfully. Buy a developer a beer!
