                               Psi4 1.3.2 release

  ==> Input File <==

--------------------------------------------------------------------------
#psi4
#
memory 32 gb

molecule  {
0 1
  S        2.2579180    -0.2726900    -0.2934460
  O       -2.2551230    -0.6936910    -0.5624970
  O       -0.5935940    -1.5242440     0.7320250
  N       -1.2606890     1.7473760     0.2743420
  C       -0.3743770     0.7050360    -0.2599020
  C        0.9943969     0.8079630     0.3980699
  C       -1.0384360    -0.6244090     0.0410490
  H       -0.2310720     0.7525000    -1.3524110
  H        1.3604600     1.8262100     0.3009430
  H        0.8701070     0.6147400     1.4903500
  H       -2.1754500     1.6690270    -0.1683570
  H       -0.8885410     2.6612730     0.0174870
  H        1.7688800    -1.4122240     0.2118940
  H       -2.6365250    -1.5573750    -0.2997250
units angstrom
no_reorient  #important for SAPT in psi4, default
symmetry c1  #important for SAPT in psi4, default
}

set PROPERTIES_ORIGIN ["COM"]
properties('MP2/aug-cc-pvtz', properties = ['dipole'])
--------------------------------------------------------------------------

    Molecular point group: c1
  Charge       = 0
  Multiplicity = 1
  Basis Set: AUG-CC-PVTZ
    Blend: AUG-CC-PVTZ
  Basis Set: (AUG-CC-PVTZ AUX)
    Blend: AUG-CC-PVTZ-JKFIT

    Orbital Energies [Eh]
    ---------------------

    Doubly Occupied:

       1A    -91.950421     2A    -20.628378     3A    -20.565548
       4A    -15.570146     5A    -11.401572     6A    -11.294603
       7A    -11.268788     8A     -8.952085     9A     -6.633475
      10A     -6.632544    11A     -6.631535    12A     -1.473562
      13A     -1.370749    14A     -1.216385    15A     -1.065402
      16A     -0.965749    17A     -0.879020    18A     -0.790268
      19A     -0.719970    20A     -0.715470    21A     -0.671958
      22A     -0.657537    23A     -0.622486    24A     -0.603544
      25A     -0.567978    26A     -0.553540    27A     -0.527992
      28A     -0.495752    29A     -0.474998    30A     -0.449811
      31A     -0.422476    32A     -0.358841

  @DF-RHF Final Energy:  -719.53788995805644

   => Energetics <=

    Nuclear Repulsion Energy =            380.2954577026293919
    One-Electron Energy =               -1745.4015229239098517
    Two-Electron Energy =                 645.5681752632240205
    Total Energy =                       -719.5378899580564394
  Basis Set: (AUG-CC-PVTZ AUX)
    Blend: AUG-CC-PVTZ-RI
    Molecular point group: c1

    Geometry (in Angstrom), charge = 0, multiplicity = 1:

       Center              X                  Y                   Z               Mass
    ------------   -----------------  -----------------  -----------------  -----------------
         S            2.241362394916    -0.235732046951    -0.289508552085    31.972071174400
         O           -2.271678605084    -0.656733046951    -0.558559552085    15.994914619570
         O           -0.610149605084    -1.487286046951     0.735962447915    15.994914619570
         N           -1.277244605084     1.784333953049     0.278279447915    14.003074004430
         C           -0.390932605084     0.741993953049    -0.255964552085    12.000000000000
         C            0.977841294916     0.844920953049     0.402007347915    12.000000000000
         C           -1.054991605084    -0.587451046951     0.044986447915    12.000000000000
         H           -0.247627605084     0.789457953049    -1.348473552085     1.007825032230
         H            1.343904394916     1.863167953049     0.304880447915     1.007825032230
         H            0.853551394916     0.651697953049     1.494287447915     1.007825032230
         H           -2.192005605084     1.705984953049    -0.164419552085     1.007825032230
         H           -0.905096605084     2.698230953049     0.021424447915     1.007825032230
         H            1.752324394916    -1.375266046951     0.215831447915     1.007825032230
         H           -2.653080605084    -1.520417046951    -0.295787552085     1.007825032230

  Basis Set: AUG-CC-PVTZ
    Blend: AUG-CC-PVTZ
  Basis Set: (AUG-CC-PVTZ AUX)
    Blend: AUG-CC-PVTZ-JKFIT
	 Reference Energy          =    -719.5378899580564394 [Eh]
	 Singles Energy            =      -0.0000000000000000 [Eh]
	 Same-Spin Energy          =      -0.3748948100251565 [Eh]
	 Opposite-Spin Energy      =      -1.1594568307427773 [Eh]
	 Correlation Energy        =      -1.5343516407679338 [Eh]
	 Total Energy              =    -721.0722415988243483 [Eh]

	 ================> DF-SCS-MP2 Energies <==================
	-----------------------------------------------------------
	 SCS Same-Spin Scale       =       0.3333333333333333 [-]
	 SCS Opposite-Spin Scale   =       1.2000000000000000 [-]
	 SCS Same-Spin Energy      =      -0.1249649366750522 [Eh]
	 SCS Opposite-Spin Energy  =      -1.3913481968913326 [Eh]
	 SCS Correlation Energy    =      -1.5163131335663849 [Eh]
	 SCS Total Energy          =    -721.0542030916228669 [Eh]
	-----------------------------------------------------------

  Dipole Moment: [D]
     X:    -2.0072      Y:     1.2766      Z:    -1.2086     Total:     2.6682

*** Psi4 exiting successfully. Buy a developer a beer!
