                               Psi4 1.4a3.dev225

  ==> Input File <==

--------------------------------------------------------------------------
#psi4
#
memory 32 gb

molecule  {
0 1
  S        2.2579050    -0.2727850    -0.2934720
  O       -2.2550500    -0.6937950    -0.5626610
  O       -0.5937490    -1.5240650     0.7322790
  N       -1.2606540     1.7474040     0.2743750
  C       -0.3743580     0.7050630    -0.2599560
  C        0.9828610     0.8061940     0.4218890
  C       -1.0384730    -0.6243520     0.0410630
  H       -0.2310980     0.7525420    -1.3524390
  H        1.3604840     1.8262480     0.3009370
  H        0.8701350     0.6147610     1.4903210
  H       -2.1753310     1.6691650    -0.1685200
  H       -0.8883350     2.6612490     0.0175910
  H        1.7762431    -1.3953089     0.2043824
  H       -2.6364810    -1.5574560    -0.2998170
units angstrom
no_reorient  #important for SAPT in psi4, default
symmetry c1  #important for SAPT in psi4, default
}

set PROPERTIES_ORIGIN ["COM"]
properties('MP2/aug-cc-pvtz', properties = ['dipole'])
--------------------------------------------------------------------------

    Molecular point group: c1
  Charge       = 0
  Multiplicity = 1
  Basis Set: AUG-CC-PVTZ
    Blend: AUG-CC-PVTZ
  Basis Set: (AUG-CC-PVTZ AUX)
    Blend: AUG-CC-PVTZ-JKFIT

    Orbital Energies [Eh]
    ---------------------

    Doubly Occupied:

       1A    -91.948803     2A    -20.628330     3A    -20.565561
       4A    -15.570015     5A    -11.401446     6A    -11.294789
       7A    -11.268486     8A     -8.950766     9A     -6.632172
      10A     -6.631200    11A     -6.630182    12A     -1.473553
      13A     -1.370752    14A     -1.216605    15A     -1.064165
      16A     -0.965566    17A     -0.880848    18A     -0.791320
      19A     -0.720306    20A     -0.716338    21A     -0.672072
      22A     -0.657415    23A     -0.623735    24A     -0.602806
      25A     -0.568186    26A     -0.557204    27A     -0.526089
      28A     -0.495322    29A     -0.474601    30A     -0.450767
      31A     -0.423013    32A     -0.359312

  @DF-RHF Final Energy:  -719.53881668600127

   => Energetics <=

    Nuclear Repulsion Energy =            380.2719156416236501
    One-Electron Energy =               -1745.3580106552449251
    Two-Electron Energy =                 645.5472783276198925
    Total Energy =                       -719.5388166860012689
  Basis Set: (AUG-CC-PVTZ AUX)
    Blend: AUG-CC-PVTZ-RI
    Molecular point group: c1

    Geometry (in Angstrom), charge = 0, multiplicity = 1:

       Center              X                  Y                   Z               Mass
    ------------   -----------------  -----------------  -----------------  -----------------
         S            2.242440663947    -0.235790002317    -0.291836932627    31.972071174400
         O           -2.270514336053    -0.656800002317    -0.561025932627    15.994914619570
         O           -0.609213336053    -1.487070002317     0.733914067373    15.994914619570
         N           -1.276118336053     1.784398997683     0.276010067373    14.003074004430
         C           -0.389822336053     0.742057997683    -0.258320932627    12.000000000000
         C            0.967396663947     0.843188997683     0.423524067373    12.000000000000
         C           -1.053937336053    -0.587357002317     0.042698067373    12.000000000000
         H           -0.246562336053     0.789536997683    -1.350803932627     1.007825032230
         H            1.345019663947     1.863242997683     0.302572067373     1.007825032230
         H            0.854670663947     0.651755997683     1.491956067373     1.007825032230
         H           -2.190795336053     1.706159997683    -0.166884932627     1.007825032230
         H           -0.903799336053     2.698243997683     0.019226067373     1.007825032230
         H            1.760778763947    -1.358313902317     0.206017467373     1.007825032230
         H           -2.651945336053    -1.520461002317    -0.298181932627     1.007825032230

  Basis Set: AUG-CC-PVTZ
    Blend: AUG-CC-PVTZ
  Basis Set: (AUG-CC-PVTZ AUX)
    Blend: AUG-CC-PVTZ-JKFIT
	 Reference Energy          =    -719.5388166860012689 [Eh]
	 Singles Energy            =      -0.0000000000000000 [Eh]
	 Same-Spin Energy          =      -0.3747656823210743 [Eh]
	 Opposite-Spin Energy      =      -1.1592835413695768 [Eh]
	 Correlation Energy        =      -1.5340492236906511 [Eh]
	 Total Energy              =    -721.0728659096919273 [Eh]

	 ================> DF-SCS-MP2 Energies <==================
	-----------------------------------------------------------
	 SCS Same-Spin Scale       =       0.3333333333333333 [-]
	 SCS Opposite-Spin Scale   =       1.2000000000000000 [-]
	 SCS Same-Spin Energy      =      -0.1249218941070248 [Eh]
	 SCS Opposite-Spin Energy  =      -1.3911402496434921 [Eh]
	 SCS Correlation Energy    =      -1.5160621437505168 [Eh]
	 SCS Total Energy          =    -721.0548788297518286 [Eh]
	-----------------------------------------------------------

  Dipole Moment: [D]
     X:    -2.0187      Y:     1.2868      Z:    -1.2086     Total:     2.6817

*** Psi4 exiting successfully. Buy a developer a beer!
