                               Psi4 1.4a3.dev225

  ==> Input File <==

--------------------------------------------------------------------------
#psi4
#
memory 32 gb

molecule  {
0 1
  S        2.2579050    -0.2727850    -0.2934720
  O       -2.2550500    -0.6937950    -0.5626610
  O       -0.5937490    -1.5240650     0.7322790
  N       -1.2606540     1.7474040     0.2743750
  C       -0.3864259     0.7192557    -0.2526805
  C        0.9828610     0.8061940     0.4218890
  C       -1.0384730    -0.6243520     0.0410630
  H       -0.2310980     0.7525420    -1.3524390
  H        1.3604840     1.8262480     0.3009370
  H        0.8701350     0.6147610     1.4903210
  H       -2.1753310     1.6691650    -0.1685200
  H       -0.8883350     2.6612490     0.0175910
  H        1.7689400    -1.4123290     0.2119310
  H       -2.6364810    -1.5574560    -0.2998170
units angstrom
no_reorient  #important for SAPT in psi4, default
symmetry c1  #important for SAPT in psi4, default
}

set PROPERTIES_ORIGIN ["COM"]
properties('MP2/aug-cc-pvtz', properties = ['dipole'])
--------------------------------------------------------------------------

    Molecular point group: c1
  Charge       = 0
  Multiplicity = 1
  Basis Set: AUG-CC-PVTZ
    Blend: AUG-CC-PVTZ
  Basis Set: (AUG-CC-PVTZ AUX)
    Blend: AUG-CC-PVTZ-JKFIT

    Orbital Energies [Eh]
    ---------------------

    Doubly Occupied:

       1A    -91.950310     2A    -20.628016     3A    -20.565543
       4A    -15.570196     5A    -11.401175     6A    -11.295052
       7A    -11.268194     8A     -8.951696     9A     -6.633063
      10A     -6.632121    11A     -6.631133    12A     -1.473270
      13A     -1.370522    14A     -1.221993    15A     -1.062302
      16A     -0.963353    17A     -0.878791    18A     -0.790206
      19A     -0.720441    20A     -0.715069    21A     -0.674972
      22A     -0.658225    23A     -0.623387    24A     -0.605226
      25A     -0.566203    26A     -0.554359    27A     -0.524742
      28A     -0.495510    29A     -0.475524    30A     -0.449782
      31A     -0.421648    32A     -0.358970

  @DF-RHF Final Energy:  -719.53838329323298

   => Energetics <=

    Nuclear Repulsion Energy =            380.1329298467475155
    One-Electron Energy =               -1745.0806375219528945
    Two-Electron Energy =                 645.4093243819725103
    Total Energy =                       -719.5383832932329824
  Basis Set: (AUG-CC-PVTZ AUX)
    Blend: AUG-CC-PVTZ-RI
    Molecular point group: c1

    Geometry (in Angstrom), charge = 0, multiplicity = 1:

       Center              X                  Y                   Z               Mass
    ------------   -----------------  -----------------  -----------------  -----------------
         S            2.243698103724    -0.237055573578    -0.292621215096    31.972071174400
         O           -2.269256896276    -0.658065573578    -0.561810215096    15.994914619570
         O           -0.607955896276    -1.488335573578     0.733129784904    15.994914619570
         N           -1.274860896276     1.783133426422     0.275225784904    14.003074004430
         C           -0.400632796276     0.754985126422    -0.251829715096    12.000000000000
         C            0.968654103724     0.841923426422     0.422739784904    12.000000000000
         C           -1.052679896276    -0.588622573578     0.041913784904    12.000000000000
         H           -0.245304896276     0.788271426422    -1.351588215096     1.007825032230
         H            1.346277103724     1.861977426422     0.301787784904     1.007825032230
         H            0.855928103724     0.650490426422     1.491171784904     1.007825032230
         H           -2.189537896276     1.704894426422    -0.167669215096     1.007825032230
         H           -0.902541896276     2.696978426422     0.018441784904     1.007825032230
         H            1.754733103724    -1.376599573578     0.212781784904     1.007825032230
         H           -2.650687896276    -1.521726573578    -0.298966215096     1.007825032230

  Basis Set: AUG-CC-PVTZ
    Blend: AUG-CC-PVTZ
  Basis Set: (AUG-CC-PVTZ AUX)
    Blend: AUG-CC-PVTZ-JKFIT
	 Reference Energy          =    -719.5383832932329824 [Eh]
	 Singles Energy            =      -0.0000000000000000 [Eh]
	 Same-Spin Energy          =      -0.3748363778098056 [Eh]
	 Opposite-Spin Energy      =      -1.1593357490633420 [Eh]
	 Correlation Energy        =      -1.5341721268731476 [Eh]
	 Total Energy              =    -721.0725554201061414 [Eh]

	 ================> DF-SCS-MP2 Energies <==================
	-----------------------------------------------------------
	 SCS Same-Spin Scale       =       0.3333333333333333 [-]
	 SCS Opposite-Spin Scale   =       1.2000000000000000 [-]
	 SCS Same-Spin Energy      =      -0.1249454592699352 [Eh]
	 SCS Opposite-Spin Energy  =      -1.3912028988760103 [Eh]
	 SCS Correlation Energy    =      -1.5161483581459456 [Eh]
	 SCS Total Energy          =    -721.0545316513789658 [Eh]
	-----------------------------------------------------------

  Dipole Moment: [D]
     X:    -2.0513      Y:     1.3080      Z:    -1.1853     Total:     2.7062

*** Psi4 exiting successfully. Buy a developer a beer!
