                               Psi4 1.3.2 release

  ==> Input File <==

--------------------------------------------------------------------------
#psi4
#
memory 32 gb

molecule  {
0 1
  S        2.2579180    -0.2726900    -0.2934460
  O       -2.2551230    -0.6936910    -0.5624970
  O       -0.5935940    -1.5242440     0.7320250
  N       -1.2606890     1.7473760     0.2743420
  C       -0.3743770     0.7050360    -0.2599020
  C        0.9304179     0.7027192     0.4732808
  C       -1.0384360    -0.6244090     0.0410490
  H       -0.2310720     0.7525000    -1.3524110
  H        1.3604600     1.8262100     0.3009430
  H        0.8701070     0.6147400     1.4903500
  H       -2.1754500     1.6690270    -0.1683570
  H       -0.8885410     2.6612730     0.0174870
  H        1.7688800    -1.4122240     0.2118940
  H       -2.6365250    -1.5573750    -0.2997250
units angstrom
no_reorient  #important for SAPT in psi4, default
symmetry c1  #important for SAPT in psi4, default
}

set PROPERTIES_ORIGIN ["COM"]
properties('MP2/aug-cc-pvtz', properties = ['dipole'])
--------------------------------------------------------------------------

    Molecular point group: c1
  Charge       = 0
  Multiplicity = 1
  Basis Set: AUG-CC-PVTZ
    Blend: AUG-CC-PVTZ
  Basis Set: (AUG-CC-PVTZ AUX)
    Blend: AUG-CC-PVTZ-JKFIT

    Orbital Energies [Eh]
    ---------------------

    Doubly Occupied:

       1A    -91.952735     2A    -20.627221     3A    -20.565902
       4A    -15.570427     5A    -11.399887     6A    -11.294742
       7A    -11.270912     8A     -8.953926     9A     -6.635253
      10A     -6.634228    11A     -6.633243    12A     -1.473223
      13A     -1.371106    14A     -1.217862    15A     -1.067027
      16A     -0.966447    17A     -0.877726    18A     -0.791211
      19A     -0.722991    20A     -0.716618    21A     -0.672612
      22A     -0.654769    23A     -0.624776    24A     -0.600959
      25A     -0.579398    26A     -0.555614    27A     -0.501949
      28A     -0.489225    29A     -0.478440    30A     -0.452536
      31A     -0.425467    32A     -0.362318

  @DF-RHF Final Energy:  -719.52162822050184

   => Energetics <=

    Nuclear Repulsion Energy =            381.1558966979491174
    One-Electron Energy =               -1747.0735471540740491
    Two-Electron Energy =                 646.3960222356230361
    Total Energy =                       -719.5216282205018388
  Basis Set: (AUG-CC-PVTZ AUX)
    Blend: AUG-CC-PVTZ-RI
    Molecular point group: c1

    Geometry (in Angstrom), charge = 0, multiplicity = 1:

       Center              X                  Y                   Z               Mass
    ------------   -----------------  -----------------  -----------------  -----------------
         S            2.247706384242    -0.225296348614    -0.296966267067    31.972071174400
         O           -2.265334615758    -0.646297348614    -0.566017267067    15.994914619570
         O           -0.603805615758    -1.476850348614     0.728504732933    15.994914619570
         N           -1.270900615758     1.794769651386     0.270821732933    14.003074004430
         C           -0.384588615758     0.752429651386    -0.263422267067    12.000000000000
         C            0.920206284242     0.750112851386     0.469760532933    12.000000000000
         C           -1.048647615758    -0.577015348614     0.037528732933    12.000000000000
         H           -0.241283615758     0.799893651386    -1.355931267067     1.007825032230
         H            1.350248384242     1.873603651386     0.297422732933     1.007825032230
         H            0.859895384242     0.662133651386     1.486829732933     1.007825032230
         H           -2.185661615758     1.716420651386    -0.171877267067     1.007825032230
         H           -0.898752615758     2.708666651386     0.013966732933     1.007825032230
         H            1.758668384242    -1.364830348614     0.208373732933     1.007825032230
         H           -2.646736615758    -1.509981348614    -0.303245267067     1.007825032230

  Basis Set: AUG-CC-PVTZ
    Blend: AUG-CC-PVTZ
  Basis Set: (AUG-CC-PVTZ AUX)
    Blend: AUG-CC-PVTZ-JKFIT
	 Reference Energy          =    -719.5216282205018388 [Eh]
	 Singles Energy            =      -0.0000000000000000 [Eh]
	 Same-Spin Energy          =      -0.3757338143665510 [Eh]
	 Opposite-Spin Energy      =      -1.1611715285182616 [Eh]
	 Correlation Energy        =      -1.5369053428848125 [Eh]
	 Total Energy              =    -721.0585335633866180 [Eh]

	 ================> DF-SCS-MP2 Energies <==================
	-----------------------------------------------------------
	 SCS Same-Spin Scale       =       0.3333333333333333 [-]
	 SCS Opposite-Spin Scale   =       1.2000000000000000 [-]
	 SCS Same-Spin Energy      =      -0.1252446047888503 [Eh]
	 SCS Opposite-Spin Energy  =      -1.3934058342219138 [Eh]
	 SCS Correlation Energy    =      -1.5186504390107640 [Eh]
	 SCS Total Energy          =    -721.0402786595126372 [Eh]
	-----------------------------------------------------------

  Dipole Moment: [D]
     X:    -1.9930      Y:     1.2007      Z:    -1.2395     Total:     2.6362

*** Psi4 exiting successfully. Buy a developer a beer!
