                               Psi4 1.3.2 release

  ==> Input File <==

--------------------------------------------------------------------------
#psi4
#
memory 32 gb

molecule  {
0 1
  S        2.2579180    -0.2726900    -0.2934460
  O       -2.2551230    -0.6936910    -0.5624970
  O       -0.5935940    -1.5242440     0.7320250
  N       -1.2606890     1.7473760     0.2743420
  C       -0.3743770     0.7050360    -0.2599020
  C        0.9558228     0.7550672     0.4480476
  C       -1.0384360    -0.6244090     0.0410490
  H       -0.2310720     0.7525000    -1.3524110
  H        1.3604600     1.8262100     0.3009430
  H        0.8701070     0.6147400     1.4903500
  H       -2.1754500     1.6690270    -0.1683570
  H       -0.8885410     2.6612730     0.0174870
  H        1.7688800    -1.4122240     0.2118940
  H       -2.6365250    -1.5573750    -0.2997250
units angstrom
no_reorient  #important for SAPT in psi4, default
symmetry c1  #important for SAPT in psi4, default
}

set PROPERTIES_ORIGIN ["COM"]
properties('MP2/aug-cc-pvtz', properties = ['dipole'])
--------------------------------------------------------------------------

    Molecular point group: c1
  Charge       = 0
  Multiplicity = 1
  Basis Set: AUG-CC-PVTZ
    Blend: AUG-CC-PVTZ
  Basis Set: (AUG-CC-PVTZ AUX)
    Blend: AUG-CC-PVTZ-JKFIT

    Orbital Energies [Eh]
    ---------------------

    Doubly Occupied:

       1A    -91.951194     2A    -20.627732     3A    -20.565637
       4A    -15.570196     5A    -11.400586     6A    -11.294450
       7A    -11.269252     8A     -8.952534     9A     -6.633882
      10A     -6.632897    11A     -6.631912    12A     -1.473318
      13A     -1.370844    14A     -1.217260    15A     -1.065142
      16A     -0.965412    17A     -0.878194    18A     -0.790291
      19A     -0.721515    20A     -0.716809    21A     -0.672166
      22A     -0.655886    23A     -0.624159    24A     -0.601486
      25A     -0.570396    26A     -0.559633    27A     -0.511608
      28A     -0.494083    29A     -0.476058    30A     -0.452446
      31A     -0.424272    32A     -0.360780

  @DF-RHF Final Energy:  -719.53395725305381

   => Energetics <=

    Nuclear Repulsion Energy =            380.6773923987681769
    One-Electron Energy =               -1746.1586430426968946
    Two-Electron Energy =                 645.9472933908748473
    Total Energy =                       -719.5339572530538135
  Basis Set: (AUG-CC-PVTZ AUX)
    Blend: AUG-CC-PVTZ-RI
    Molecular point group: c1

    Geometry (in Angstrom), charge = 0, multiplicity = 1:

       Center              X                  Y                   Z               Mass
    ------------   -----------------  -----------------  -----------------  -----------------
         S            2.245187301192    -0.230487038579    -0.294464209337    31.972071174400
         O           -2.267853698808    -0.651488038579    -0.563515209337    15.994914619570
         O           -0.606324698808    -1.482041038579     0.731006790663    15.994914619570
         N           -1.273419698808     1.789578961421     0.273323790663    14.003074004430
         C           -0.387107698808     0.747238961421    -0.260920209337    12.000000000000
         C            0.943092101192     0.797270161421     0.447029390663    12.000000000000
         C           -1.051166698808    -0.582206038579     0.040030790663    12.000000000000
         H           -0.243802698808     0.794702961421    -1.353429209337     1.007825032230
         H            1.347729301192     1.868412961421     0.299924790663     1.007825032230
         H            0.857376301192     0.656942961421     1.489331790663     1.007825032230
         H           -2.188180698808     1.711229961421    -0.169375209337     1.007825032230
         H           -0.901271698808     2.703475961421     0.016468790663     1.007825032230
         H            1.756149301192    -1.370021038579     0.210875790663     1.007825032230
         H           -2.649255698808    -1.515172038579    -0.300743209337     1.007825032230

  Basis Set: AUG-CC-PVTZ
    Blend: AUG-CC-PVTZ
  Basis Set: (AUG-CC-PVTZ AUX)
    Blend: AUG-CC-PVTZ-JKFIT
	 Reference Energy          =    -719.5339572530538135 [Eh]
	 Singles Energy            =      -0.0000000000000000 [Eh]
	 Same-Spin Energy          =      -0.3751906158028625 [Eh]
	 Opposite-Spin Energy      =      -1.1600738390499545 [Eh]
	 Correlation Energy        =      -1.5352644548528169 [Eh]
	 Total Energy              =    -721.0692217079066495 [Eh]

	 ================> DF-SCS-MP2 Energies <==================
	-----------------------------------------------------------
	 SCS Same-Spin Scale       =       0.3333333333333333 [-]
	 SCS Opposite-Spin Scale   =       1.2000000000000000 [-]
	 SCS Same-Spin Energy      =      -0.1250635386009541 [Eh]
	 SCS Opposite-Spin Energy  =      -1.3920886068599454 [Eh]
	 SCS Correlation Energy    =      -1.5171521454608996 [Eh]
	 SCS Total Energy          =    -721.0511093985147681 [Eh]
	-----------------------------------------------------------

  Dipole Moment: [D]
     X:    -2.0060      Y:     1.2492      Z:    -1.2201     Total:     2.6596

*** Psi4 exiting successfully. Buy a developer a beer!
