                               Psi4 1.3.2 release

  ==> Input File <==

--------------------------------------------------------------------------
#psi4
#
memory 32 gb

molecule  {
0 1
  S        2.2579180    -0.2726900    -0.2934460
  O       -2.2551230    -0.6936910    -0.5624970
  O       -0.5935940    -1.5242440     0.7320250
  N       -1.2606890     1.7473760     0.2743420
  C       -0.3743770     0.7050360    -0.2599020
  C        1.0113588     0.8559444     0.3949028
  C       -1.0384360    -0.6244090     0.0410490
  H       -0.2310720     0.7525000    -1.3524110
  H        1.3604600     1.8262100     0.3009430
  H        0.8701070     0.6147400     1.4903500
  H       -2.1754500     1.6690270    -0.1683570
  H       -0.8885410     2.6612730     0.0174870
  H        1.7688800    -1.4122240     0.2118940
  H       -2.6365250    -1.5573750    -0.2997250
units angstrom
no_reorient  #important for SAPT in psi4, default
symmetry c1  #important for SAPT in psi4, default
}

set PROPERTIES_ORIGIN ["COM"]
properties('MP2/aug-cc-pvtz', properties = ['dipole'])
--------------------------------------------------------------------------

    Molecular point group: c1
  Charge       = 0
  Multiplicity = 1
  Basis Set: AUG-CC-PVTZ
    Blend: AUG-CC-PVTZ
  Basis Set: (AUG-CC-PVTZ AUX)
    Blend: AUG-CC-PVTZ-JKFIT

    Orbital Energies [Eh]
    ---------------------

    Doubly Occupied:

       1A    -91.949559     2A    -20.629107     3A    -20.565764
       4A    -15.569859     5A    -11.402601     6A    -11.295703
       7A    -11.268479     8A     -8.951048     9A     -6.632427
      10A     -6.631543    11A     -6.630540    12A     -1.474032
      13A     -1.371003    14A     -1.215881    15A     -1.062355
      16A     -0.964385    17A     -0.881275    18A     -0.793611
      19A     -0.720367    20A     -0.714525    21A     -0.671886
      22A     -0.658485    23A     -0.623293    24A     -0.605077
      25A     -0.572209    26A     -0.548686    27A     -0.534653
      28A     -0.495745    29A     -0.474038    30A     -0.446322
      31A     -0.421657    32A     -0.357267

  @DF-RHF Final Energy:  -719.53465980873068

   => Energetics <=

    Nuclear Repulsion Energy =            379.6518112903971769
    One-Electron Energy =               -1744.1061687373905897
    Two-Electron Energy =                 644.9196976382628463
    Total Energy =                       -719.5346598087306802
  Basis Set: (AUG-CC-PVTZ AUX)
    Blend: AUG-CC-PVTZ-RI
    Molecular point group: c1

    Geometry (in Angstrom), charge = 0, multiplicity = 1:

       Center              X                  Y                   Z               Mass
    ------------   -----------------  -----------------  -----------------  -----------------
         S            2.239680497535    -0.240489756347    -0.289194510781    31.972071174400
         O           -2.273360502465    -0.661490756347    -0.558245510781    15.994914619570
         O           -0.611831502465    -1.492043756347     0.736276489219    15.994914619570
         N           -1.278926502465     1.779576243653     0.278593489219    14.003074004430
         C           -0.392614502465     0.737236243653    -0.255650510781    12.000000000000
         C            0.993121297535     0.888144643653     0.399154289219    12.000000000000
         C           -1.056673502465    -0.592208756347     0.045300489219    12.000000000000
         H           -0.249309502465     0.784700243653    -1.348159510781     1.007825032230
         H            1.342222497535     1.858410243653     0.305194489219     1.007825032230
         H            0.851869497535     0.646940243653     1.494601489219     1.007825032230
         H           -2.193687502465     1.701227243653    -0.164105510781     1.007825032230
         H           -0.906778502465     2.693473243653     0.021738489219     1.007825032230
         H            1.750642497535    -1.380023756347     0.216145489219     1.007825032230
         H           -2.654762502465    -1.525174756347    -0.295473510781     1.007825032230

  Basis Set: AUG-CC-PVTZ
    Blend: AUG-CC-PVTZ
  Basis Set: (AUG-CC-PVTZ AUX)
    Blend: AUG-CC-PVTZ-JKFIT
	 Reference Energy          =    -719.5346598087306802 [Eh]
	 Singles Energy            =      -0.0000000000000000 [Eh]
	 Same-Spin Energy          =      -0.3745543551048974 [Eh]
	 Opposite-Spin Energy      =      -1.1591920373389595 [Eh]
	 Correlation Energy        =      -1.5337463924438568 [Eh]
	 Total Energy              =    -721.0684062011745254 [Eh]

	 ================> DF-SCS-MP2 Energies <==================
	-----------------------------------------------------------
	 SCS Same-Spin Scale       =       0.3333333333333333 [-]
	 SCS Opposite-Spin Scale   =       1.2000000000000000 [-]
	 SCS Same-Spin Energy      =      -0.1248514517016325 [Eh]
	 SCS Opposite-Spin Energy  =      -1.3910304448067514 [Eh]
	 SCS Correlation Energy    =      -1.5158818965083838 [Eh]
	 SCS Total Energy          =    -721.0505417052390840 [Eh]
	-----------------------------------------------------------

  Dipole Moment: [D]
     X:    -2.0488      Y:     1.3015      Z:    -1.1967     Total:     2.7062

*** Psi4 exiting successfully. Buy a developer a beer!
