                               Psi4 1.3.2 release

  ==> Input File <==

--------------------------------------------------------------------------
#psi4
#
memory 32 gb

molecule  {
0 1
  S        2.2579180    -0.2726900    -0.2934460
  O       -2.2479895    -0.6501519    -0.5800088
  O       -0.5935940    -1.5242440     0.7320250
  N       -1.2606890     1.7473760     0.2743420
  C       -0.3743770     0.7050360    -0.2599020
  C        0.9828140     0.8061630     0.4219110
  C       -1.0384360    -0.6244090     0.0410490
  H       -0.2310720     0.7525000    -1.3524110
  H        1.3604600     1.8262100     0.3009430
  H        0.8701070     0.6147400     1.4903500
  H       -2.1754500     1.6690270    -0.1683570
  H       -0.8885410     2.6612730     0.0174870
  H        1.7688800    -1.4122240     0.2118940
  H       -2.6365250    -1.5573750    -0.2997250
units angstrom
no_reorient  #important for SAPT in psi4, default
symmetry c1  #important for SAPT in psi4, default
}

set PROPERTIES_ORIGIN ["COM"]
properties('MP2/aug-cc-pvtz', properties = ['dipole'])
--------------------------------------------------------------------------

    Molecular point group: c1
  Charge       = 0
  Multiplicity = 1
  Basis Set: AUG-CC-PVTZ
    Blend: AUG-CC-PVTZ
  Basis Set: (AUG-CC-PVTZ AUX)
    Blend: AUG-CC-PVTZ-JKFIT

    Orbital Energies [Eh]
    ---------------------

    Doubly Occupied:

       1A    -91.949681     2A    -20.634297     3A    -20.567866
       4A    -15.568841     5A    -11.401726     6A    -11.292592
       7A    -11.267359     8A     -8.951119     9A     -6.632486
      10A     -6.631546    11A     -6.630557    12A     -1.469906
      13A     -1.370990    14A     -1.215061    15A     -1.062650
      16A     -0.962241    17A     -0.875696    18A     -0.783492
      19A     -0.721432    20A     -0.713273    21A     -0.672039
      22A     -0.655517    23A     -0.623839    24A     -0.602790
      25A     -0.566332    26A     -0.554970    27A     -0.524632
      28A     -0.496715    29A     -0.474500    30A     -0.449547
      31A     -0.421909    32A     -0.358571

  @DF-RHF Final Energy:  -719.53277569121190

   => Energetics <=

    Nuclear Repulsion Energy =            380.2544518791705173
    One-Electron Energy =               -1745.3661109148779360
    Two-Electron Energy =                 645.5788833444954662
    Total Energy =                       -719.5327756912118957
  Basis Set: (AUG-CC-PVTZ AUX)
    Blend: AUG-CC-PVTZ-RI
    Molecular point group: c1

    Geometry (in Angstrom), charge = 0, multiplicity = 1:

       Center              X                  Y                   Z               Mass
    ------------   -----------------  -----------------  -----------------  -----------------
         S            2.241568105774    -0.241308030946    -0.289558076681    31.972071174400
         O           -2.264339394226    -0.618769930946    -0.576120876681    15.994914619570
         O           -0.609943894226    -1.492862030946     0.735912923319    15.994914619570
         N           -1.277038894226     1.778757969054     0.278229923319    14.003074004430
         C           -0.390726894226     0.736417969054    -0.256014076681    12.000000000000
         C            0.966464105774     0.837544969054     0.425798923319    12.000000000000
         C           -1.054785894226    -0.593027030946     0.044936923319    12.000000000000
         H           -0.247421894226     0.783881969054    -1.348523076681     1.007825032230
         H            1.344110105774     1.857591969054     0.304830923319     1.007825032230
         H            0.853757105774     0.646121969054     1.494237923319     1.007825032230
         H           -2.191799894226     1.700408969054    -0.164469076681     1.007825032230
         H           -0.904890894226     2.692654969054     0.021374923319     1.007825032230
         H            1.752530105774    -1.380842030946     0.215781923319     1.007825032230
         H           -2.652874894226    -1.525993030946    -0.295837076681     1.007825032230

  Basis Set: AUG-CC-PVTZ
    Blend: AUG-CC-PVTZ
  Basis Set: (AUG-CC-PVTZ AUX)
    Blend: AUG-CC-PVTZ-JKFIT
	 Reference Energy          =    -719.5327756912118957 [Eh]
	 Singles Energy            =      -0.0000000000000000 [Eh]
	 Same-Spin Energy          =      -0.3757691665547468 [Eh]
	 Opposite-Spin Energy      =      -1.1614543231175483 [Eh]
	 Correlation Energy        =      -1.5372234896722952 [Eh]
	 Total Energy              =    -721.0699991808842242 [Eh]

	 ================> DF-SCS-MP2 Energies <==================
	-----------------------------------------------------------
	 SCS Same-Spin Scale       =       0.3333333333333333 [-]
	 SCS Opposite-Spin Scale   =       1.2000000000000000 [-]
	 SCS Same-Spin Energy      =      -0.1252563888515822 [Eh]
	 SCS Opposite-Spin Energy  =      -1.3937451877410578 [Eh]
	 SCS Correlation Energy    =      -1.5190015765926401 [Eh]
	 SCS Total Energy          =    -721.0517772678044821 [Eh]
	-----------------------------------------------------------

  Dipole Moment: [D]
     X:    -2.0789      Y:     1.2015      Z:    -1.1963     Total:     2.6827

*** Psi4 exiting successfully. Buy a developer a beer!
