                               Psi4 1.3.2 release

  ==> Input File <==

--------------------------------------------------------------------------
#psi4
#
memory 32 gb

molecule  {
0 1
  S        2.2579180    -0.2726900    -0.2934460
  O       -2.2551230    -0.6936910    -0.5624970
  O       -0.5935940    -1.5242440     0.7320250
  N       -1.2606890     1.7473760     0.2743420
  C       -0.3743770     0.7050360    -0.2599020
  C        0.9066304     0.6491829     0.4975799
  C       -1.0384360    -0.6244090     0.0410490
  H       -0.2310720     0.7525000    -1.3524110
  H        1.3604600     1.8262100     0.3009430
  H        0.8701070     0.6147400     1.4903500
  H       -2.1754500     1.6690270    -0.1683570
  H       -0.8885410     2.6612730     0.0174870
  H        1.7688800    -1.4122240     0.2118940
  H       -2.6365250    -1.5573750    -0.2997250
units angstrom
no_reorient  #important for SAPT in psi4, default
symmetry c1  #important for SAPT in psi4, default
}

set PROPERTIES_ORIGIN ["COM"]
properties('MP2/aug-cc-pvtz', properties = ['dipole'])
--------------------------------------------------------------------------

    Molecular point group: c1
  Charge       = 0
  Multiplicity = 1
  Basis Set: AUG-CC-PVTZ
    Blend: AUG-CC-PVTZ
  Basis Set: (AUG-CC-PVTZ AUX)
    Blend: AUG-CC-PVTZ-JKFIT

    Orbital Energies [Eh]
    ---------------------

    Doubly Occupied:

       1A    -91.954705     2A    -20.626865     3A    -20.566446
       4A    -15.570698     5A    -11.399459     6A    -11.295641
       7A    -11.273514     8A     -8.955706     9A     -6.637007
      10A     -6.635951    11A     -6.634960    12A     -1.473351
      13A     -1.371654    14A     -1.218392    15A     -1.069115
      16A     -0.967819    17A     -0.877769    18A     -0.793425
      19A     -0.724184    20A     -0.716420    21A     -0.673252
      22A     -0.653954    23A     -0.625596    24A     -0.601504
      25A     -0.586943    26A     -0.551418    27A     -0.499845
      28A     -0.483220    29A     -0.478603    30A     -0.448072
      31A     -0.426543    32A     -0.363689

  @DF-RHF Final Energy:  -719.50316976182262

   => Energetics <=

    Nuclear Repulsion Energy =            381.6030480989335274
    One-Electron Energy =               -1747.9009964243043669
    Two-Electron Energy =                 646.7947785635481068
    Total Energy =                       -719.5031697618226190
  Basis Set: (AUG-CC-PVTZ AUX)
    Blend: AUG-CC-PVTZ-RI
    Molecular point group: c1

    Geometry (in Angstrom), charge = 0, multiplicity = 1:

       Center              X                  Y                   Z               Mass
    ------------   -----------------  -----------------  -----------------  -----------------
         S            2.250065090163    -0.219987829948    -0.299375701897    31.972071174400
         O           -2.262975909837    -0.640988829948    -0.568426701897    15.994914619570
         O           -0.601446909837    -1.471541829948     0.726095298103    15.994914619570
         N           -1.268541909837     1.800078170052     0.268412298103    14.003074004430
         C           -0.382229909837     0.757738170052    -0.265831701897    12.000000000000
         C            0.898777490163     0.701885070052     0.491650198103    12.000000000000
         C           -1.046288909837    -0.571706829948     0.035119298103    12.000000000000
         H           -0.238924909837     0.805202170052    -1.358340701897     1.007825032230
         H            1.352607090163     1.878912170052     0.295013298103     1.007825032230
         H            0.862254090163     0.667442170052     1.484420298103     1.007825032230
         H           -2.183302909837     1.721729170052    -0.174286701897     1.007825032230
         H           -0.896393909837     2.713975170052     0.011557298103     1.007825032230
         H            1.761027090163    -1.359521829948     0.205964298103     1.007825032230
         H           -2.644377909837    -1.504672829948    -0.305654701897     1.007825032230

  Basis Set: AUG-CC-PVTZ
    Blend: AUG-CC-PVTZ
  Basis Set: (AUG-CC-PVTZ AUX)
    Blend: AUG-CC-PVTZ-JKFIT
	 Reference Energy          =    -719.5031697618226190 [Eh]
	 Singles Energy            =      -0.0000000000000000 [Eh]
	 Same-Spin Energy          =      -0.3764210632323617 [Eh]
	 Opposite-Spin Energy      =      -1.1626852352302230 [Eh]
	 Correlation Energy        =      -1.5391062984625847 [Eh]
	 Total Energy              =    -721.0422760602851895 [Eh]

	 ================> DF-SCS-MP2 Energies <==================
	-----------------------------------------------------------
	 SCS Same-Spin Scale       =       0.3333333333333333 [-]
	 SCS Opposite-Spin Scale   =       1.2000000000000000 [-]
	 SCS Same-Spin Energy      =      -0.1254736877441205 [Eh]
	 SCS Opposite-Spin Energy  =      -1.3952222822762677 [Eh]
	 SCS Correlation Energy    =      -1.5206959700203881 [Eh]
	 SCS Total Energy          =    -721.0238657318429887 [Eh]
	-----------------------------------------------------------

  Dipole Moment: [D]
     X:    -1.9875      Y:     1.1377      Z:    -1.2624     Total:     2.6150

*** Psi4 exiting successfully. Buy a developer a beer!
