                               Psi4 1.3.2 release

  ==> Input File <==

--------------------------------------------------------------------------
#psi4
#
memory 32 gb

molecule  {
0 1
  S        2.2579180    -0.2726900    -0.2934460
  O       -2.2551230    -0.6936910    -0.5624970
  O       -0.5935940    -1.5242440     0.7320250
  N       -1.2606890     1.7473760     0.2743420
  C       -0.4372541     0.6354160    -0.2185456
  C        0.9828140     0.8061630     0.4219110
  C       -1.0384360    -0.6244090     0.0410490
  H       -0.2310720     0.7525000    -1.3524110
  H        1.3604600     1.8262100     0.3009430
  H        0.8701070     0.6147400     1.4903500
  H       -2.1754500     1.6690270    -0.1683570
  H       -0.8885410     2.6612730     0.0174870
  H        1.7688800    -1.4122240     0.2118940
  H       -2.6365250    -1.5573750    -0.2997250
units angstrom
no_reorient  #important for SAPT in psi4, default
symmetry c1  #important for SAPT in psi4, default
}

set PROPERTIES_ORIGIN ["COM"]
properties('MP2/aug-cc-pvtz', properties = ['dipole'])
--------------------------------------------------------------------------

    Molecular point group: c1
  Charge       = 0
  Multiplicity = 1
  Basis Set: AUG-CC-PVTZ
    Blend: AUG-CC-PVTZ
  Basis Set: (AUG-CC-PVTZ AUX)
    Blend: AUG-CC-PVTZ-JKFIT

    Orbital Energies [Eh]
    ---------------------

    Doubly Occupied:

       1A    -91.949468     2A    -20.628580     3A    -20.567841
       4A    -15.570637     5A    -11.400643     6A    -11.295206
       7A    -11.271060     8A     -8.950904     9A     -6.632276
      10A     -6.631332    11A     -6.630344    12A     -1.477448
      13A     -1.373523    14A     -1.216879    15A     -1.060768
      16A     -0.984266    17A     -0.878914    18A     -0.788328
      19A     -0.722728    20A     -0.717045    21A     -0.679449
      22A     -0.654008    23A     -0.623367    24A     -0.604537
      25A     -0.578623    26A     -0.541231    27A     -0.522724
      28A     -0.495590    29A     -0.481514    30A     -0.451640
      31A     -0.416040    32A     -0.357111

  @DF-RHF Final Energy:  -719.52625199119996

   => Energetics <=

    Nuclear Repulsion Energy =            381.0318074015676757
    One-Electron Energy =               -1746.8080751653671996
    Two-Electron Energy =                 646.2500157725995678
    Total Energy =                       -719.5262519911999561
  Basis Set: (AUG-CC-PVTZ AUX)
    Blend: AUG-CC-PVTZ-RI
    Molecular point group: c1

    Geometry (in Angstrom), charge = 0, multiplicity = 1:

       Center              X                  Y                   Z               Mass
    ------------   -----------------  -----------------  -----------------  -----------------
         S            2.248745652629    -0.228650227640    -0.295973364666    31.972071174400
         O           -2.264295347371    -0.649651227640    -0.565024364666    15.994914619570
         O           -0.602766347371    -1.480204227640     0.729497635334    15.994914619570
         N           -1.269861347371     1.791415772360     0.271814635334    14.003074004430
         C           -0.446426447371     0.679455772360    -0.221072964666    12.000000000000
         C            0.973641652629     0.850202772360     0.419383635334    12.000000000000
         C           -1.047608347371    -0.580369227640     0.038521635334    12.000000000000
         H           -0.240244347371     0.796539772360    -1.354938364666     1.007825032230
         H            1.351287652629     1.870249772360     0.298415635334     1.007825032230
         H            0.860934652629     0.658779772360     1.487822635334     1.007825032230
         H           -2.184622347371     1.713066772360    -0.170884364666     1.007825032230
         H           -0.897713347371     2.705312772360     0.014959635334     1.007825032230
         H            1.759707652629    -1.368184227640     0.209366635334     1.007825032230
         H           -2.645697347371    -1.513335227640    -0.302252364666     1.007825032230

  Basis Set: AUG-CC-PVTZ
    Blend: AUG-CC-PVTZ
  Basis Set: (AUG-CC-PVTZ AUX)
    Blend: AUG-CC-PVTZ-JKFIT
	 Reference Energy          =    -719.5262519911999561 [Eh]
	 Singles Energy            =      -0.0000000000000000 [Eh]
	 Same-Spin Energy          =      -0.3755481273612888 [Eh]
	 Opposite-Spin Energy      =      -1.1607049031396834 [Eh]
	 Correlation Energy        =      -1.5362530305009723 [Eh]
	 Total Energy              =    -721.0625050217008720 [Eh]

	 ================> DF-SCS-MP2 Energies <==================
	-----------------------------------------------------------
	 SCS Same-Spin Scale       =       0.3333333333333333 [-]
	 SCS Opposite-Spin Scale   =       1.2000000000000000 [-]
	 SCS Same-Spin Energy      =      -0.1251827091204296 [Eh]
	 SCS Opposite-Spin Energy  =      -1.3928458837676201 [Eh]
	 SCS Correlation Energy    =      -1.5180285928880497 [Eh]
	 SCS Total Energy          =    -721.0442805840880283 [Eh]
	-----------------------------------------------------------

  Dipole Moment: [D]
     X:    -2.0405      Y:     1.3032      Z:    -1.1695     Total:     2.6888

*** Psi4 exiting successfully. Buy a developer a beer!
