                               Psi4 1.3.2 release

  ==> Input File <==

--------------------------------------------------------------------------
#psi4
#
memory 32 gb

molecule  {
0 1
  S        2.2579180    -0.2726900    -0.2934460
  O       -2.2551230    -0.6936910    -0.5624970
  O       -0.5935940    -1.5242440     0.7320250
  N       -1.3536271     1.6336776     0.3198672
  C       -0.3743770     0.7050360    -0.2599020
  C        0.9828140     0.8061630     0.4219110
  C       -1.0384360    -0.6244090     0.0410490
  H       -0.2310720     0.7525000    -1.3524110
  H        1.3604600     1.8262100     0.3009430
  H        0.8701070     0.6147400     1.4903500
  H       -2.1754500     1.6690270    -0.1683570
  H       -0.8885410     2.6612730     0.0174870
  H        1.7688800    -1.4122240     0.2118940
  H       -2.6365250    -1.5573750    -0.2997250
units angstrom
no_reorient  #important for SAPT in psi4, default
symmetry c1  #important for SAPT in psi4, default
}

set PROPERTIES_ORIGIN ["COM"]
properties('MP2/aug-cc-pvtz', properties = ['dipole'])
--------------------------------------------------------------------------

    Molecular point group: c1
  Charge       = 0
  Multiplicity = 1
  Basis Set: AUG-CC-PVTZ
    Blend: AUG-CC-PVTZ
  Basis Set: (AUG-CC-PVTZ AUX)
    Blend: AUG-CC-PVTZ-JKFIT

    Orbital Energies [Eh]
    ---------------------

    Doubly Occupied:

       1A    -91.952609     2A    -20.625565     3A    -20.561756
       4A    -15.582251     5A    -11.397573     6A    -11.296212
       7A    -11.270936     8A     -8.953967     9A     -6.635328
      10A     -6.634387    11A     -6.633394    12A     -1.471233
      13A     -1.367870    14A     -1.217857    15A     -1.065548
      16A     -0.962187    17A     -0.880222    18A     -0.790928
      19A     -0.717289    20A     -0.714717    21A     -0.685402
      22A     -0.639322    23A     -0.619891    24A     -0.591595
      25A     -0.564796    26A     -0.548922    27A     -0.527075
      28A     -0.494212    29A     -0.469937    30A     -0.452291
      31A     -0.431811    32A     -0.361493

  @DF-RHF Final Energy:  -719.51390585382910

   => Energetics <=

    Nuclear Repulsion Energy =            380.7648049226453395
    One-Electron Energy =               -1746.3202705510950636
    Two-Electron Energy =                 646.0415597746207368
    Total Energy =                       -719.5139058538291010
  Basis Set: (AUG-CC-PVTZ AUX)
    Blend: AUG-CC-PVTZ-RI
    Molecular point group: c1

    Geometry (in Angstrom), charge = 0, multiplicity = 1:

       Center              X                  Y                   Z               Mass
    ------------   -----------------  -----------------  -----------------  -----------------
         S            2.253264699262    -0.222397635715    -0.297140248129    31.972071174400
         O           -2.259776300738    -0.643398635715    -0.566191248129    15.994914619570
         O           -0.598247300738    -1.473951635715     0.728330751871    15.994914619570
         N           -1.358280400738     1.683969964285     0.316172951871    14.003074004430
         C           -0.379030300738     0.755328364285    -0.263596248129    12.000000000000
         C            0.978160699262     0.856455364285     0.418216751871    12.000000000000
         C           -1.043089300738    -0.574116635715     0.037354751871    12.000000000000
         H           -0.235725300738     0.802792364285    -1.356105248129     1.007825032230
         H            1.355806699262     1.876502364285     0.297248751871     1.007825032230
         H            0.865453699262     0.665032364285     1.486655751871     1.007825032230
         H           -2.180103300738     1.719319364285    -0.172051248129     1.007825032230
         H           -0.893194300738     2.711565364285     0.013792751871     1.007825032230
         H            1.764226699262    -1.361931635715     0.208199751871     1.007825032230
         H           -2.641178300738    -1.507082635715    -0.303419248129     1.007825032230

  Basis Set: AUG-CC-PVTZ
    Blend: AUG-CC-PVTZ
  Basis Set: (AUG-CC-PVTZ AUX)
    Blend: AUG-CC-PVTZ-JKFIT
	 Reference Energy          =    -719.5139058538291010 [Eh]
	 Singles Energy            =      -0.0000000000000000 [Eh]
	 Same-Spin Energy          =      -0.3756825170120790 [Eh]
	 Opposite-Spin Energy      =      -1.1620866672346608 [Eh]
	 Correlation Energy        =      -1.5377691842467398 [Eh]
	 Total Energy              =    -721.0516750380758140 [Eh]

	 ================> DF-SCS-MP2 Energies <==================
	-----------------------------------------------------------
	 SCS Same-Spin Scale       =       0.3333333333333333 [-]
	 SCS Opposite-Spin Scale   =       1.2000000000000000 [-]
	 SCS Same-Spin Energy      =      -0.1252275056706930 [Eh]
	 SCS Opposite-Spin Energy  =      -1.3945040006815930 [Eh]
	 SCS Correlation Energy    =      -1.5197315063522860 [Eh]
	 SCS Total Energy          =    -721.0336373601813875 [Eh]
	-----------------------------------------------------------

  Dipole Moment: [D]
     X:    -1.8244      Y:     1.3947      Z:    -1.3121     Total:     2.6449

*** Psi4 exiting successfully. Buy a developer a beer!
