                               Psi4 1.4a3.dev225

  ==> Input File <==

--------------------------------------------------------------------------
#psi4
#
memory 32 gb

molecule  {
0 1
  S        2.2579050    -0.2727850    -0.2934720
  O       -2.2550500    -0.6937950    -0.5626610
  O       -0.5937490    -1.5240650     0.7322790
  N       -1.2606540     1.7474040     0.2743750
  C       -0.3743580     0.7050630    -0.2599560
  C        0.9688268     0.8180702     0.4297629
  C       -1.0384730    -0.6243520     0.0410630
  H       -0.2310980     0.7525420    -1.3524390
  H        1.3604840     1.8262480     0.3009370
  H        0.8701350     0.6147610     1.4903210
  H       -2.1753310     1.6691650    -0.1685200
  H       -0.8883350     2.6612490     0.0175910
  H        1.7689400    -1.4123290     0.2119310
  H       -2.6364810    -1.5574560    -0.2998170
units angstrom
no_reorient  #important for SAPT in psi4, default
symmetry c1  #important for SAPT in psi4, default
}

set PROPERTIES_ORIGIN ["COM"]
properties('MP2/aug-cc-pvtz', properties = ['dipole'])
--------------------------------------------------------------------------

    Molecular point group: c1
  Charge       = 0
  Multiplicity = 1
  Basis Set: AUG-CC-PVTZ
    Blend: AUG-CC-PVTZ
  Basis Set: (AUG-CC-PVTZ AUX)
    Blend: AUG-CC-PVTZ-JKFIT

    Orbital Energies [Eh]
    ---------------------

    Doubly Occupied:

       1A    -91.949588     2A    -20.628666     3A    -20.565839
       4A    -15.569996     5A    -11.401881     6A    -11.294841
       7A    -11.268502     8A     -8.950789     9A     -6.632130
      10A     -6.631197    11A     -6.630223    12A     -1.473876
      13A     -1.371061    14A     -1.217469    15A     -1.062050
      16A     -0.963659    17A     -0.880563    18A     -0.792041
      19A     -0.720818    20A     -0.717215    21A     -0.672302
      22A     -0.657445    23A     -0.624417    24A     -0.603162
      25A     -0.567583    26A     -0.559740    27A     -0.523887
      28A     -0.494886    29A     -0.473587    30A     -0.448599
      31A     -0.423507    32A     -0.358992

  @DF-RHF Final Energy:  -719.53866725411615

   => Energetics <=

    Nuclear Repulsion Energy =            380.0499190444259625
    One-Electron Energy =               -1744.9161534841152843
    Two-Electron Energy =                 645.3275671855732298
    Total Energy =                       -719.5386672541161488
  Basis Set: (AUG-CC-PVTZ AUX)
    Blend: AUG-CC-PVTZ-RI
    Molecular point group: c1

    Geometry (in Angstrom), charge = 0, multiplicity = 1:

       Center              X                  Y                   Z               Mass
    ------------   -----------------  -----------------  -----------------  -----------------
         S            2.243893076859    -0.236825875532    -0.292680550866    31.972071174400
         O           -2.269061923141    -0.657835875532    -0.561869550866    15.994914619570
         O           -0.607760923141    -1.488105875532     0.733070449134    15.994914619570
         N           -1.274665923141     1.783363124468     0.275166449134    14.003074004430
         C           -0.388369923141     0.741022124468    -0.259164550866    12.000000000000
         C            0.954814876859     0.854029324468     0.430554349134    12.000000000000
         C           -1.052484923141    -0.588392875532     0.041854449134    12.000000000000
         H           -0.245109923141     0.788501124468    -1.351647550866     1.007825032230
         H            1.346472076859     1.862207124468     0.301728449134     1.007825032230
         H            0.856123076859     0.650720124468     1.491112449134     1.007825032230
         H           -2.189342923141     1.705124124468    -0.167728550866     1.007825032230
         H           -0.902346923141     2.697208124468     0.018382449134     1.007825032230
         H            1.754928076859    -1.376369875532     0.212722449134     1.007825032230
         H           -2.650492923141    -1.521496875532    -0.299025550866     1.007825032230

  Basis Set: AUG-CC-PVTZ
    Blend: AUG-CC-PVTZ
  Basis Set: (AUG-CC-PVTZ AUX)
    Blend: AUG-CC-PVTZ-JKFIT
	 Reference Energy          =    -719.5386672541161488 [Eh]
	 Singles Energy            =      -0.0000000000000000 [Eh]
	 Same-Spin Energy          =      -0.3747222021405457 [Eh]
	 Opposite-Spin Energy      =      -1.1593906631154522 [Eh]
	 Correlation Energy        =      -1.5341128652559979 [Eh]
	 Total Energy              =    -721.0727801193721689 [Eh]

	 ================> DF-SCS-MP2 Energies <==================
	-----------------------------------------------------------
	 SCS Same-Spin Scale       =       0.3333333333333333 [-]
	 SCS Opposite-Spin Scale   =       1.2000000000000000 [-]
	 SCS Same-Spin Energy      =      -0.1249074007135152 [Eh]
	 SCS Opposite-Spin Energy  =      -1.3912687957385426 [Eh]
	 SCS Correlation Energy    =      -1.5161761964520577 [Eh]
	 SCS Total Energy          =    -721.0548434505682280 [Eh]
	-----------------------------------------------------------

  Dipole Moment: [D]
     X:    -2.0549      Y:     1.2974      Z:    -1.1990     Total:     2.7099

*** Psi4 exiting successfully. Buy a developer a beer!
