                               Psi4 1.3.2 release

  ==> Input File <==

--------------------------------------------------------------------------
#psi4
#
memory 32 gb

molecule  {
0 1
  S        2.2579180    -0.2726900    -0.2934460
  O       -2.2551230    -0.6936910    -0.5624970
  O       -0.5935940    -1.5242440     0.7320250
  N       -1.2606890     1.7473760     0.2743420
  C       -0.3743770     0.7050360    -0.2599020
  C        1.1611348     0.8194500     0.5114942
  C       -1.0384360    -0.6244090     0.0410490
  H       -0.2310720     0.7525000    -1.3524110
  H        1.3604600     1.8262100     0.3009430
  H        0.8701070     0.6147400     1.4903500
  H       -2.1754500     1.6690270    -0.1683570
  H       -0.8885410     2.6612730     0.0174870
  H        1.7688800    -1.4122240     0.2118940
  H       -2.6365250    -1.5573750    -0.2997250
units angstrom
no_reorient  #important for SAPT in psi4, default
symmetry c1  #important for SAPT in psi4, default
}

set PROPERTIES_ORIGIN ["COM"]
properties('MP2/aug-cc-pvtz', properties = ['dipole'])
--------------------------------------------------------------------------

    Molecular point group: c1
  Charge       = 0
  Multiplicity = 1
  Basis Set: AUG-CC-PVTZ
    Blend: AUG-CC-PVTZ
  Basis Set: (AUG-CC-PVTZ AUX)
    Blend: AUG-CC-PVTZ-JKFIT

    Orbital Energies [Eh]
    ---------------------

    Doubly Occupied:

       1A    -91.951586     2A    -20.626726     3A    -20.563119
       4A    -15.568162     5A    -11.399458     6A    -11.296664
       7A    -11.268717     8A     -8.954151     9A     -6.635651
      10A     -6.634692    11A     -6.633622    12A     -1.471526
      13A     -1.368542    14A     -1.206743    15A     -1.064310
      16A     -0.962900    17A     -0.873647    18A     -0.793265
      19A     -0.718215    20A     -0.709594    21A     -0.666610
      22A     -0.656141    23A     -0.631344    24A     -0.599432
      25A     -0.580669    26A     -0.549813    27A     -0.518331
      28A     -0.493944    29A     -0.477843    30A     -0.452436
      31A     -0.416165    32A     -0.348935

  @DF-RHF Final Energy:  -719.51295803203175

   => Energetics <=

    Nuclear Repulsion Energy =            378.2096667890485833
    One-Electron Energy =               -1741.2593440474297495
    Two-Electron Energy =                 643.5367192263493052
    Total Energy =                       -719.5129580320317473
  Basis Set: (AUG-CC-PVTZ AUX)
    Blend: AUG-CC-PVTZ-RI
    Molecular point group: c1

    Geometry (in Angstrom), charge = 0, multiplicity = 1:

       Center              X                  Y                   Z               Mass
    ------------   -----------------  -----------------  -----------------  -----------------
         S            2.224829103400    -0.236871067651    -0.300755407280    31.972071174400
         O           -2.288211896600    -0.657872067651    -0.569806407280    15.994914619570
         O           -0.626682896600    -1.488425067651     0.724715592720    15.994914619570
         N           -1.293777896600     1.783194932349     0.267032592720    14.003074004430
         C           -0.407465896600     0.740854932349    -0.267211407280    12.000000000000
         C            1.128045903400     0.855268932349     0.504184792720    12.000000000000
         C           -1.071524896600    -0.588590067651     0.033739592720    12.000000000000
         H           -0.264160896600     0.788318932349    -1.359720407280     1.007825032230
         H            1.327371103400     1.862028932349     0.293633592720     1.007825032230
         H            0.837018103400     0.650558932349     1.483040592720     1.007825032230
         H           -2.208538896600     1.704845932349    -0.175666407280     1.007825032230
         H           -0.921629896600     2.697091932349     0.010177592720     1.007825032230
         H            1.735791103400    -1.376405067651     0.204584592720     1.007825032230
         H           -2.669613896600    -1.521556067651    -0.307034407280     1.007825032230

  Basis Set: AUG-CC-PVTZ
    Blend: AUG-CC-PVTZ
  Basis Set: (AUG-CC-PVTZ AUX)
    Blend: AUG-CC-PVTZ-JKFIT
	 Reference Energy          =    -719.5129580320317473 [Eh]
	 Singles Energy            =      -0.0000000000000000 [Eh]
	 Same-Spin Energy          =      -0.3750491881536011 [Eh]
	 Opposite-Spin Energy      =      -1.1604584048228732 [Eh]
	 Correlation Energy        =      -1.5355075929764743 [Eh]
	 Total Energy              =    -721.0484656250082480 [Eh]

	 ================> DF-SCS-MP2 Energies <==================
	-----------------------------------------------------------
	 SCS Same-Spin Scale       =       0.3333333333333333 [-]
	 SCS Opposite-Spin Scale   =       1.2000000000000000 [-]
	 SCS Same-Spin Energy      =      -0.1250163960512004 [Eh]
	 SCS Opposite-Spin Energy  =      -1.3925500857874478 [Eh]
	 SCS Correlation Energy    =      -1.5175664818386481 [Eh]
	 SCS Total Energy          =    -721.0305245138704322 [Eh]
	-----------------------------------------------------------

  Dipole Moment: [D]
     X:    -1.9098      Y:     1.2437      Z:    -1.2322     Total:     2.5908

*** Psi4 exiting successfully. Buy a developer a beer!
