                               Psi4 1.3.2 release

  ==> Input File <==

--------------------------------------------------------------------------
#psi4
#
memory 32 gb

molecule  {
0 1
  S        2.2991292    -0.2504940    -0.2506511
  O       -2.2551230    -0.6936910    -0.5624970
  O       -0.5935940    -1.5242440     0.7320250
  N       -1.2606890     1.7473760     0.2743420
  C       -0.3743770     0.7050360    -0.2599020
  C        0.9828140     0.8061630     0.4219110
  C       -1.0384360    -0.6244090     0.0410490
  H       -0.2310720     0.7525000    -1.3524110
  H        1.3604600     1.8262100     0.3009430
  H        0.8701070     0.6147400     1.4903500
  H       -2.1754500     1.6690270    -0.1683570
  H       -0.8885410     2.6612730     0.0174870
  H        1.7688800    -1.4122240     0.2118940
  H       -2.6365250    -1.5573750    -0.2997250
units angstrom
no_reorient  #important for SAPT in psi4, default
symmetry c1  #important for SAPT in psi4, default
}

set PROPERTIES_ORIGIN ["COM"]
properties('MP2/aug-cc-pvtz', properties = ['dipole'])
--------------------------------------------------------------------------

    Molecular point group: c1
  Charge       = 0
  Multiplicity = 1
  Basis Set: AUG-CC-PVTZ
    Blend: AUG-CC-PVTZ
  Basis Set: (AUG-CC-PVTZ AUX)
    Blend: AUG-CC-PVTZ-JKFIT

    Orbital Energies [Eh]
    ---------------------

    Doubly Occupied:

       1A    -91.951758     2A    -20.628696     3A    -20.566064
       4A    -15.570616     5A    -11.401874     6A    -11.295606
       7A    -11.268138     8A     -8.952664     9A     -6.633992
      10A     -6.633059    11A     -6.632090    12A     -1.473953
      13A     -1.371179    14A     -1.216971    15A     -1.062593
      16A     -0.965217    17A     -0.877779    18A     -0.790699
      19A     -0.720615    20A     -0.716529    21A     -0.672111
      22A     -0.657273    23A     -0.623731    24A     -0.603145
      25A     -0.567486    26A     -0.556974    27A     -0.521751
      28A     -0.495368    29A     -0.474897    30A     -0.450364
      31A     -0.423450    32A     -0.358934

  @DF-RHF Final Energy:  -719.53827632992920

   => Energetics <=

    Nuclear Repulsion Energy =            379.2681766929472928
    One-Electron Energy =               -1743.3417544582871415
    Two-Electron Energy =                 644.5353014354107017
    Total Energy =                       -719.5382763299292037
  Basis Set: (AUG-CC-PVTZ AUX)
    Blend: AUG-CC-PVTZ-RI
    Molecular point group: c1

    Geometry (in Angstrom), charge = 0, multiplicity = 1:

       Center              X                  Y                   Z               Mass
    ------------   -----------------  -----------------  -----------------  -----------------
         S            2.272834584357    -0.219221499894    -0.260383609208    31.972071174400
         O           -2.281417615643    -0.662418499894    -0.572229509208    15.994914619570
         O           -0.619888615643    -1.492971499894     0.722292490792    15.994914619570
         N           -1.286983615643     1.778648500106     0.264609490792    14.003074004430
         C           -0.400671615643     0.736308500106    -0.269634509208    12.000000000000
         C            0.956519384357     0.837435500106     0.412178490792    12.000000000000
         C           -1.064730615643    -0.593136499894     0.031316490792    12.000000000000
         H           -0.257366615643     0.783772500106    -1.362143509208     1.007825032230
         H            1.334165384357     1.857482500106     0.291210490792     1.007825032230
         H            0.843812384357     0.646012500106     1.480617490792     1.007825032230
         H           -2.201744615643     1.700299500106    -0.178089509208     1.007825032230
         H           -0.914835615643     2.692545500106     0.007754490792     1.007825032230
         H            1.742585384357    -1.380951499894     0.202161490792     1.007825032230
         H           -2.662819615643    -1.526102499894    -0.309457509208     1.007825032230

  Basis Set: AUG-CC-PVTZ
    Blend: AUG-CC-PVTZ
  Basis Set: (AUG-CC-PVTZ AUX)
    Blend: AUG-CC-PVTZ-JKFIT
	 Reference Energy          =    -719.5382763299292037 [Eh]
	 Singles Energy            =      -0.0000000000000000 [Eh]
	 Same-Spin Energy          =      -0.3747413153640047 [Eh]
	 Opposite-Spin Energy      =      -1.1594518454426503 [Eh]
	 Correlation Energy        =      -1.5341931608066550 [Eh]
	 Total Energy              =    -721.0724694907358980 [Eh]

	 ================> DF-SCS-MP2 Energies <==================
	-----------------------------------------------------------
	 SCS Same-Spin Scale       =       0.3333333333333333 [-]
	 SCS Opposite-Spin Scale   =       1.2000000000000000 [-]
	 SCS Same-Spin Energy      =      -0.1249137717880016 [Eh]
	 SCS Opposite-Spin Energy  =      -1.3913422145311805 [Eh]
	 SCS Correlation Energy    =      -1.5162559863191820 [Eh]
	 SCS Total Energy          =    -721.0545323162483555 [Eh]
	-----------------------------------------------------------

  Dipole Moment: [D]
     X:    -2.0665      Y:     1.2724      Z:    -1.2537     Total:     2.7315

*** Psi4 exiting successfully. Buy a developer a beer!
