                               Psi4 1.3.2 release

  ==> Input File <==

--------------------------------------------------------------------------
#psi4
#
memory 32 gb

molecule  {
0 1
  S        2.2579180    -0.2726900    -0.2934460
  O       -2.2551230    -0.6936910    -0.5624970
  O       -0.5935940    -1.5242440     0.7320250
  N       -1.2606890     1.7473760     0.2743420
  C       -0.3743770     0.7050360    -0.2599020
  C        0.9828140     0.8061630     0.4219110
  C       -1.0822326    -0.7120896     0.0608976
  H       -0.2310720     0.7525000    -1.3524110
  H        1.3604600     1.8262100     0.3009430
  H        0.8701070     0.6147400     1.4903500
  H       -2.1754500     1.6690270    -0.1683570
  H       -0.8885410     2.6612730     0.0174870
  H        1.7688800    -1.4122240     0.2118940
  H       -2.6365250    -1.5573750    -0.2997250
units angstrom
no_reorient  #important for SAPT in psi4, default
symmetry c1  #important for SAPT in psi4, default
}

set PROPERTIES_ORIGIN ["COM"]
properties('MP2/aug-cc-pvtz', properties = ['dipole'])
--------------------------------------------------------------------------

    Molecular point group: c1
  Charge       = 0
  Multiplicity = 1
  Basis Set: AUG-CC-PVTZ
    Blend: AUG-CC-PVTZ
  Basis Set: (AUG-CC-PVTZ AUX)
    Blend: AUG-CC-PVTZ-JKFIT

    Orbital Energies [Eh]
    ---------------------

    Doubly Occupied:

       1A    -91.947736     2A    -20.637190     3A    -20.570505
       4A    -15.562998     5A    -11.394590     6A    -11.288254
       7A    -11.263315     8A     -8.949155     9A     -6.630529
      10A     -6.629580    11A     -6.628593    12A     -1.500263
      13A     -1.409116    14A     -1.204956    15A     -1.055996
      16A     -0.944022    17A     -0.873994    18A     -0.791322
      19A     -0.735385    20A     -0.714272    21A     -0.677581
      22A     -0.653986    23A     -0.637886    24A     -0.610072
      25A     -0.565238    26A     -0.550792    27A     -0.527739
      28A     -0.510794    29A     -0.465177    30A     -0.444702
      31A     -0.411323    32A     -0.356176

  @DF-RHF Final Energy:  -719.53207296555206

   => Energetics <=

    Nuclear Repulsion Energy =            379.9668152247891157
    One-Electron Energy =               -1744.7113013925400082
    Two-Electron Energy =                 645.2124132021988316
    Total Energy =                       -719.5320729655520609
  Basis Set: (AUG-CC-PVTZ AUX)
    Blend: AUG-CC-PVTZ-RI
    Molecular point group: c1

    Geometry (in Angstrom), charge = 0, multiplicity = 1:

       Center              X                  Y                   Z               Mass
    ------------   -----------------  -----------------  -----------------  -----------------
         S            2.246853680445    -0.226859386057    -0.293840707800    31.972071174400
         O           -2.266187319555    -0.647860386057    -0.562891707800    15.994914619570
         O           -0.604658319555    -1.478413386057     0.731630292200    15.994914619570
         N           -1.271753319555     1.793206613943     0.273947292200    14.003074004430
         C           -0.385441319555     0.750866613943    -0.260296707800    12.000000000000
         C            0.971749680445     0.851993613943     0.421516292200    12.000000000000
         C           -1.093296919555    -0.666258986057     0.060502892200    12.000000000000
         H           -0.242136319555     0.798330613943    -1.352805707800     1.007825032230
         H            1.349395680445     1.872040613943     0.300548292200     1.007825032230
         H            0.859042680445     0.660570613943     1.489955292200     1.007825032230
         H           -2.186514319555     1.714857613943    -0.168751707800     1.007825032230
         H           -0.899605319555     2.707103613943     0.017092292200     1.007825032230
         H            1.757815680445    -1.366393386057     0.211499292200     1.007825032230
         H           -2.647589319555    -1.511544386057    -0.300119707800     1.007825032230

  Basis Set: AUG-CC-PVTZ
    Blend: AUG-CC-PVTZ
  Basis Set: (AUG-CC-PVTZ AUX)
    Blend: AUG-CC-PVTZ-JKFIT
	 Reference Energy          =    -719.5320729655520609 [Eh]
	 Singles Energy            =      -0.0000000000000000 [Eh]
	 Same-Spin Energy          =      -0.3734556668127302 [Eh]
	 Opposite-Spin Energy      =      -1.1566189763063943 [Eh]
	 Correlation Energy        =      -1.5300746431191246 [Eh]
	 Total Energy              =    -721.0621476086712391 [Eh]

	 ================> DF-SCS-MP2 Energies <==================
	-----------------------------------------------------------
	 SCS Same-Spin Scale       =       0.3333333333333333 [-]
	 SCS Opposite-Spin Scale   =       1.2000000000000000 [-]
	 SCS Same-Spin Energy      =      -0.1244852222709101 [Eh]
	 SCS Opposite-Spin Energy  =      -1.3879427715676731 [Eh]
	 SCS Correlation Energy    =      -1.5124279938385832 [Eh]
	 SCS Total Energy          =    -721.0445009593906889 [Eh]
	-----------------------------------------------------------

  Dipole Moment: [D]
     X:    -2.3123      Y:     0.8300      Z:    -1.1322     Total:     2.7051

*** Psi4 exiting successfully. Buy a developer a beer!
