                               Psi4 1.3.2 release

  ==> Input File <==

--------------------------------------------------------------------------
#psi4
#
memory 32 gb

molecule  {
0 1
  S        2.2579180    -0.2726900    -0.2934460
  O       -2.2551230    -0.6936910    -0.5624970
  O       -0.5761930    -1.5125764     0.7356895
  N       -1.2606890     1.7473760     0.2743420
  C       -0.3743770     0.7050360    -0.2599020
  C        0.9828140     0.8061630     0.4219110
  C       -1.0384360    -0.6244090     0.0410490
  H       -0.2310720     0.7525000    -1.3524110
  H        1.3604600     1.8262100     0.3009430
  H        0.8701070     0.6147400     1.4903500
  H       -2.1754500     1.6690270    -0.1683570
  H       -0.8885410     2.6612730     0.0174870
  H        1.7688800    -1.4122240     0.2118940
  H       -2.6365250    -1.5573750    -0.2997250
units angstrom
no_reorient  #important for SAPT in psi4, default
symmetry c1  #important for SAPT in psi4, default
}

set PROPERTIES_ORIGIN ["COM"]
properties('MP2/aug-cc-pvtz', properties = ['dipole'])
--------------------------------------------------------------------------

    Molecular point group: c1
  Charge       = 0
  Multiplicity = 1
  Basis Set: AUG-CC-PVTZ
    Blend: AUG-CC-PVTZ
  Basis Set: (AUG-CC-PVTZ AUX)
    Blend: AUG-CC-PVTZ-JKFIT

    Orbital Energies [Eh]
    ---------------------

    Doubly Occupied:

       1A    -91.949523     2A    -20.630139     3A    -20.565999
       4A    -15.569557     5A    -11.401727     6A    -11.293746
       7A    -11.267814     8A     -8.950969     9A     -6.632336
      10A     -6.631399    11A     -6.630410    12A     -1.473755
      13A     -1.372525    14A     -1.216012    15A     -1.062851
      16A     -0.964280    17A     -0.879055    18A     -0.791277
      19A     -0.721015    20A     -0.716419    21A     -0.671936
      22A     -0.656964    23A     -0.624133    24A     -0.603022
      25A     -0.566728    26A     -0.556645    27A     -0.524546
      28A     -0.495958    29A     -0.474554    30A     -0.449444
      31A     -0.422369    32A     -0.358542

  @DF-RHF Final Energy:  -719.53850255436384

   => Energetics <=

    Nuclear Repulsion Energy =            380.3662183355943966
    One-Electron Energy =               -1745.5581365663165343
    Two-Electron Energy =                 645.6534156763583496
    Total Energy =                       -719.5385025543638449
  Basis Set: (AUG-CC-PVTZ AUX)
    Blend: AUG-CC-PVTZ-RI
    Molecular point group: c1

    Geometry (in Angstrom), charge = 0, multiplicity = 1:

       Center              X                  Y                   Z               Mass
    ------------   -----------------  -----------------  -----------------  -----------------
         S            2.240211072841    -0.237095644762    -0.292356901760    31.972071174400
         O           -2.272829927159    -0.658096644762    -0.561407901760    15.994914619570
         O           -0.593899927159    -1.476982044762     0.736778598240    15.994914619570
         N           -1.278395927159     1.782970355238     0.275431098240    14.003074004430
         C           -0.392083927159     0.740630355238    -0.258812901760    12.000000000000
         C            0.965107072841     0.841757355238     0.423000098240    12.000000000000
         C           -1.056142927159    -0.588814644762     0.042138098240    12.000000000000
         H           -0.248778927159     0.788094355238    -1.351321901760     1.007825032230
         H            1.342753072841     1.861804355238     0.302032098240     1.007825032230
         H            0.852400072841     0.650334355238     1.491439098240     1.007825032230
         H           -2.193156927159     1.704621355238    -0.167267901760     1.007825032230
         H           -0.906247927159     2.696867355238     0.018576098240     1.007825032230
         H            1.751173072841    -1.376629644762     0.212983098240     1.007825032230
         H           -2.654231927159    -1.521780644762    -0.298635901760     1.007825032230

  Basis Set: AUG-CC-PVTZ
    Blend: AUG-CC-PVTZ
  Basis Set: (AUG-CC-PVTZ AUX)
    Blend: AUG-CC-PVTZ-JKFIT
	 Reference Energy          =    -719.5385025543638449 [Eh]
	 Singles Energy            =      -0.0000000000000000 [Eh]
	 Same-Spin Energy          =      -0.3748761709531000 [Eh]
	 Opposite-Spin Energy      =      -1.1595388258093109 [Eh]
	 Correlation Energy        =      -1.5344149967624108 [Eh]
	 Total Energy              =    -721.0729175511262383 [Eh]

	 ================> DF-SCS-MP2 Energies <==================
	-----------------------------------------------------------
	 SCS Same-Spin Scale       =       0.3333333333333333 [-]
	 SCS Opposite-Spin Scale   =       1.2000000000000000 [-]
	 SCS Same-Spin Energy      =      -0.1249587236510333 [Eh]
	 SCS Opposite-Spin Energy  =      -1.3914465909711731 [Eh]
	 SCS Correlation Energy    =      -1.5164053146222063 [Eh]
	 SCS Total Energy          =    -721.0549078689861062 [Eh]
	-----------------------------------------------------------

  Dipole Moment: [D]
     X:    -2.0807      Y:     1.2400      Z:    -1.2088     Total:     2.7070

*** Psi4 exiting successfully. Buy a developer a beer!
