                               Psi4 1.4a3.dev225

  ==> Input File <==

--------------------------------------------------------------------------
#psi4
#
memory 32 gb

molecule  {
0 1
  S        2.2579050    -0.2727850    -0.2934720
  O       -2.2550500    -0.6937950    -0.5626610
  O       -0.5937490    -1.5240650     0.7322790
  N       -1.2606540     1.7474040     0.2743750
  C       -0.3743580     0.7050630    -0.2599560
  C        0.9650290     0.8048653     0.4129305
  C       -1.0384730    -0.6243520     0.0410630
  H       -0.2310980     0.7525420    -1.3524390
  H        1.3604840     1.8262480     0.3009370
  H        0.8701350     0.6147610     1.4903210
  H       -2.1753310     1.6691650    -0.1685200
  H       -0.8883350     2.6612490     0.0175910
  H        1.7689400    -1.4123290     0.2119310
  H       -2.6364810    -1.5574560    -0.2998170
units angstrom
no_reorient  #important for SAPT in psi4, default
symmetry c1  #important for SAPT in psi4, default
}

set PROPERTIES_ORIGIN ["COM"]
properties('MP2/aug-cc-pvtz', properties = ['dipole'])
--------------------------------------------------------------------------

    Molecular point group: c1
  Charge       = 0
  Multiplicity = 1
  Basis Set: AUG-CC-PVTZ
    Blend: AUG-CC-PVTZ
  Basis Set: (AUG-CC-PVTZ AUX)
    Blend: AUG-CC-PVTZ-JKFIT

    Orbital Energies [Eh]
    ---------------------

    Doubly Occupied:

       1A    -91.950143     2A    -20.628518     3A    -20.565845
       4A    -15.570208     5A    -11.401711     6A    -11.294217
       7A    -11.268932     8A     -8.951459     9A     -6.632811
      10A     -6.631871    11A     -6.630888    12A     -1.473800
      13A     -1.371041    14A     -1.217928    15A     -1.064232
      16A     -0.964684    17A     -0.880231    18A     -0.790554
      19A     -0.720594    20A     -0.717143    21A     -0.672575
      22A     -0.657468    23A     -0.623261    24A     -0.603548
      25A     -0.566700    26A     -0.559688    27A     -0.522420
      28A     -0.495122    29A     -0.474032    30A     -0.449518
      31A     -0.423604    32A     -0.359502

  @DF-RHF Final Energy:  -719.53822147571168

   => Energetics <=

    Nuclear Repulsion Energy =            380.3773329444075557
    One-Electron Energy =               -1745.5626089277111532
    Two-Electron Energy =                 645.6470545075919745
    Total Energy =                       -719.5382214757116799
  Basis Set: (AUG-CC-PVTZ AUX)
    Blend: AUG-CC-PVTZ-RI
    Molecular point group: c1

    Geometry (in Angstrom), charge = 0, multiplicity = 1:

       Center              X                  Y                   Z               Mass
    ------------   -----------------  -----------------  -----------------  -----------------
         S            2.244269656716    -0.235516512387    -0.291011494364    31.972071174400
         O           -2.268685343284    -0.656526512387    -0.560200494364    15.994914619570
         O           -0.607384343284    -1.486796512387     0.734739505636    15.994914619570
         N           -1.274289343284     1.784672487613     0.276835505636    14.003074004430
         C           -0.387993343284     0.742331487613    -0.257495494364    12.000000000000
         C            0.951393656716     0.842133787613     0.415391005636    12.000000000000
         C           -1.052108343284    -0.587083512387     0.043523505636    12.000000000000
         H           -0.244733343284     0.789810487613    -1.349978494364     1.007825032230
         H            1.346848656716     1.863516487613     0.303397505636     1.007825032230
         H            0.856499656716     0.652029487613     1.492781505636     1.007825032230
         H           -2.188966343284     1.706433487613    -0.166059494364     1.007825032230
         H           -0.901970343284     2.698517487613     0.020051505636     1.007825032230
         H            1.755304656716    -1.375060512387     0.214391505636     1.007825032230
         H           -2.650116343284    -1.520187512387    -0.297356494364     1.007825032230

  Basis Set: AUG-CC-PVTZ
    Blend: AUG-CC-PVTZ
  Basis Set: (AUG-CC-PVTZ AUX)
    Blend: AUG-CC-PVTZ-JKFIT
	 Reference Energy          =    -719.5382214757116799 [Eh]
	 Singles Energy            =      -0.0000000000000000 [Eh]
	 Same-Spin Energy          =      -0.3749319440288004 [Eh]
	 Opposite-Spin Energy      =      -1.1595935038470162 [Eh]
	 Correlation Energy        =      -1.5345254478758166 [Eh]
	 Total Energy              =    -721.0727469235874878 [Eh]

	 ================> DF-SCS-MP2 Energies <==================
	-----------------------------------------------------------
	 SCS Same-Spin Scale       =       0.3333333333333333 [-]
	 SCS Opposite-Spin Scale   =       1.2000000000000000 [-]
	 SCS Same-Spin Energy      =      -0.1249773146762668 [Eh]
	 SCS Opposite-Spin Energy  =      -1.3915122046164194 [Eh]
	 SCS Correlation Energy    =      -1.5164895192926862 [Eh]
	 SCS Total Energy          =    -721.0547109950043705 [Eh]
	-----------------------------------------------------------

  Dipole Moment: [D]
     X:    -2.0356      Y:     1.2847      Z:    -1.2041     Total:     2.6914

*** Psi4 exiting successfully. Buy a developer a beer!
