                               Psi4 1.3.2 release

  ==> Input File <==

--------------------------------------------------------------------------
#psi4
#
memory 32 gb

molecule  {
0 1
  S        2.2579180    -0.2726900    -0.2934460
  O       -2.2551230    -0.6936910    -0.5624970
  O       -0.5935940    -1.5242440     0.7320250
  N       -1.2606890     1.7473760     0.2743420
  C       -0.3743770     0.7050360    -0.2599020
  C        0.8936536     0.7995195     0.3771194
  C       -1.0384360    -0.6244090     0.0410490
  H       -0.2310720     0.7525000    -1.3524110
  H        1.3604600     1.8262100     0.3009430
  H        0.8701070     0.6147400     1.4903500
  H       -2.1754500     1.6690270    -0.1683570
  H       -0.8885410     2.6612730     0.0174870
  H        1.7688800    -1.4122240     0.2118940
  H       -2.6365250    -1.5573750    -0.2997250
units angstrom
no_reorient  #important for SAPT in psi4, default
symmetry c1  #important for SAPT in psi4, default
}

set PROPERTIES_ORIGIN ["COM"]
properties('MP2/aug-cc-pvtz', properties = ['dipole'])
--------------------------------------------------------------------------

    Molecular point group: c1
  Charge       = 0
  Multiplicity = 1
  Basis Set: AUG-CC-PVTZ
    Blend: AUG-CC-PVTZ
  Basis Set: (AUG-CC-PVTZ AUX)
    Blend: AUG-CC-PVTZ-JKFIT

    Orbital Energies [Eh]
    ---------------------

    Doubly Occupied:

       1A    -91.950385     2A    -20.629128     3A    -20.566884
       4A    -15.571061     5A    -11.402610     6A    -11.291309
       7A    -11.271413     8A     -8.951199     9A     -6.632492
      10A     -6.631546    11A     -6.630589    12A     -1.474642
      13A     -1.371989    14A     -1.224258    15A     -1.068948
      16A     -0.963951    17A     -0.884672    18A     -0.787879
      19A     -0.722224    20A     -0.720152    21A     -0.675629
      22A     -0.658758    23A     -0.622336    24A     -0.607993
      25A     -0.578859    26A     -0.552605    27A     -0.513802
      28A     -0.494287    29A     -0.470661    30A     -0.446951
      31A     -0.425450    32A     -0.360369

  @DF-RHF Final Energy:  -719.52772578392728

   => Energetics <=

    Nuclear Repulsion Energy =            381.2412100098452470
    One-Electron Energy =               -1747.2278070070060494
    Two-Electron Energy =                 646.4588712132335786
    Total Energy =                       -719.5277257839272806
  Basis Set: (AUG-CC-PVTZ AUX)
    Blend: AUG-CC-PVTZ-RI
    Molecular point group: c1

    Geometry (in Angstrom), charge = 0, multiplicity = 1:

       Center              X                  Y                   Z               Mass
    ------------   -----------------  -----------------  -----------------  -----------------
         S            2.251351835512    -0.234894811703    -0.287431155621    31.972071174400
         O           -2.261689164488    -0.655895811703    -0.556482155621    15.994914619570
         O           -0.600160164488    -1.486448811703     0.738039844379    15.994914619570
         N           -1.267255164488     1.785171188297     0.280356844379    14.003074004430
         C           -0.380943164488     0.742831188297    -0.253887155621    12.000000000000
         C            0.887087435512     0.837314688297     0.383134244379    12.000000000000
         C           -1.045002164488    -0.586613811703     0.047063844379    12.000000000000
         H           -0.237638164488     0.790295188297    -1.346396155621     1.007825032230
         H            1.353893835512     1.864005188297     0.306957844379     1.007825032230
         H            0.863540835512     0.652535188297     1.496364844379     1.007825032230
         H           -2.182016164488     1.706822188297    -0.162342155621     1.007825032230
         H           -0.895107164488     2.699068188297     0.023501844379     1.007825032230
         H            1.762313835512    -1.374428811703     0.217908844379     1.007825032230
         H           -2.643091164488    -1.519579811703    -0.293710155621     1.007825032230

  Basis Set: AUG-CC-PVTZ
    Blend: AUG-CC-PVTZ
  Basis Set: (AUG-CC-PVTZ AUX)
    Blend: AUG-CC-PVTZ-JKFIT
	 Reference Energy          =    -719.5277257839272806 [Eh]
	 Singles Energy            =      -0.0000000000000000 [Eh]
	 Same-Spin Energy          =      -0.3758419507190685 [Eh]
	 Opposite-Spin Energy      =      -1.1609684885395153 [Eh]
	 Correlation Energy        =      -1.5368104392585837 [Eh]
	 Total Energy              =    -721.0645362231858826 [Eh]

	 ================> DF-SCS-MP2 Energies <==================
	-----------------------------------------------------------
	 SCS Same-Spin Scale       =       0.3333333333333333 [-]
	 SCS Opposite-Spin Scale   =       1.2000000000000000 [-]
	 SCS Same-Spin Energy      =      -0.1252806502396895 [Eh]
	 SCS Opposite-Spin Energy  =      -1.3931621862474184 [Eh]
	 SCS Correlation Energy    =      -1.5184428364871079 [Eh]
	 SCS Total Energy          =    -721.0461686204143916 [Eh]
	-----------------------------------------------------------

  Dipole Moment: [D]
     X:    -2.0809      Y:     1.2874      Z:    -1.1984     Total:     2.7247

*** Psi4 exiting successfully. Buy a developer a beer!
