                               Psi4 1.3.2 release

  ==> Input File <==

--------------------------------------------------------------------------
#psi4
#
memory 32 gb

molecule  {
0 1
  S        2.2579180    -0.2726900    -0.2934460
  O       -2.2551230    -0.6936910    -0.5624970
  O       -0.5935940    -1.5242440     0.7320250
  N       -1.2606890     1.7473760     0.2743420
  C       -0.3743770     0.7050360    -0.2599020
  C        0.8044932     0.7928760     0.3323278
  C       -1.0384360    -0.6244090     0.0410490
  H       -0.2310720     0.7525000    -1.3524110
  H        1.3604600     1.8262100     0.3009430
  H        0.8701070     0.6147400     1.4903500
  H       -2.1754500     1.6690270    -0.1683570
  H       -0.8885410     2.6612730     0.0174870
  H        1.7688800    -1.4122240     0.2118940
  H       -2.6365250    -1.5573750    -0.2997250
units angstrom
no_reorient  #important for SAPT in psi4, default
symmetry c1  #important for SAPT in psi4, default
}

set PROPERTIES_ORIGIN ["COM"]
properties('MP2/aug-cc-pvtz', properties = ['dipole'])
--------------------------------------------------------------------------

    Molecular point group: c1
  Charge       = 0
  Multiplicity = 1
  Basis Set: AUG-CC-PVTZ
    Blend: AUG-CC-PVTZ
  Basis Set: (AUG-CC-PVTZ AUX)
    Blend: AUG-CC-PVTZ-JKFIT

    Orbital Energies [Eh]
    ---------------------

    Doubly Occupied:

       1A    -91.950929     2A    -20.629988     3A    -20.568305
       4A    -15.572510     5A    -11.403988     6A    -11.286408
       7A    -11.275558     8A     -8.951137     9A     -6.632349
      10A     -6.631399    11A     -6.630462    12A     -1.475835
      13A     -1.373289    14A     -1.235345    15A     -1.079580
      16A     -0.961478    17A     -0.891600    18A     -0.783124
      19A     -0.727860    20A     -0.721627    21A     -0.680501
      22A     -0.660777    23A     -0.622652    24A     -0.618356
      25A     -0.592275    26A     -0.539743    27A     -0.505879
      28A     -0.492224    29A     -0.463259    30A     -0.442501
      31A     -0.425441    32A     -0.360230

  @DF-RHF Final Energy:  -719.49093460168456

   => Energetics <=

    Nuclear Repulsion Energy =            382.4276020645817766
    One-Electron Energy =               -1749.4638516994505153
    Two-Electron Energy =                 647.5453150331841243
    Total Energy =                       -719.4909346016845575
  Basis Set: (AUG-CC-PVTZ AUX)
    Blend: AUG-CC-PVTZ-RI
    Molecular point group: c1

    Geometry (in Angstrom), charge = 0, multiplicity = 1:

       Center              X                  Y                   Z               Mass
    ------------   -----------------  -----------------  -----------------  -----------------
         S            2.260192746216    -0.234236059721    -0.282989738401    31.972071174400
         O           -2.252848253784    -0.655237059721    -0.552040738401    15.994914619570
         O           -0.591319253784    -1.485790059721     0.742481261599    15.994914619570
         N           -1.258414253784     1.785829940279     0.284798261599    14.003074004430
         C           -0.372102253784     0.743489940279    -0.249445738401    12.000000000000
         C            0.806767946216     0.831329940279     0.342784061599    12.000000000000
         C           -1.036161253784    -0.585955059721     0.051505261599    12.000000000000
         H           -0.228797253784     0.790953940279    -1.341954738401     1.007825032230
         H            1.362734746216     1.864663940279     0.311399261599     1.007825032230
         H            0.872381746216     0.653193940279     1.500806261599     1.007825032230
         H           -2.173175253784     1.707480940279    -0.157900738401     1.007825032230
         H           -0.886266253784     2.699726940279     0.027943261599     1.007825032230
         H            1.771154746216    -1.373770059721     0.222350261599     1.007825032230
         H           -2.634250253784    -1.518921059721    -0.289268738401     1.007825032230

  Basis Set: AUG-CC-PVTZ
    Blend: AUG-CC-PVTZ
  Basis Set: (AUG-CC-PVTZ AUX)
    Blend: AUG-CC-PVTZ-JKFIT
	 Reference Energy          =    -719.4909346016845575 [Eh]
	 Singles Energy            =      -0.0000000000000000 [Eh]
	 Same-Spin Energy          =      -0.3778879309534655 [Eh]
	 Opposite-Spin Energy      =      -1.1641933805151656 [Eh]
	 Correlation Energy        =      -1.5420813114686311 [Eh]
	 Total Energy              =    -721.0330159131532355 [Eh]

	 ================> DF-SCS-MP2 Energies <==================
	-----------------------------------------------------------
	 SCS Same-Spin Scale       =       0.3333333333333333 [-]
	 SCS Opposite-Spin Scale   =       1.2000000000000000 [-]
	 SCS Same-Spin Energy      =      -0.1259626436511551 [Eh]
	 SCS Opposite-Spin Energy  =      -1.3970320566181986 [Eh]
	 SCS Correlation Energy    =      -1.5229947002693538 [Eh]
	 SCS Total Energy          =    -721.0139293019539082 [Eh]
	-----------------------------------------------------------

  Dipole Moment: [D]
     X:    -2.1476      Y:     1.2810      Z:    -1.1994     Total:     2.7734

*** Psi4 exiting successfully. Buy a developer a beer!
