                               Psi4 1.3.2 release

  ==> Input File <==

--------------------------------------------------------------------------
#psi4
#
memory 32 gb

molecule  {
0 1
  S        2.2579180    -0.2726900    -0.2934460
  O       -2.2551230    -0.6936910    -0.5624970
  O       -0.7006572    -1.5883752     0.7056617
  N       -1.2606890     1.7473760     0.2743420
  C       -0.3743770     0.7050360    -0.2599020
  C        0.9828140     0.8061630     0.4219110
  C       -1.0384360    -0.6244090     0.0410490
  H       -0.2310720     0.7525000    -1.3524110
  H        1.3604600     1.8262100     0.3009430
  H        0.8701070     0.6147400     1.4903500
  H       -2.1754500     1.6690270    -0.1683570
  H       -0.8885410     2.6612730     0.0174870
  H        1.7688800    -1.4122240     0.2118940
  H       -2.6365250    -1.5573750    -0.2997250
units angstrom
no_reorient  #important for SAPT in psi4, default
symmetry c1  #important for SAPT in psi4, default
}

set PROPERTIES_ORIGIN ["COM"]
properties('MP2/aug-cc-pvtz', properties = ['dipole'])
--------------------------------------------------------------------------

    Molecular point group: c1
  Charge       = 0
  Multiplicity = 1
  Basis Set: AUG-CC-PVTZ
    Blend: AUG-CC-PVTZ
  Basis Set: (AUG-CC-PVTZ AUX)
    Blend: AUG-CC-PVTZ-JKFIT

    Orbital Energies [Eh]
    ---------------------

    Doubly Occupied:

       1A    -91.953720     2A    -20.617263     3A    -20.562843
       4A    -15.572587     5A    -11.400295     6A    -11.300879
       7A    -11.272248     8A     -8.955133     9A     -6.636488
      10A     -6.635548    11A     -6.634544    12A     -1.473394
      13A     -1.359841    14A     -1.219934    15A     -1.067624
      16A     -0.967451    17A     -0.880874    18A     -0.789606
      19A     -0.718424    20A     -0.713659    21A     -0.672059
      22A     -0.658277    23A     -0.621551    24A     -0.602022
      25A     -0.570983    26A     -0.560084    27A     -0.526062
      28A     -0.490008    29A     -0.473993    30A     -0.452807
      31A     -0.426491    32A     -0.362438

  @DF-RHF Final Energy:  -719.53645966450324

   => Energetics <=

    Nuclear Repulsion Energy =            379.1701731582914476
    One-Electron Energy =               -1743.1150080062859615
    Two-Electron Energy =                 644.4083751834913301
    Total Energy =                       -719.5364596645032407
  Basis Set: (AUG-CC-PVTZ AUX)
    Blend: AUG-CC-PVTZ-RI
    Molecular point group: c1

    Geometry (in Angstrom), charge = 0, multiplicity = 1:

       Center              X                  Y                   Z               Mass
    ------------   -----------------  -----------------  -----------------  -----------------
         S            2.256661232902    -0.227077483778    -0.288388193358    31.972071174400
         O           -2.256379767098    -0.648078483778    -0.557439193358    15.994914619570
         O           -0.701913967098    -1.542762683778     0.710719506642    15.994914619570
         N           -1.261945767098     1.792988516222     0.279399806642    14.003074004430
         C           -0.375633767098     0.750648516222    -0.254844193358    12.000000000000
         C            0.981557232902     0.851775516222     0.426968806642    12.000000000000
         C           -1.039692767098    -0.578796483778     0.046106806642    12.000000000000
         H           -0.232328767098     0.798112516222    -1.347353193358     1.007825032230
         H            1.359203232902     1.871822516222     0.306000806642     1.007825032230
         H            0.868850232902     0.660352516222     1.495407806642     1.007825032230
         H           -2.176706767098     1.714639516222    -0.163299193358     1.007825032230
         H           -0.889797767098     2.706885516222     0.022544806642     1.007825032230
         H            1.767623232902    -1.366611483778     0.216951806642     1.007825032230
         H           -2.637781767098    -1.511762483778    -0.294667193358     1.007825032230

  Basis Set: AUG-CC-PVTZ
    Blend: AUG-CC-PVTZ
  Basis Set: (AUG-CC-PVTZ AUX)
    Blend: AUG-CC-PVTZ-JKFIT
	 Reference Energy          =    -719.5364596645032407 [Eh]
	 Singles Energy            =      -0.0000000000000000 [Eh]
	 Same-Spin Energy          =      -0.3744670979010951 [Eh]
	 Opposite-Spin Energy      =      -1.1588813155389495 [Eh]
	 Correlation Energy        =      -1.5333484134400446 [Eh]
	 Total Energy              =    -721.0698080779433212 [Eh]

	 ================> DF-SCS-MP2 Energies <==================
	-----------------------------------------------------------
	 SCS Same-Spin Scale       =       0.3333333333333333 [-]
	 SCS Opposite-Spin Scale   =       1.2000000000000000 [-]
	 SCS Same-Spin Energy      =      -0.1248223659670317 [Eh]
	 SCS Opposite-Spin Energy  =      -1.3906575786467392 [Eh]
	 SCS Correlation Energy    =      -1.5154799446137710 [Eh]
	 SCS Total Energy          =    -721.0519396091169710 [Eh]
	-----------------------------------------------------------

  Dipole Moment: [D]
     X:    -1.6839      Y:     1.5282      Z:    -1.1750     Total:     2.5596

*** Psi4 exiting successfully. Buy a developer a beer!
