                               Psi4 1.3.2 release

  ==> Input File <==

--------------------------------------------------------------------------
#psi4
#
memory 32 gb

molecule  {
0 1
  S        2.2579180    -0.2726900    -0.2934460
  O       -2.2551230    -0.6936910    -0.5624970
  O       -0.5935940    -1.5242440     0.7320250
  N       -1.2606890     1.7473760     0.2743420
  C       -0.3743770     0.7050360    -0.2599020
  C        0.9126383     0.8655380     0.4612809
  C       -1.0384360    -0.6244090     0.0410490
  H       -0.2310720     0.7525000    -1.3524110
  H        1.3604600     1.8262100     0.3009430
  H        0.8701070     0.6147400     1.4903500
  H       -2.1754500     1.6690270    -0.1683570
  H       -0.8885410     2.6612730     0.0174870
  H        1.7688800    -1.4122240     0.2118940
  H       -2.6365250    -1.5573750    -0.2997250
units angstrom
no_reorient  #important for SAPT in psi4, default
symmetry c1  #important for SAPT in psi4, default
}

set PROPERTIES_ORIGIN ["COM"]
properties('MP2/aug-cc-pvtz', properties = ['dipole'])
--------------------------------------------------------------------------

    Molecular point group: c1
  Charge       = 0
  Multiplicity = 1
  Basis Set: AUG-CC-PVTZ
    Blend: AUG-CC-PVTZ
  Basis Set: (AUG-CC-PVTZ AUX)
    Blend: AUG-CC-PVTZ-JKFIT

    Orbital Energies [Eh]
    ---------------------

    Doubly Occupied:

       1A    -91.946517     2A    -20.629959     3A    -20.566906
       4A    -15.570310     5A    -11.403525     6A    -11.295501
       7A    -11.270063     8A     -8.947020     9A     -6.628277
      10A     -6.627351    11A     -6.626429    12A     -1.475092
      13A     -1.372139    14A     -1.221630    15A     -1.058037
      16A     -0.959517    17A     -0.884843    18A     -0.796029
      19A     -0.723576    20A     -0.720319    21A     -0.674528
      22A     -0.659011    23A     -0.627808    24A     -0.604602
      25A     -0.571196    26A     -0.569012    27A     -0.520706
      28A     -0.494172    29A     -0.470554    30A     -0.437839
      31A     -0.425574    32A     -0.357459

  @DF-RHF Final Energy:  -719.53267144377094

   => Energetics <=

    Nuclear Repulsion Energy =            379.6017653646260328
    One-Electron Energy =               -1743.9978765271703196
    Two-Electron Energy =                 644.8634397187732930
    Total Energy =                       -719.5326714437709370
  Basis Set: (AUG-CC-PVTZ AUX)
    Blend: AUG-CC-PVTZ-RI
    Molecular point group: c1

    Geometry (in Angstrom), charge = 0, multiplicity = 1:

       Center              X                  Y                   Z               Mass
    ------------   -----------------  -----------------  -----------------  -----------------
         S            2.249469362604    -0.241441032484    -0.295776388552    31.972071174400
         O           -2.263571637396    -0.662442032484    -0.564827388552    15.994914619570
         O           -0.602042637396    -1.492995032484     0.729694611448    15.994914619570
         N           -1.269137637396     1.778624967516     0.272011611448    14.003074004430
         C           -0.382825637396     0.736284967516    -0.262232388552    12.000000000000
         C            0.904189662604     0.896786967516     0.458950511448    12.000000000000
         C           -1.046884637396    -0.593160032484     0.038718611448    12.000000000000
         H           -0.239520637396     0.783748967516    -1.354741388552     1.007825032230
         H            1.352011362604     1.857458967516     0.298612611448     1.007825032230
         H            0.861658362604     0.645988967516     1.488019611448     1.007825032230
         H           -2.183898637396     1.700275967516    -0.170687388552     1.007825032230
         H           -0.896989637396     2.692521967516     0.015156611448     1.007825032230
         H            1.760431362604    -1.380975032484     0.209563611448     1.007825032230
         H           -2.644973637396    -1.526126032484    -0.302055388552     1.007825032230

  Basis Set: AUG-CC-PVTZ
    Blend: AUG-CC-PVTZ
  Basis Set: (AUG-CC-PVTZ AUX)
    Blend: AUG-CC-PVTZ-JKFIT
	 Reference Energy          =    -719.5326714437709370 [Eh]
	 Singles Energy            =      -0.0000000000000000 [Eh]
	 Same-Spin Energy          =      -0.3747204158532959 [Eh]
	 Opposite-Spin Energy      =      -1.1597812095447453 [Eh]
	 Correlation Energy        =      -1.5345016253980410 [Eh]
	 Total Energy              =    -721.0671730691690300 [Eh]

	 ================> DF-SCS-MP2 Energies <==================
	-----------------------------------------------------------
	 SCS Same-Spin Scale       =       0.3333333333333333 [-]
	 SCS Opposite-Spin Scale   =       1.2000000000000000 [-]
	 SCS Same-Spin Energy      =      -0.1249068052844319 [Eh]
	 SCS Opposite-Spin Energy  =      -1.3917374514536942 [Eh]
	 SCS Correlation Energy    =      -1.5166442567381262 [Eh]
	 SCS Total Energy          =    -721.0493157005090552 [Eh]
	-----------------------------------------------------------

  Dipole Moment: [D]
     X:    -2.1889      Y:     1.3620      Z:    -1.1692     Total:     2.8308

*** Psi4 exiting successfully. Buy a developer a beer!
