                               Psi4 1.3.2 release

  ==> Input File <==

--------------------------------------------------------------------------
#psi4
#
memory 32 gb

molecule  {
0 1
  S        2.2579180    -0.2726900    -0.2934460
  O       -2.2551230    -0.6936910    -0.5624970
  O       -0.5935940    -1.5242440     0.7320250
  N       -1.2606890     1.7473760     0.2743420
  C       -0.3777606     0.6032029    -0.2297845
  C        0.9828140     0.8061630     0.4219110
  C       -1.0384360    -0.6244090     0.0410490
  H       -0.2310720     0.7525000    -1.3524110
  H        1.3604600     1.8262100     0.3009430
  H        0.8701070     0.6147400     1.4903500
  H       -2.1754500     1.6690270    -0.1683570
  H       -0.8885410     2.6612730     0.0174870
  H        1.7688800    -1.4122240     0.2118940
  H       -2.6365250    -1.5573750    -0.2997250
units angstrom
no_reorient  #important for SAPT in psi4, default
symmetry c1  #important for SAPT in psi4, default
}

set PROPERTIES_ORIGIN ["COM"]
properties('MP2/aug-cc-pvtz', properties = ['dipole'])
--------------------------------------------------------------------------

    Molecular point group: c1
  Charge       = 0
  Multiplicity = 1
  Basis Set: AUG-CC-PVTZ
    Blend: AUG-CC-PVTZ
  Basis Set: (AUG-CC-PVTZ AUX)
    Blend: AUG-CC-PVTZ-JKFIT

    Orbital Energies [Eh]
    ---------------------

    Doubly Occupied:

       1A    -91.949572     2A    -20.629920     3A    -20.566888
       4A    -15.569518     5A    -11.401093     6A    -11.295538
       7A    -11.271327     8A     -8.951171     9A     -6.632531
      10A     -6.631604    11A     -6.630599    12A     -1.477554
      13A     -1.373844    14A     -1.202667    15A     -1.066528
      16A     -0.983880    17A     -0.882688    18A     -0.790289
      19A     -0.723286    20A     -0.719143    21A     -0.670801
      22A     -0.650862    23A     -0.624543    24A     -0.595587
      25A     -0.585348    26A     -0.550107    27A     -0.523767
      28A     -0.494856    29A     -0.476516    30A     -0.452099
      31A     -0.418248    32A     -0.358543

  @DF-RHF Final Energy:  -719.52623366244654

   => Energetics <=

    Nuclear Repulsion Energy =            381.1717086573156621
    One-Electron Energy =               -1747.0940492120807903
    Two-Electron Energy =                 646.3961068923184712
    Total Energy =                       -719.5262336624465433
  Basis Set: (AUG-CC-PVTZ AUX)
    Blend: AUG-CC-PVTZ-RI
    Molecular point group: c1

    Geometry (in Angstrom), charge = 0, multiplicity = 1:

       Center              X                  Y                   Z               Mass
    ------------   -----------------  -----------------  -----------------  -----------------
         S            2.242846433683    -0.225456061389    -0.294858944908    31.972071174400
         O           -2.270194566317    -0.646457061389    -0.563909944908    15.994914619570
         O           -0.608665566317    -1.477010061389     0.730612055092    15.994914619570
         N           -1.275760566317     1.794609938611     0.272929055092    14.003074004430
         C           -0.392832166317     0.650436838611    -0.231197444908    12.000000000000
         C            0.967742433683     0.853396938611     0.420498055092    12.000000000000
         C           -1.053507566317    -0.577175061389     0.039636055092    12.000000000000
         H           -0.246143566317     0.799733938611    -1.353823944908     1.007825032230
         H            1.345388433683     1.873443938611     0.299530055092     1.007825032230
         H            0.855035433683     0.661973938611     1.488937055092     1.007825032230
         H           -2.190521566317     1.716260938611    -0.169769944908     1.007825032230
         H           -0.903612566317     2.708506938611     0.016074055092     1.007825032230
         H            1.753808433683    -1.364990061389     0.210481055092     1.007825032230
         H           -2.651596566317    -1.510141061389    -0.301137944908     1.007825032230

  Basis Set: AUG-CC-PVTZ
    Blend: AUG-CC-PVTZ
  Basis Set: (AUG-CC-PVTZ AUX)
    Blend: AUG-CC-PVTZ-JKFIT
	 Reference Energy          =    -719.5262336624465433 [Eh]
	 Singles Energy            =      -0.0000000000000000 [Eh]
	 Same-Spin Energy          =      -0.3754985698480213 [Eh]
	 Opposite-Spin Energy      =      -1.1609386888768745 [Eh]
	 Correlation Energy        =      -1.5364372587248958 [Eh]
	 Total Energy              =    -721.0626709211713887 [Eh]

	 ================> DF-SCS-MP2 Energies <==================
	-----------------------------------------------------------
	 SCS Same-Spin Scale       =       0.3333333333333333 [-]
	 SCS Opposite-Spin Scale   =       1.2000000000000000 [-]
	 SCS Same-Spin Energy      =      -0.1251661899493404 [Eh]
	 SCS Opposite-Spin Energy  =      -1.3931264266522494 [Eh]
	 SCS Correlation Energy    =      -1.5182926166015898 [Eh]
	 SCS Total Energy          =    -721.0445262790481138 [Eh]
	-----------------------------------------------------------

  Dipole Moment: [D]
     X:    -1.9408      Y:     1.2271      Z:    -1.2265     Total:     2.6032

*** Psi4 exiting successfully. Buy a developer a beer!
