                               Psi4 1.3.2 release

  ==> Input File <==

--------------------------------------------------------------------------
#psi4
#
memory 32 gb

molecule  {
0 1
  S        2.2579180    -0.2726900    -0.2934460
  O       -2.2607742    -0.7371457    -0.5442499
  O       -0.5935940    -1.5242440     0.7320250
  N       -1.2606890     1.7473760     0.2743420
  C       -0.3743770     0.7050360    -0.2599020
  C        0.9828140     0.8061630     0.4219110
  C       -1.0384360    -0.6244090     0.0410490
  H       -0.2310720     0.7525000    -1.3524110
  H        1.3604600     1.8262100     0.3009430
  H        0.8701070     0.6147400     1.4903500
  H       -2.1754500     1.6690270    -0.1683570
  H       -0.8885410     2.6612730     0.0174870
  H        1.7688800    -1.4122240     0.2118940
  H       -2.6365250    -1.5573750    -0.2997250
units angstrom
no_reorient  #important for SAPT in psi4, default
symmetry c1  #important for SAPT in psi4, default
}

set PROPERTIES_ORIGIN ["COM"]
properties('MP2/aug-cc-pvtz', properties = ['dipole'])
--------------------------------------------------------------------------

    Molecular point group: c1
  Charge       = 0
  Multiplicity = 1
  Basis Set: AUG-CC-PVTZ
    Blend: AUG-CC-PVTZ
  Basis Set: (AUG-CC-PVTZ AUX)
    Blend: AUG-CC-PVTZ-JKFIT

    Orbital Energies [Eh]
    ---------------------

    Doubly Occupied:

       1A    -91.950586     2A    -20.621832     3A    -20.563395
       4A    -15.571179     5A    -11.401537     6A    -11.297028
       7A    -11.269583     8A     -8.952030     9A     -6.633394
      10A     -6.632457    11A     -6.631465    12A     -1.478055
      13A     -1.371029    14A     -1.218112    15A     -1.064475
      16A     -0.967564    17A     -0.883621    18A     -0.799745
      19A     -0.719313    20A     -0.718565    21A     -0.671979
      22A     -0.658706    23A     -0.623191    24A     -0.602712
      25A     -0.568377    26A     -0.559085    27A     -0.524909
      28A     -0.493710    29A     -0.474604    30A     -0.450381
      31A     -0.424094    32A     -0.359643

  @DF-RHF Final Energy:  -719.54003135059122

   => Energetics <=

    Nuclear Repulsion Energy =            380.1370717741281169
    One-Electron Energy =               -1745.0414897667949390
    Two-Electron Energy =                 645.3643866420756012
    Total Energy =                       -719.5400313505912209
  Basis Set: (AUG-CC-PVTZ AUX)
    Blend: AUG-CC-PVTZ-RI
    Molecular point group: c1

    Geometry (in Angstrom), charge = 0, multiplicity = 1:

       Center              X                  Y                   Z               Mass
    ------------   -----------------  -----------------  -----------------  -----------------
         S            2.243257831505    -0.229810251389    -0.294284251987    31.972071174400
         O           -2.275434368495    -0.694265951389    -0.545088151987    15.994914619570
         O           -0.608254168495    -1.481364251389     0.731186748013    15.994914619570
         N           -1.275349168495     1.790255748611     0.273503748013    14.003074004430
         C           -0.389037168495     0.747915748611    -0.260740251987    12.000000000000
         C            0.968153831505     0.849042748611     0.421072748013    12.000000000000
         C           -1.053096168495    -0.581529251389     0.040210748013    12.000000000000
         H           -0.245732168495     0.795379748611    -1.353249251987     1.007825032230
         H            1.345799831505     1.869089748611     0.300104748013     1.007825032230
         H            0.855446831505     0.657619748611     1.489511748013     1.007825032230
         H           -2.190110168495     1.711906748611    -0.169195251987     1.007825032230
         H           -0.903201168495     2.704152748611     0.016648748013     1.007825032230
         H            1.754219831505    -1.369344251389     0.211055748013     1.007825032230
         H           -2.651185168495    -1.514495251389    -0.300563251987     1.007825032230

  Basis Set: AUG-CC-PVTZ
    Blend: AUG-CC-PVTZ
  Basis Set: (AUG-CC-PVTZ AUX)
    Blend: AUG-CC-PVTZ-JKFIT
	 Reference Energy          =    -719.5400313505912209 [Eh]
	 Singles Energy            =      -0.0000000000000000 [Eh]
	 Same-Spin Energy          =      -0.3739001551522892 [Eh]
	 Opposite-Spin Energy      =      -1.1575615620664257 [Eh]
	 Correlation Energy        =      -1.5314617172187148 [Eh]
	 Total Energy              =    -721.0714930678099108 [Eh]

	 ================> DF-SCS-MP2 Energies <==================
	-----------------------------------------------------------
	 SCS Same-Spin Scale       =       0.3333333333333333 [-]
	 SCS Opposite-Spin Scale   =       1.2000000000000000 [-]
	 SCS Same-Spin Energy      =      -0.1246333850507631 [Eh]
	 SCS Opposite-Spin Energy  =      -1.3890738744797109 [Eh]
	 SCS Correlation Energy    =      -1.5137072595304739 [Eh]
	 SCS Total Energy          =    -721.0537386101217407 [Eh]
	-----------------------------------------------------------

  Dipole Moment: [D]
     X:    -1.9668      Y:     1.3685      Z:    -1.2148     Total:     2.6864

*** Psi4 exiting successfully. Buy a developer a beer!
