                               Psi4 1.3.2 release

  ==> Input File <==

--------------------------------------------------------------------------
#psi4
#
memory 32 gb

molecule  {
0 1
  S        2.2579180    -0.2726900    -0.2934460
  O       -2.2551230    -0.6936910    -0.5624970
  O       -0.5589328    -1.5006382     0.7391423
  N       -1.2606890     1.7473760     0.2743420
  C       -0.3743770     0.7050360    -0.2599020
  C        0.9828140     0.8061630     0.4219110
  C       -1.0384360    -0.6244090     0.0410490
  H       -0.2310720     0.7525000    -1.3524110
  H        1.3604600     1.8262100     0.3009430
  H        0.8701070     0.6147400     1.4903500
  H       -2.1754500     1.6690270    -0.1683570
  H       -0.8885410     2.6612730     0.0174870
  H        1.7688800    -1.4122240     0.2118940
  H       -2.6365250    -1.5573750    -0.2997250
units angstrom
no_reorient  #important for SAPT in psi4, default
symmetry c1  #important for SAPT in psi4, default
}

set PROPERTIES_ORIGIN ["COM"]
properties('MP2/aug-cc-pvtz', properties = ['dipole'])
--------------------------------------------------------------------------

    Molecular point group: c1
  Charge       = 0
  Multiplicity = 1
  Basis Set: AUG-CC-PVTZ
    Blend: AUG-CC-PVTZ
  Basis Set: (AUG-CC-PVTZ AUX)
    Blend: AUG-CC-PVTZ-JKFIT

    Orbital Energies [Eh]
    ---------------------

    Doubly Occupied:

       1A    -91.948920     2A    -20.631885     3A    -20.566375
       4A    -15.569102     5A    -11.401952     6A    -11.292711
       7A    -11.267157     8A     -8.950371     9A     -6.631740
      10A     -6.630802    11A     -6.629816    12A     -1.473941
      13A     -1.374195    14A     -1.215422    15A     -1.062146
      16A     -0.963839    17A     -0.878814    18A     -0.791487
      19A     -0.721710    20A     -0.716453    21A     -0.671964
      22A     -0.656738    23A     -0.624603    24A     -0.603226
      25A     -0.566043    26A     -0.556104    27A     -0.524348
      28A     -0.496641    29A     -0.474406    30A     -0.448874
      31A     -0.421725    32A     -0.357982

  @DF-RHF Final Energy:  -719.53805716014597

   => Energetics <=

    Nuclear Repulsion Energy =            380.5657325058005540
    One-Electron Energy =               -1745.9645910964761697
    Two-Electron Energy =                 645.8608014305297047
    Total Energy =                       -719.5380571601459678
  Basis Set: (AUG-CC-PVTZ AUX)
    Blend: AUG-CC-PVTZ-RI
    Molecular point group: c1

    Geometry (in Angstrom), charge = 0, multiplicity = 1:

       Center              X                  Y                   Z               Mass
    ------------   -----------------  -----------------  -----------------  -----------------
         S            2.237929830100    -0.238673490447    -0.292813250756    31.972071174400
         O           -2.275111169900    -0.659674490447    -0.561864250756    15.994914619570
         O           -0.578920969900    -1.466621690447     0.739775049244    15.994914619570
         N           -1.280677169900     1.781392509553     0.274974749244    14.003074004430
         C           -0.394365169900     0.739052509553    -0.259269250756    12.000000000000
         C            0.962825830100     0.840179509553     0.422543749244    12.000000000000
         C           -1.058424169900    -0.590392490447     0.041681749244    12.000000000000
         H           -0.251060169900     0.786516509553    -1.351778250756     1.007825032230
         H            1.340471830100     1.860226509553     0.301575749244     1.007825032230
         H            0.850118830100     0.648756509553     1.490982749244     1.007825032230
         H           -2.195438169900     1.703043509553    -0.167724250756     1.007825032230
         H           -0.908529169900     2.695289509553     0.018119749244     1.007825032230
         H            1.748891830100    -1.378207490447     0.212526749244     1.007825032230
         H           -2.656513169900    -1.523358490447    -0.299092250756     1.007825032230

  Basis Set: AUG-CC-PVTZ
    Blend: AUG-CC-PVTZ
  Basis Set: (AUG-CC-PVTZ AUX)
    Blend: AUG-CC-PVTZ-JKFIT
	 Reference Energy          =    -719.5380571601459678 [Eh]
	 Singles Energy            =      -0.0000000000000000 [Eh]
	 Same-Spin Energy          =      -0.3749644555978637 [Eh]
	 Opposite-Spin Energy      =      -1.1596877348216452 [Eh]
	 Correlation Energy        =      -1.5346521904195090 [Eh]
	 Total Energy              =    -721.0727093505654466 [Eh]

	 ================> DF-SCS-MP2 Energies <==================
	-----------------------------------------------------------
	 SCS Same-Spin Scale       =       0.3333333333333333 [-]
	 SCS Opposite-Spin Scale   =       1.2000000000000000 [-]
	 SCS Same-Spin Energy      =      -0.1249881518659545 [Eh]
	 SCS Opposite-Spin Energy  =      -1.3916252817859742 [Eh]
	 SCS Correlation Energy    =      -1.5166134336519288 [Eh]
	 SCS Total Energy          =    -721.0546705937979368 [Eh]
	-----------------------------------------------------------

  Dipole Moment: [D]
     X:    -2.1359      Y:     1.1967      Z:    -1.2115     Total:     2.7316

*** Psi4 exiting successfully. Buy a developer a beer!
