                               Psi4 1.4a3.dev225

  ==> Input File <==

--------------------------------------------------------------------------
#psi4
#
memory 32 gb

molecule  {
0 1
  S        2.2579050    -0.2727850    -0.2934720
  O       -2.2550500    -0.6937950    -0.5626610
  O       -0.5937490    -1.5240650     0.7322790
  N       -1.2606540     1.7474040     0.2743750
  C       -0.3743580     0.7050630    -0.2599560
  C        0.9477755     0.8358844     0.4415737
  C       -1.0384730    -0.6243520     0.0410630
  H       -0.2310980     0.7525420    -1.3524390
  H        1.3604840     1.8262480     0.3009370
  H        0.8701350     0.6147610     1.4903210
  H       -2.1753310     1.6691650    -0.1685200
  H       -0.8883350     2.6612490     0.0175910
  H        1.7689400    -1.4123290     0.2119310
  H       -2.6364810    -1.5574560    -0.2998170
units angstrom
no_reorient  #important for SAPT in psi4, default
symmetry c1  #important for SAPT in psi4, default
}

set PROPERTIES_ORIGIN ["COM"]
properties('MP2/aug-cc-pvtz', properties = ['dipole'])
--------------------------------------------------------------------------

    Molecular point group: c1
  Charge       = 0
  Multiplicity = 1
  Basis Set: AUG-CC-PVTZ
    Blend: AUG-CC-PVTZ
  Basis Set: (AUG-CC-PVTZ AUX)
    Blend: AUG-CC-PVTZ-JKFIT

    Orbital Energies [Eh]
    ---------------------

    Doubly Occupied:

       1A    -91.948606     2A    -20.629131     3A    -20.566219
       4A    -15.570039     5A    -11.402472     6A    -11.295008
       7A    -11.268809     8A     -8.949499     9A     -6.630806
      10A     -6.629878    11A     -6.628927    12A     -1.474313
      13A     -1.371447    14A     -1.218898    15A     -1.060206
      16A     -0.962070    17A     -0.882315    18A     -0.793523
      19A     -0.721651    20A     -0.718488    21A     -0.673000
      22A     -0.657933    23A     -0.625608    24A     -0.603690
      25A     -0.568289    26A     -0.563602    27A     -0.522655
      28A     -0.494508    29A     -0.472149    30A     -0.445499
      31A     -0.424286    32A     -0.358609

  @DF-RHF Final Energy:  -719.53741444312448

   => Energetics <=

    Nuclear Repulsion Energy =            379.8751016863086534
    One-Electron Energy =               -1744.5607635475100778
    Two-Electron Energy =                 645.1482474180769486
    Total Energy =                       -719.5374144431244758
  Basis Set: (AUG-CC-PVTZ AUX)
    Blend: AUG-CC-PVTZ-RI
    Molecular point group: c1

    Geometry (in Angstrom), charge = 0, multiplicity = 1:

       Center              X                  Y                   Z               Mass
    ------------   -----------------  -----------------  -----------------  -----------------
         S            2.245980468386    -0.238592284739    -0.293851678723    31.972071174400
         O           -2.266974531614    -0.659602284739    -0.563040678723    15.994914619570
         O           -0.605673531614    -1.489872284739     0.731899321277    15.994914619570
         N           -1.272578531614     1.781596715261     0.273995321277    14.003074004430
         C           -0.386282531614     0.739255715261    -0.260335678723    12.000000000000
         C            0.935850968386     0.870077115261     0.441194021277    12.000000000000
         C           -1.050397531614    -0.590159284739     0.040683321277    12.000000000000
         H           -0.243022531614     0.786734715261    -1.352818678723     1.007825032230
         H            1.348559468386     1.860440715261     0.300557321277     1.007825032230
         H            0.858210468386     0.648953715261     1.489941321277     1.007825032230
         H           -2.187255531614     1.703357715261    -0.168899678723     1.007825032230
         H           -0.900259531614     2.695441715261     0.017211321277     1.007825032230
         H            1.757015468386    -1.378136284739     0.211551321277     1.007825032230
         H           -2.648405531614    -1.523263284739    -0.300196678723     1.007825032230

  Basis Set: AUG-CC-PVTZ
    Blend: AUG-CC-PVTZ
  Basis Set: (AUG-CC-PVTZ AUX)
    Blend: AUG-CC-PVTZ-JKFIT
	 Reference Energy          =    -719.5374144431244758 [Eh]
	 Singles Energy            =      -0.0000000000000000 [Eh]
	 Same-Spin Energy          =      -0.3746695316169897 [Eh]
	 Opposite-Spin Energy      =      -1.1594561427760632 [Eh]
	 Correlation Energy        =      -1.5341256743930529 [Eh]
	 Total Energy              =    -721.0715401175175430 [Eh]

	 ================> DF-SCS-MP2 Energies <==================
	-----------------------------------------------------------
	 SCS Same-Spin Scale       =       0.3333333333333333 [-]
	 SCS Opposite-Spin Scale   =       1.2000000000000000 [-]
	 SCS Same-Spin Energy      =      -0.1248898438723299 [Eh]
	 SCS Opposite-Spin Energy  =      -1.3913473713312758 [Eh]
	 SCS Correlation Energy    =      -1.5162372152036057 [Eh]
	 SCS Total Energy          =    -721.0536516583281355 [Eh]
	-----------------------------------------------------------

  Dipole Moment: [D]
     X:    -2.1026      Y:     1.3203      Z:    -1.1883     Total:     2.7525

*** Psi4 exiting successfully. Buy a developer a beer!
