                               Psi4 1.4a3.dev225

  ==> Input File <==

--------------------------------------------------------------------------
#psi4
#
memory 32 gb

molecule  {
0 1
  S        2.2579050    -0.2727850    -0.2934720
  O       -2.2550500    -0.6937950    -0.5626610
  O       -0.5937490    -1.5240650     0.7322790
  N       -1.2606540     1.7474040     0.2743750
  C       -0.3743580     0.7050630    -0.2599560
  C        0.9828610     0.8061940     0.4218890
  C       -1.0384730    -0.6243520     0.0410630
  H       -0.2310980     0.7525420    -1.3524390
  H        1.3604840     1.8262480     0.3009370
  H        0.8701350     0.6147610     1.4903210
  H       -2.1753310     1.6691650    -0.1685200
  H       -0.8883350     2.6612490     0.0175910
  H        1.7871978    -1.3697788     0.1930594
  H       -2.6364810    -1.5574560    -0.2998170
units angstrom
no_reorient  #important for SAPT in psi4, default
symmetry c1  #important for SAPT in psi4, default
}

set PROPERTIES_ORIGIN ["COM"]
properties('MP2/aug-cc-pvtz', properties = ['dipole'])
--------------------------------------------------------------------------

    Molecular point group: c1
  Charge       = 0
  Multiplicity = 1
  Basis Set: AUG-CC-PVTZ
    Blend: AUG-CC-PVTZ
  Basis Set: (AUG-CC-PVTZ AUX)
    Blend: AUG-CC-PVTZ-JKFIT

    Orbital Energies [Eh]
    ---------------------

    Doubly Occupied:

       1A    -91.946712     2A    -20.628277     3A    -20.565515
       4A    -15.570020     5A    -11.401367     6A    -11.294809
       7A    -11.268505     8A     -8.949528     9A     -6.631011
      10A     -6.629957    11A     -6.628901    12A     -1.473490
      13A     -1.370666    14A     -1.216619    15A     -1.065206
      16A     -0.966969    17A     -0.883254    18A     -0.791713
      19A     -0.720244    20A     -0.716341    21A     -0.672346
      22A     -0.657753    23A     -0.623818    24A     -0.602791
      25A     -0.569467    26A     -0.557256    27A     -0.528010
      28A     -0.495443    29A     -0.474549    30A     -0.451830
      31A     -0.423014    32A     -0.359636

  @DF-RHF Final Energy:  -719.53802325315303

   => Energetics <=

    Nuclear Repulsion Energy =            380.4286172371764110
    One-Electron Energy =               -1745.6632503084390464
    Two-Electron Energy =                 645.6966098181095504
    Total Energy =                       -719.5380232531530282
  Basis Set: (AUG-CC-PVTZ AUX)
    Blend: AUG-CC-PVTZ-RI
    Molecular point group: c1

    Geometry (in Angstrom), charge = 0, multiplicity = 1:

       Center              X                  Y                   Z               Mass
    ------------   -----------------  -----------------  -----------------  -----------------
         S            2.242349435690    -0.236002611200    -0.291742637251    31.972071174400
         O           -2.270605564310    -0.657012611200    -0.560931637251    15.994914619570
         O           -0.609304564310    -1.487282611200     0.734008362749    15.994914619570
         N           -1.276209564310     1.784186388800     0.276104362749    14.003074004430
         C           -0.389913564310     0.741845388800    -0.258226637251    12.000000000000
         C            0.967305435690     0.842976388800     0.423618362749    12.000000000000
         C           -1.054028564310    -0.587569611200     0.042792362749    12.000000000000
         H           -0.246653564310     0.789324388800    -1.350709637251     1.007825032230
         H            1.344928435690     1.863030388800     0.302666362749     1.007825032230
         H            0.854579435690     0.651543388800     1.492050362749     1.007825032230
         H           -2.190886564310     1.705947388800    -0.166790637251     1.007825032230
         H           -0.903890564310     2.698031388800     0.019320362749     1.007825032230
         H            1.771642235690    -1.332996411200     0.194788762749     1.007825032230
         H           -2.652036564310    -1.520673611200    -0.298087637251     1.007825032230

  Basis Set: AUG-CC-PVTZ
    Blend: AUG-CC-PVTZ
  Basis Set: (AUG-CC-PVTZ AUX)
    Blend: AUG-CC-PVTZ-JKFIT
	 Reference Energy          =    -719.5380232531530282 [Eh]
	 Singles Energy            =      -0.0000000000000000 [Eh]
	 Same-Spin Energy          =      -0.3747300219967545 [Eh]
	 Opposite-Spin Energy      =      -1.1591314345069943 [Eh]
	 Correlation Energy        =      -1.5338614565037489 [Eh]
	 Total Energy              =    -721.0718847096567288 [Eh]

	 ================> DF-SCS-MP2 Energies <==================
	-----------------------------------------------------------
	 SCS Same-Spin Scale       =       0.3333333333333333 [-]
	 SCS Opposite-Spin Scale   =       1.2000000000000000 [-]
	 SCS Same-Spin Energy      =      -0.1249100073322515 [Eh]
	 SCS Opposite-Spin Energy  =      -1.3909577214083930 [Eh]
	 SCS Correlation Energy    =      -1.5158677287406446 [Eh]
	 SCS Total Energy          =    -721.0538909818936872 [Eh]
	-----------------------------------------------------------

  Dipole Moment: [D]
     X:    -2.0104      Y:     1.2927      Z:    -1.2124     Total:     2.6801

*** Psi4 exiting successfully. Buy a developer a beer!
