                               Psi4 1.3.2 release

  ==> Input File <==

--------------------------------------------------------------------------
#psi4
#
memory 32 gb

molecule  {
0 1
  C        1.3343227    -0.8323508     0.1593635
  O        0.0000100     1.5029040     0.3799780
  S        0.0000000     0.2323190    -0.4386380
  C       -1.3418780    -0.8103900     0.1807640
  H        1.3059240    -1.7946100    -0.2933430
  H        2.2816510    -0.3148530    -0.0691800
  H        1.2585190    -0.8983510     1.2671320
  H       -1.3059460    -1.7945940    -0.2933460
  H       -1.2585290    -0.8983420     1.2671320
  H       -2.2816550    -0.3148250    -0.0691770
units angstrom
no_reorient  #important for SAPT in psi4, default
symmetry c1  #important for SAPT in psi4, default
}

set PROPERTIES_ORIGIN ["COM"]
properties('MP2/aug-cc-pvtz', properties = ['dipole'])
--------------------------------------------------------------------------

    Molecular point group: c1
  Charge       = 0
  Multiplicity = 1
  Basis Set: AUG-CC-PVTZ
    Blend: AUG-CC-PVTZ
  Basis Set: (AUG-CC-PVTZ AUX)
    Blend: AUG-CC-PVTZ-JKFIT

    Orbital Energies [Eh]
    ---------------------

    Doubly Occupied:

       1A    -92.071261     2A    -20.506058     3A    -11.265837
       4A    -11.265296     5A     -9.057749     6A     -6.739499
       7A     -6.739218     8A     -6.737896     9A     -1.327175
      10A     -1.066255    11A     -0.975677    12A     -0.819048
      13A     -0.641114    14A     -0.630162    15A     -0.622184
      16A     -0.584890    17A     -0.561851    18A     -0.542230
      19A     -0.511483    20A     -0.420136    21A     -0.368960

  @DF-RHF Final Energy:  -551.65079827039256

   => Energetics <=

    Nuclear Repulsion Energy =            183.1932157488811583
    One-Electron Energy =               -1122.7800688128552338
    Two-Electron Energy =                 387.9360547935815475
    Total Energy =                       -551.6507982703925563
  Basis Set: (AUG-CC-PVTZ AUX)
    Blend: AUG-CC-PVTZ-RI
    Molecular point group: c1

    Geometry (in Angstrom), charge = 0, multiplicity = 1:

       Center              X                  Y                   Z               Mass
    ------------   -----------------  -----------------  -----------------  -----------------
         C            1.335483261013    -0.905299357515     0.185532471908    12.000000000000
         O            0.001170561013     1.429955442485     0.406146971908    15.994914619570
         S            0.001160561013     0.159370442485    -0.412469028092    31.972071174400
         C           -1.340717438987    -0.883338557515     0.206932971908    12.000000000000
         H            1.307084561013    -1.867558557515    -0.267174028092     1.007825032230
         H            2.282811561013    -0.387801557515    -0.043011028092     1.007825032230
         H            1.259679561013    -0.971299557515     1.293300971908     1.007825032230
         H           -1.304785438987    -1.867542557515    -0.267177028092     1.007825032230
         H           -1.257368438987    -0.971290557515     1.293300971908     1.007825032230
         H           -2.280494438987    -0.387773557515    -0.043008028092     1.007825032230

  Basis Set: AUG-CC-PVTZ
    Blend: AUG-CC-PVTZ
  Basis Set: (AUG-CC-PVTZ AUX)
    Blend: AUG-CC-PVTZ-JKFIT
	 Reference Energy          =    -551.6507982703925563 [Eh]
	 Singles Energy            =      -0.0000000000000000 [Eh]
	 Same-Spin Energy          =      -0.2103768452918818 [Eh]
	 Opposite-Spin Energy      =      -0.6828077395952645 [Eh]
	 Correlation Energy        =      -0.8931845848871464 [Eh]
	 Total Energy              =    -552.5439828552797508 [Eh]

	 ================> DF-SCS-MP2 Energies <==================
	-----------------------------------------------------------
	 SCS Same-Spin Scale       =       0.3333333333333333 [-]
	 SCS Opposite-Spin Scale   =       1.2000000000000000 [-]
	 SCS Same-Spin Energy      =      -0.0701256150972939 [Eh]
	 SCS Opposite-Spin Energy  =      -0.8193692875143174 [Eh]
	 SCS Correlation Energy    =      -0.8894949026116113 [Eh]
	 SCS Total Energy          =    -552.5402931730042155 [Eh]
	-----------------------------------------------------------

  Dipole Moment: [D]
     X:     0.0025      Y:    -4.1533      Z:    -0.5004     Total:     4.1833

*** Psi4 exiting successfully. Buy a developer a beer!
