                               Psi4 1.3.2 release

  ==> Input File <==

--------------------------------------------------------------------------
#psi4
#
memory 32 gb

molecule  {
0 1
  C        1.3418690    -0.8104050     0.1807640
  O        0.0000100     1.5029040     0.3799780
  S        0.0000007     0.3163823    -0.3844775
  C       -1.3418780    -0.8103900     0.1807640
  H        1.3059240    -1.7946100    -0.2933430
  H        2.2816510    -0.3148530    -0.0691800
  H        1.2585190    -0.8983510     1.2671320
  H       -1.3059460    -1.7945940    -0.2933460
  H       -1.2585290    -0.8983420     1.2671320
  H       -2.2816550    -0.3148250    -0.0691770
units angstrom
no_reorient  #important for SAPT in psi4, default
symmetry c1  #important for SAPT in psi4, default
}

set PROPERTIES_ORIGIN ["COM"]
properties('MP2/aug-cc-pvtz', properties = ['dipole'])
--------------------------------------------------------------------------

    Molecular point group: c1
  Charge       = 0
  Multiplicity = 1
  Basis Set: AUG-CC-PVTZ
    Blend: AUG-CC-PVTZ
  Basis Set: (AUG-CC-PVTZ AUX)
    Blend: AUG-CC-PVTZ-JKFIT

    Orbital Energies [Eh]
    ---------------------

    Doubly Occupied:

       1A    -92.067459     2A    -20.513900     3A    -11.258840
       4A    -11.258828     5A     -9.054544     6A     -6.736563
       7A     -6.735984     8A     -6.734644     9A     -1.391895
      10A     -1.051800    11A     -0.966292    12A     -0.810924
      13A     -0.642035    14A     -0.628267    15A     -0.622628
      16A     -0.585907    17A     -0.578191    18A     -0.544565
      19A     -0.540243    20A     -0.426239    21A     -0.360022

  @DF-RHF Final Energy:  -551.64579269736555

   => Energetics <=

    Nuclear Repulsion Energy =            185.1724010577550246
    One-Electron Energy =               -1126.6168488272294326
    Two-Electron Energy =                 389.7986550721088861
    Total Energy =                       -551.6457926973655503
  Basis Set: (AUG-CC-PVTZ AUX)
    Blend: AUG-CC-PVTZ-RI
    Molecular point group: c1

    Geometry (in Angstrom), charge = 0, multiplicity = 1:

       Center              X                  Y                   Z               Mass
    ------------   -----------------  -----------------  -----------------  -----------------
         C            1.341868512294    -0.921180483863     0.181444841670    12.000000000000
         O            0.000009512294     1.392128516137     0.380658841670    15.994914619570
         S            0.000000212294     0.205606816137    -0.383796658330    31.972071174400
         C           -1.341878487706    -0.921165483863     0.181444841670    12.000000000000
         H            1.305923512294    -1.905385483863    -0.292662158330     1.007825032230
         H            2.281650512294    -0.425628483863    -0.068499158330     1.007825032230
         H            1.258518512294    -1.009126483863     1.267812841670     1.007825032230
         H           -1.305946487706    -1.905369483863    -0.292665158330     1.007825032230
         H           -1.258529487706    -1.009117483863     1.267812841670     1.007825032230
         H           -2.281655487706    -0.425600483863    -0.068496158330     1.007825032230

  Basis Set: AUG-CC-PVTZ
    Blend: AUG-CC-PVTZ
  Basis Set: (AUG-CC-PVTZ AUX)
    Blend: AUG-CC-PVTZ-JKFIT
	 Reference Energy          =    -551.6457926973655503 [Eh]
	 Singles Energy            =      -0.0000000000000000 [Eh]
	 Same-Spin Energy          =      -0.2087881804946213 [Eh]
	 Opposite-Spin Energy      =      -0.6794537559497569 [Eh]
	 Correlation Energy        =      -0.8882419364443781 [Eh]
	 Total Energy              =    -552.5340346338099380 [Eh]

	 ================> DF-SCS-MP2 Energies <==================
	-----------------------------------------------------------
	 SCS Same-Spin Scale       =       0.3333333333333333 [-]
	 SCS Opposite-Spin Scale   =       1.2000000000000000 [-]
	 SCS Same-Spin Energy      =      -0.0695960601648737 [Eh]
	 SCS Opposite-Spin Energy  =      -0.8153445071397082 [Eh]
	 SCS Correlation Energy    =      -0.8849405673045819 [Eh]
	 SCS Total Energy          =    -552.5307332646701752 [Eh]
	-----------------------------------------------------------

  Dipole Moment: [D]
     X:    -0.0000      Y:    -3.5041      Z:    -0.3489     Total:     3.5214

*** Psi4 exiting successfully. Buy a developer a beer!
