                               Psi4 1.4a3.dev225

  ==> Input File <==

--------------------------------------------------------------------------
#psi4
#
memory 32 gb

molecule  {
0 1
  C        1.3418020    -0.8103610     0.1807780
  O        0.0000010     1.5029090     0.3799830
  S       -0.0000000     0.1902484    -0.4657464
  C       -1.3418030    -0.8103600     0.1807780
  H        1.3064620    -1.7943290    -0.2939050
  H        2.2815750    -0.3144010    -0.0684470
  H        1.2580440    -0.8989840     1.2670770
  H       -1.3064650    -1.7943270    -0.2939050
  H       -1.2580450    -0.8989840     1.2670770
  H       -2.2815760    -0.3143980    -0.0684470
units angstrom
no_reorient  #important for SAPT in psi4, default
symmetry c1  #important for SAPT in psi4, default
}

set PROPERTIES_ORIGIN ["COM"]
properties('MP2/aug-cc-pvtz', properties = ['dipole'])
--------------------------------------------------------------------------

    Molecular point group: c1
  Charge       = 0
  Multiplicity = 1
  Basis Set: AUG-CC-PVTZ
    Blend: AUG-CC-PVTZ
  Basis Set: (AUG-CC-PVTZ AUX)
    Blend: AUG-CC-PVTZ-JKFIT

    Orbital Energies [Eh]
    ---------------------

    Doubly Occupied:

       1A    -92.071580     2A    -20.501530     3A    -11.268261
       4A    -11.268250     5A     -9.058544     6A     -6.740282
       7A     -6.739897     8A     -6.738536     9A     -1.299203
      10A     -1.071381    11A     -0.980088    12A     -0.822638
      13A     -0.642221    14A     -0.631766    15A     -0.619329
      16A     -0.589607    17A     -0.548831    18A     -0.545919
      19A     -0.498405    20A     -0.414075    21A     -0.372666

  @DF-RHF Final Energy:  -551.64774622405014

   => Energetics <=

    Nuclear Repulsion Energy =            182.3552082545852784
    One-Electron Energy =               -1121.1598931580706449
    Two-Electron Energy =                 387.1569386794353136
    Total Energy =                       -551.6477462240500245
  Basis Set: (AUG-CC-PVTZ AUX)
    Blend: AUG-CC-PVTZ-RI
    Molecular point group: c1

    Geometry (in Angstrom), charge = 0, multiplicity = 1:

       Center              X                  Y                   Z               Mass
    ------------   -----------------  -----------------  -----------------  -----------------
         C            1.341802013385    -0.869458013686     0.214756549730    12.000000000000
         O            0.000001013385     1.443811986314     0.413961549730    15.994914619570
         S            0.000000013385     0.131151386314    -0.431767850270    31.972071174400
         C           -1.341802986615    -0.869457013686     0.214756549730    12.000000000000
         H            1.306462013385    -1.853426013686    -0.259926450270     1.007825032230
         H            2.281575013385    -0.373498013686    -0.034468450270     1.007825032230
         H            1.258044013385    -0.958081013686     1.301055549730     1.007825032230
         H           -1.306464986615    -1.853424013686    -0.259926450270     1.007825032230
         H           -1.258044986615    -0.958081013686     1.301055549730     1.007825032230
         H           -2.281575986615    -0.373495013686    -0.034468450270     1.007825032230

  Basis Set: AUG-CC-PVTZ
    Blend: AUG-CC-PVTZ
  Basis Set: (AUG-CC-PVTZ AUX)
    Blend: AUG-CC-PVTZ-JKFIT
	 Reference Energy          =    -551.6477462240501382 [Eh]
	 Singles Energy            =      -0.0000000000000000 [Eh]
	 Same-Spin Energy          =      -0.2108048081442073 [Eh]
	 Opposite-Spin Energy      =      -0.6840512923697518 [Eh]
	 Correlation Energy        =      -0.8948561005139590 [Eh]
	 Total Energy              =    -552.5426023245640863 [Eh]

	 ================> DF-SCS-MP2 Energies <==================
	-----------------------------------------------------------
	 SCS Same-Spin Scale       =       0.3333333333333333 [-]
	 SCS Opposite-Spin Scale   =       1.2000000000000000 [-]
	 SCS Same-Spin Energy      =      -0.0702682693814024 [Eh]
	 SCS Opposite-Spin Energy  =      -0.8208615508437022 [Eh]
	 SCS Correlation Energy    =      -0.8911298202251046 [Eh]
	 SCS Total Energy          =    -552.5388760442752982 [Eh]
	-----------------------------------------------------------

  Dipole Moment: [D]
     X:    -0.0000      Y:    -4.4623      Z:    -0.5686     Total:     4.4984

*** Psi4 exiting successfully. Buy a developer a beer!
