                               Psi4 1.3.2 release

  ==> Input File <==

--------------------------------------------------------------------------
#psi4
#
memory 32 gb

molecule  {
0 1
  C        1.3418690    -0.8104050     0.1807640
  O        0.0000100     1.5029040     0.3799780
  S       -0.0000013     0.0641924    -0.5469591
  C       -1.3418780    -0.8103900     0.1807640
  H        1.3059240    -1.7946100    -0.2933430
  H        2.2816510    -0.3148530    -0.0691800
  H        1.2585190    -0.8983510     1.2671320
  H       -1.3059460    -1.7945940    -0.2933460
  H       -1.2585290    -0.8983420     1.2671320
  H       -2.2816550    -0.3148250    -0.0691770
units angstrom
no_reorient  #important for SAPT in psi4, default
symmetry c1  #important for SAPT in psi4, default
}

set PROPERTIES_ORIGIN ["COM"]
properties('MP2/aug-cc-pvtz', properties = ['dipole'])
--------------------------------------------------------------------------

    Molecular point group: c1
  Charge       = 0
  Multiplicity = 1
  Basis Set: AUG-CC-PVTZ
    Blend: AUG-CC-PVTZ
  Basis Set: (AUG-CC-PVTZ AUX)
    Blend: AUG-CC-PVTZ-JKFIT

    Orbital Energies [Eh]
    ---------------------

    Doubly Occupied:

       1A    -92.065957     2A    -20.498973     3A    -11.273502
       4A    -11.273491     5A     -9.055887     6A     -6.737435
       7A     -6.736968     8A     -6.735432     9A     -1.237795
      10A     -1.083598    11A     -0.989480    12A     -0.830968
      13A     -0.644581    14A     -0.640237    15A     -0.618029
      16A     -0.597112    17A     -0.550576    18A     -0.519538
      19A     -0.462991    20A     -0.402894    21A     -0.380747

  @DF-RHF Final Energy:  -551.61758840045820

   => Energetics <=

    Nuclear Repulsion Energy =            179.9894738354041976
    One-Electron Energy =               -1116.5417408968346535
    Two-Electron Energy =                 384.9346786609722812
    Total Energy =                       -551.6175884004582031
  Basis Set: (AUG-CC-PVTZ AUX)
    Blend: AUG-CC-PVTZ-RI
    Molecular point group: c1

    Geometry (in Angstrom), charge = 0, multiplicity = 1:

       Center              X                  Y                   Z               Mass
    ------------   -----------------  -----------------  -----------------  -----------------
         C            1.341869331944    -0.817826726227     0.248033883923    12.000000000000
         O            0.000010331944     1.495482273773     0.447247883923    15.994914619570
         S           -0.000000968056     0.056770673773    -0.479689216077    31.972071174400
         C           -1.341877668056    -0.817811726227     0.248033883923    12.000000000000
         H            1.305924331944    -1.802031726227    -0.226073116077     1.007825032230
         H            2.281651331944    -0.322274726227    -0.001910116077     1.007825032230
         H            1.258519331944    -0.905772726227     1.334401883923     1.007825032230
         H           -1.305945668056    -1.802015726227    -0.226076116077     1.007825032230
         H           -1.258528668056    -0.905763726227     1.334401883923     1.007825032230
         H           -2.281654668056    -0.322246726227    -0.001907116077     1.007825032230

  Basis Set: AUG-CC-PVTZ
    Blend: AUG-CC-PVTZ
  Basis Set: (AUG-CC-PVTZ AUX)
    Blend: AUG-CC-PVTZ-JKFIT
	 Reference Energy          =    -551.6175884004582031 [Eh]
	 Singles Energy            =      -0.0000000000000000 [Eh]
	 Same-Spin Energy          =      -0.2110766978907810 [Eh]
	 Opposite-Spin Energy      =      -0.6869542632179000 [Eh]
	 Correlation Energy        =      -0.8980309611086810 [Eh]
	 Total Energy              =    -552.5156193615669054 [Eh]

	 ================> DF-SCS-MP2 Energies <==================
	-----------------------------------------------------------
	 SCS Same-Spin Scale       =       0.3333333333333333 [-]
	 SCS Opposite-Spin Scale   =       1.2000000000000000 [-]
	 SCS Same-Spin Energy      =      -0.0703588992969270 [Eh]
	 SCS Opposite-Spin Energy  =      -0.8243451158614800 [Eh]
	 SCS Correlation Energy    =      -0.8947040151584069 [Eh]
	 SCS Total Energy          =    -552.5122924156165709 [Eh]
	-----------------------------------------------------------

  Dipole Moment: [D]
     X:    -0.0000      Y:    -5.2749      Z:    -0.7615     Total:     5.3296

*** Psi4 exiting successfully. Buy a developer a beer!
