                               Psi4 1.3.2 release

  ==> Input File <==

--------------------------------------------------------------------------
#psi4
#
memory 32 gb

molecule  {
0 1
  C        1.4232023    -0.7273890     0.1314500
  O        0.0000100     1.5029040     0.3799780
  S        0.0000000     0.2323190    -0.4386380
  C       -1.3418780    -0.8103900     0.1807640
  H        1.3059240    -1.7946100    -0.2933430
  H        2.2816510    -0.3148530    -0.0691800
  H        1.2585190    -0.8983510     1.2671320
  H       -1.3059460    -1.7945940    -0.2933460
  H       -1.2585290    -0.8983420     1.2671320
  H       -2.2816550    -0.3148250    -0.0691770
units angstrom
no_reorient  #important for SAPT in psi4, default
symmetry c1  #important for SAPT in psi4, default
}

set PROPERTIES_ORIGIN ["COM"]
properties('MP2/aug-cc-pvtz', properties = ['dipole'])
--------------------------------------------------------------------------

    Molecular point group: c1
  Charge       = 0
  Multiplicity = 1
  Basis Set: AUG-CC-PVTZ
    Blend: AUG-CC-PVTZ
  Basis Set: (AUG-CC-PVTZ AUX)
    Blend: AUG-CC-PVTZ-JKFIT

    Orbital Energies [Eh]
    ---------------------

    Doubly Occupied:

       1A    -92.071002     2A    -20.501691     3A    -11.268571
       4A    -11.268469     5A     -9.057549     6A     -6.739253
       7A     -6.739192     8A     -6.737694     9A     -1.325054
      10A     -1.064137    11A     -0.982237    12A     -0.821004
      13A     -0.656643    14A     -0.627727    15A     -0.618726
      16A     -0.570093    17A     -0.565813    18A     -0.555261
      19A     -0.503651    20A     -0.419073    21A     -0.363923

  @DF-RHF Final Energy:  -551.63412704429038

   => Energetics <=

    Nuclear Repulsion Energy =            183.0411283827679938
    One-Electron Energy =               -1122.4369877751594231
    Two-Electron Energy =                 387.7617323481010203
    Total Energy =                       -551.6341270442903806
  Basis Set: (AUG-CC-PVTZ AUX)
    Blend: AUG-CC-PVTZ-RI
    Molecular point group: c1

    Geometry (in Angstrom), charge = 0, multiplicity = 1:

       Center              X                  Y                   Z               Mass
    ------------   -----------------  -----------------  -----------------  -----------------
         C            1.410691519008    -0.816482642160     0.161912589398    12.000000000000
         O           -0.012500780992     1.413810357840     0.410440589398    15.994914619570
         S           -0.012510780992     0.143225357840    -0.408175410602    31.972071174400
         C           -1.354388780992    -0.899483642160     0.211226589398    12.000000000000
         H            1.293413219008    -1.883703642160    -0.262880410602     1.007825032230
         H            2.269140219008    -0.403946642160    -0.038717410602     1.007825032230
         H            1.246008219008    -0.987444642160     1.297594589398     1.007825032230
         H           -1.318456780992    -1.883687642160    -0.262883410602     1.007825032230
         H           -1.271039780992    -0.987435642160     1.297594589398     1.007825032230
         H           -2.294165780992    -0.403918642160    -0.038714410602     1.007825032230

  Basis Set: AUG-CC-PVTZ
    Blend: AUG-CC-PVTZ
  Basis Set: (AUG-CC-PVTZ AUX)
    Blend: AUG-CC-PVTZ-JKFIT
	 Reference Energy          =    -551.6341270442903806 [Eh]
	 Singles Energy            =      -0.0000000000000000 [Eh]
	 Same-Spin Energy          =      -0.2101409307743650 [Eh]
	 Opposite-Spin Energy      =      -0.6827476496645776 [Eh]
	 Correlation Energy        =      -0.8928885804389426 [Eh]
	 Total Energy              =    -552.5270156247293016 [Eh]

	 ================> DF-SCS-MP2 Energies <==================
	-----------------------------------------------------------
	 SCS Same-Spin Scale       =       0.3333333333333333 [-]
	 SCS Opposite-Spin Scale   =       1.2000000000000000 [-]
	 SCS Same-Spin Energy      =      -0.0700469769247883 [Eh]
	 SCS Opposite-Spin Energy  =      -0.8192971795974930 [Eh]
	 SCS Correlation Energy    =      -0.8893441565222814 [Eh]
	 SCS Total Energy          =    -552.5234712008126507 [Eh]
	-----------------------------------------------------------

  Dipole Moment: [D]
     X:    -0.0205      Y:    -4.2164      Z:    -0.4821     Total:     4.2439

*** Psi4 exiting successfully. Buy a developer a beer!
