                               Psi4 1.3.2 release

  ==> Input File <==

--------------------------------------------------------------------------
#psi4
#
memory 32 gb

molecule  {
0 1
  C        1.3204980    -0.8303805     0.1926301
  O        0.0000100     1.5029040     0.3799780
  S        0.0000000     0.2323190    -0.4386380
  C       -1.3418780    -0.8103900     0.1807640
  H        1.3059240    -1.7946100    -0.2933430
  H        2.2816510    -0.3148530    -0.0691800
  H        1.2585190    -0.8983510     1.2671320
  H       -1.3059460    -1.7945940    -0.2933460
  H       -1.2585290    -0.8983420     1.2671320
  H       -2.2816550    -0.3148250    -0.0691770
units angstrom
no_reorient  #important for SAPT in psi4, default
symmetry c1  #important for SAPT in psi4, default
}

set PROPERTIES_ORIGIN ["COM"]
properties('MP2/aug-cc-pvtz', properties = ['dipole'])
--------------------------------------------------------------------------

    Molecular point group: c1
  Charge       = 0
  Multiplicity = 1
  Basis Set: AUG-CC-PVTZ
    Blend: AUG-CC-PVTZ
  Basis Set: (AUG-CC-PVTZ AUX)
    Blend: AUG-CC-PVTZ-JKFIT

    Orbital Energies [Eh]
    ---------------------

    Doubly Occupied:

       1A    -92.071692     2A    -20.505648     3A    -11.265392
       4A    -11.264926     5A     -9.058151     6A     -6.739883
       7A     -6.739590     8A     -6.738271     9A     -1.327211
      10A     -1.066247    11A     -0.974826    12A     -0.819341
      13A     -0.643172    14A     -0.626156    15A     -0.620559
      16A     -0.589721    17A     -0.562213    18A     -0.537525
      19A     -0.512810    20A     -0.419064    21A     -0.370618

  @DF-RHF Final Energy:  -551.65089688990122

   => Energetics <=

    Nuclear Repulsion Energy =            183.2831781293595554
    One-Electron Energy =               -1122.9621219611667584
    Two-Electron Energy =                 388.0280469419058704
    Total Energy =                       -551.6508968899013325
  Basis Set: (AUG-CC-PVTZ AUX)
    Blend: AUG-CC-PVTZ-RI
    Molecular point group: c1

    Geometry (in Angstrom), charge = 0, multiplicity = 1:

       Center              X                  Y                   Z               Mass
    ------------   -----------------  -----------------  -----------------  -----------------
         C            1.323785058002    -0.903632126443     0.213682047688    12.000000000000
         O            0.003297058002     1.429652373557     0.401029947688    15.994914619570
         S            0.003287058002     0.159067373557    -0.417586052312    31.972071174400
         C           -1.338590941998    -0.883641626443     0.201815947688    12.000000000000
         H            1.309211058002    -1.867861626443    -0.272291052312     1.007825032230
         H            2.284938058002    -0.388104626443    -0.048128052312     1.007825032230
         H            1.261806058002    -0.971602626443     1.288183947688     1.007825032230
         H           -1.302658941998    -1.867845626443    -0.272294052312     1.007825032230
         H           -1.255241941998    -0.971593626443     1.288183947688     1.007825032230
         H           -2.278367941998    -0.388076626443    -0.048125052312     1.007825032230

  Basis Set: AUG-CC-PVTZ
    Blend: AUG-CC-PVTZ
  Basis Set: (AUG-CC-PVTZ AUX)
    Blend: AUG-CC-PVTZ-JKFIT
	 Reference Energy          =    -551.6508968899012189 [Eh]
	 Singles Energy            =      -0.0000000000000000 [Eh]
	 Same-Spin Energy          =      -0.2104053243853181 [Eh]
	 Opposite-Spin Energy      =      -0.6829045627373398 [Eh]
	 Correlation Energy        =      -0.8933098871226579 [Eh]
	 Total Energy              =    -552.5442067770238737 [Eh]

	 ================> DF-SCS-MP2 Energies <==================
	-----------------------------------------------------------
	 SCS Same-Spin Scale       =       0.3333333333333333 [-]
	 SCS Opposite-Spin Scale   =       1.2000000000000000 [-]
	 SCS Same-Spin Energy      =      -0.0701351081284393 [Eh]
	 SCS Opposite-Spin Energy  =      -0.8194854752848078 [Eh]
	 SCS Correlation Energy    =      -0.8896205834132471 [Eh]
	 SCS Total Energy          =    -552.5405174733144804 [Eh]
	-----------------------------------------------------------

  Dipole Moment: [D]
     X:    -0.0033      Y:    -4.1444      Z:    -0.5044     Total:     4.1750

*** Psi4 exiting successfully. Buy a developer a beer!
