                               Psi4 1.3.2 release

  ==> Input File <==

--------------------------------------------------------------------------
#psi4
#
memory 32 gb

molecule  {
0 1
  C        1.3679456    -0.7195140     0.2644149
  O        0.0000100     1.5029040     0.3799780
  S        0.0000000     0.2323190    -0.4386380
  C       -1.3418780    -0.8103900     0.1807640
  H        1.3059240    -1.7946100    -0.2933430
  H        2.2816510    -0.3148530    -0.0691800
  H        1.2585190    -0.8983510     1.2671320
  H       -1.3059460    -1.7945940    -0.2933460
  H       -1.2585290    -0.8983420     1.2671320
  H       -2.2816550    -0.3148250    -0.0691770
units angstrom
no_reorient  #important for SAPT in psi4, default
symmetry c1  #important for SAPT in psi4, default
}

set PROPERTIES_ORIGIN ["COM"]
properties('MP2/aug-cc-pvtz', properties = ['dipole'])
--------------------------------------------------------------------------

    Molecular point group: c1
  Charge       = 0
  Multiplicity = 1
  Basis Set: AUG-CC-PVTZ
    Blend: AUG-CC-PVTZ
  Basis Set: (AUG-CC-PVTZ AUX)
    Blend: AUG-CC-PVTZ-JKFIT

    Orbital Energies [Eh]
    ---------------------

    Doubly Occupied:

       1A    -92.072751     2A    -20.500498     3A    -11.266795
       4A    -11.266691     5A     -9.059180     6A     -6.740831
       7A     -6.740681     8A     -6.739218     9A     -1.325614
      10A     -1.063837    11A     -0.978110    12A     -0.821242
      13A     -0.656516    14A     -0.627251    15A     -0.615895
      16A     -0.584397    17A     -0.555121    18A     -0.545314
      19A     -0.507492    20A     -0.414951    21A     -0.370411

  @DF-RHF Final Energy:  -551.63842333271509

   => Energetics <=

    Nuclear Repulsion Energy =            183.3850587136579691
    One-Electron Energy =               -1123.1413732378630357
    Two-Electron Energy =                 388.1178911914899459
    Total Energy =                       -551.6384233327150923
  Basis Set: (AUG-CC-PVTZ AUX)
    Blend: AUG-CC-PVTZ-RI
    Molecular point group: c1

    Geometry (in Angstrom), charge = 0, multiplicity = 1:

       Center              X                  Y                   Z               Mass
    ------------   -----------------  -----------------  -----------------  -----------------
         C            1.363934331199    -0.809818964198     0.274425005111    12.000000000000
         O           -0.004001268801     1.412599035802     0.389988105111    15.994914619570
         S           -0.004011268801     0.142014035802    -0.428627894889    31.972071174400
         C           -1.345889268801    -0.900694964198     0.190774105111    12.000000000000
         H            1.301912731199    -1.884914964198    -0.283332894889     1.007825032230
         H            2.277639731199    -0.405157964198    -0.059169894889     1.007825032230
         H            1.254507731199    -0.988655964198     1.277142105111     1.007825032230
         H           -1.309957268801    -1.884898964198    -0.283335894889     1.007825032230
         H           -1.262540268801    -0.988646964198     1.277142105111     1.007825032230
         H           -2.285666268801    -0.405129964198    -0.059166894889     1.007825032230

  Basis Set: AUG-CC-PVTZ
    Blend: AUG-CC-PVTZ
  Basis Set: (AUG-CC-PVTZ AUX)
    Blend: AUG-CC-PVTZ-JKFIT
	 Reference Energy          =    -551.6384233327150923 [Eh]
	 Singles Energy            =      -0.0000000000000000 [Eh]
	 Same-Spin Energy          =      -0.2102228876431628 [Eh]
	 Opposite-Spin Energy      =      -0.6830078499406542 [Eh]
	 Correlation Energy        =      -0.8932307375838170 [Eh]
	 Total Energy              =    -552.5316540702989414 [Eh]

	 ================> DF-SCS-MP2 Energies <==================
	-----------------------------------------------------------
	 SCS Same-Spin Scale       =       0.3333333333333333 [-]
	 SCS Opposite-Spin Scale   =       1.2000000000000000 [-]
	 SCS Same-Spin Energy      =      -0.0700742958810543 [Eh]
	 SCS Opposite-Spin Energy  =      -0.8196094199287850 [Eh]
	 SCS Correlation Energy    =      -0.8896837158098393 [Eh]
	 SCS Total Energy          =    -552.5281070485249302 [Eh]
	-----------------------------------------------------------

  Dipole Moment: [D]
     X:    -0.0259      Y:    -4.1484      Z:    -0.4926     Total:     4.1776

*** Psi4 exiting successfully. Buy a developer a beer!
