                               Psi4 1.3.2 release

  ==> Input File <==

--------------------------------------------------------------------------
#psi4
#
memory 32 gb

molecule  {
0 1
  C        1.3833784    -0.7695073     0.1564695
  O        0.0000100     1.5029040     0.3799780
  S        0.0000000     0.2323190    -0.4386380
  C       -1.3418780    -0.8103900     0.1807640
  H        1.3059240    -1.7946100    -0.2933430
  H        2.2816510    -0.3148530    -0.0691800
  H        1.2585190    -0.8983510     1.2671320
  H       -1.3059460    -1.7945940    -0.2933460
  H       -1.2585290    -0.8983420     1.2671320
  H       -2.2816550    -0.3148250    -0.0691770
units angstrom
no_reorient  #important for SAPT in psi4, default
symmetry c1  #important for SAPT in psi4, default
}

set PROPERTIES_ORIGIN ["COM"]
properties('MP2/aug-cc-pvtz', properties = ['dipole'])
--------------------------------------------------------------------------

    Molecular point group: c1
  Charge       = 0
  Multiplicity = 1
  Basis Set: AUG-CC-PVTZ
    Blend: AUG-CC-PVTZ
  Basis Set: (AUG-CC-PVTZ AUX)
    Blend: AUG-CC-PVTZ-JKFIT

    Orbital Energies [Eh]
    ---------------------

    Doubly Occupied:

       1A    -92.070878     2A    -20.503129     3A    -11.266934
       4A    -11.266541     5A     -9.057434     6A     -6.739151
       7A     -6.738994     8A     -6.737573     9A     -1.325749
      10A     -1.064628    11A     -0.978598    12A     -0.819104
      13A     -0.645884    14A     -0.629304    15A     -0.620157
      16A     -0.577513    17A     -0.560343    18A     -0.555247
      19A     -0.508134    20A     -0.419096    21A     -0.366477

  @DF-RHF Final Energy:  -551.64834994082094

   => Energetics <=

    Nuclear Repulsion Energy =            183.1246946521263794
    One-Electron Energy =               -1122.6443510268622958
    Two-Electron Energy =                 387.8713064339149241
    Total Energy =                       -551.6483499408209354
  Basis Set: (AUG-CC-PVTZ AUX)
    Blend: AUG-CC-PVTZ-RI
    Molecular point group: c1

    Geometry (in Angstrom), charge = 0, multiplicity = 1:

       Center              X                  Y                   Z               Mass
    ------------   -----------------  -----------------  -----------------  -----------------
         C            1.376993278404    -0.852122361203     0.183083623144    12.000000000000
         O           -0.006375121596     1.420288938797     0.406592123144    15.994914619570
         S           -0.006385121596     0.149703938797    -0.412023876856    31.972071174400
         C           -1.348263121596    -0.893005061203     0.207378123144    12.000000000000
         H            1.299538878404    -1.877225061203    -0.266728876856     1.007825032230
         H            2.275265878404    -0.397468061203    -0.042565876856     1.007825032230
         H            1.252133878404    -0.980966061203     1.293746123144     1.007825032230
         H           -1.312331121596    -1.877209061203    -0.266731876856     1.007825032230
         H           -1.264914121596    -0.980957061203     1.293746123144     1.007825032230
         H           -2.288040121596    -0.397440061203    -0.042562876856     1.007825032230

  Basis Set: AUG-CC-PVTZ
    Blend: AUG-CC-PVTZ
  Basis Set: (AUG-CC-PVTZ AUX)
    Blend: AUG-CC-PVTZ-JKFIT
	 Reference Energy          =    -551.6483499408209354 [Eh]
	 Singles Energy            =      -0.0000000000000000 [Eh]
	 Same-Spin Energy          =      -0.2101360282057928 [Eh]
	 Opposite-Spin Energy      =      -0.6824490205635434 [Eh]
	 Correlation Energy        =      -0.8925850487693362 [Eh]
	 Total Energy              =    -552.5409349895902551 [Eh]

	 ================> DF-SCS-MP2 Energies <==================
	-----------------------------------------------------------
	 SCS Same-Spin Scale       =       0.3333333333333333 [-]
	 SCS Opposite-Spin Scale   =       1.2000000000000000 [-]
	 SCS Same-Spin Energy      =      -0.0700453427352643 [Eh]
	 SCS Opposite-Spin Energy  =      -0.8189388246762520 [Eh]
	 SCS Correlation Energy    =      -0.8889841674115163 [Eh]
	 SCS Total Energy          =    -552.5373341082324714 [Eh]
	-----------------------------------------------------------

  Dipole Moment: [D]
     X:    -0.0034      Y:    -4.1904      Z:    -0.4910     Total:     4.2191

*** Psi4 exiting successfully. Buy a developer a beer!
