                               Psi4 1.4a3.dev225

  ==> Input File <==

--------------------------------------------------------------------------
#psi4
#
memory 32 gb

molecule  {
0 1
  C        1.3418020    -0.8103610     0.1807780
  O        0.0000010     1.5029090     0.3799830
  S       -0.0000000     0.2154674    -0.4494981
  C       -1.3418030    -0.8103600     0.1807780
  H        1.3064620    -1.7943290    -0.2939050
  H        2.2815750    -0.3144010    -0.0684470
  H        1.2580440    -0.8989840     1.2670770
  H       -1.3064650    -1.7943270    -0.2939050
  H       -1.2580450    -0.8989840     1.2670770
  H       -2.2815760    -0.3143980    -0.0684470
units angstrom
no_reorient  #important for SAPT in psi4, default
symmetry c1  #important for SAPT in psi4, default
}

set PROPERTIES_ORIGIN ["COM"]
properties('MP2/aug-cc-pvtz', properties = ['dipole'])
--------------------------------------------------------------------------

    Molecular point group: c1
  Charge       = 0
  Multiplicity = 1
  Basis Set: AUG-CC-PVTZ
    Blend: AUG-CC-PVTZ
  Basis Set: (AUG-CC-PVTZ AUX)
    Blend: AUG-CC-PVTZ-JKFIT

    Orbital Energies [Eh]
    ---------------------

    Doubly Occupied:

       1A    -92.071542     2A    -20.503344     3A    -11.266684
       4A    -11.266673     5A     -9.058185     6A     -6.739924
       7A     -6.739607     8A     -6.738263     9A     -1.315242
      10A     -1.068023    11A     -0.977628    12A     -0.820466
      13A     -0.641627    14A     -0.629764    15A     -0.620158
      16A     -0.587549    17A     -0.556168    18A     -0.544952
      19A     -0.506123    20A     -0.417106    21A     -0.370676

  @DF-RHF Final Energy:  -551.65092739591182

   => Energetics <=

    Nuclear Repulsion Energy =            182.8725625433749258
    One-Electron Energy =               -1122.1675675483918440
    Two-Electron Energy =                 387.6440776091051816
    Total Energy =                       -551.6509273959118218
  Basis Set: (AUG-CC-PVTZ AUX)
    Blend: AUG-CC-PVTZ-RI
    Molecular point group: c1

    Geometry (in Angstrom), charge = 0, multiplicity = 1:

       Center              X                  Y                   Z               Mass
    ------------   -----------------  -----------------  -----------------  -----------------
         C            1.341802013385    -0.879793393548     0.208097588129    12.000000000000
         O            0.000001013385     1.433476606452     0.407302588129    15.994914619570
         S            0.000000013385     0.146035006452    -0.422178511871    31.972071174400
         C           -1.341802986615    -0.879792393548     0.208097588129    12.000000000000
         H            1.306462013385    -1.863761393548    -0.266585411871     1.007825032230
         H            2.281575013385    -0.383833393548    -0.041127411871     1.007825032230
         H            1.258044013385    -0.968416393548     1.294396588129     1.007825032230
         H           -1.306464986615    -1.863759393548    -0.266585411871     1.007825032230
         H           -1.258044986615    -0.968416393548     1.294396588129     1.007825032230
         H           -2.281575986615    -0.383830393548    -0.041127411871     1.007825032230

  Basis Set: AUG-CC-PVTZ
    Blend: AUG-CC-PVTZ
  Basis Set: (AUG-CC-PVTZ AUX)
    Blend: AUG-CC-PVTZ-JKFIT
	 Reference Energy          =    -551.6509273959118218 [Eh]
	 Singles Energy            =      -0.0000000000000000 [Eh]
	 Same-Spin Energy          =      -0.2105122308408925 [Eh]
	 Opposite-Spin Energy      =      -0.6832251575815323 [Eh]
	 Correlation Energy        =      -0.8937373884224249 [Eh]
	 Total Energy              =    -552.5446647843342589 [Eh]

	 ================> DF-SCS-MP2 Energies <==================
	-----------------------------------------------------------
	 SCS Same-Spin Scale       =       0.3333333333333333 [-]
	 SCS Opposite-Spin Scale   =       1.2000000000000000 [-]
	 SCS Same-Spin Energy      =      -0.0701707436136308 [Eh]
	 SCS Opposite-Spin Energy  =      -0.8198701890978388 [Eh]
	 SCS Correlation Energy    =      -0.8900409327114697 [Eh]
	 SCS Total Energy          =    -552.5409683286233076 [Eh]
	-----------------------------------------------------------

  Dipole Moment: [D]
     X:    -0.0000      Y:    -4.2834      Z:    -0.5280     Total:     4.3159

*** Psi4 exiting successfully. Buy a developer a beer!
