                               Psi4 1.3.2 release

  ==> Input File <==

--------------------------------------------------------------------------
#psi4
#
memory 32 gb

molecule  {
0 1
  C        1.3628313    -0.7901119     0.1687093
  O        0.0000100     1.5029040     0.3799780
  S        0.0000000     0.2323190    -0.4386380
  C       -1.3418780    -0.8103900     0.1807640
  H        1.3059240    -1.7946100    -0.2933430
  H        2.2816510    -0.3148530    -0.0691800
  H        1.2585190    -0.8983510     1.2671320
  H       -1.3059460    -1.7945940    -0.2933460
  H       -1.2585290    -0.8983420     1.2671320
  H       -2.2816550    -0.3148250    -0.0691770
units angstrom
no_reorient  #important for SAPT in psi4, default
symmetry c1  #important for SAPT in psi4, default
}

set PROPERTIES_ORIGIN ["COM"]
properties('MP2/aug-cc-pvtz', properties = ['dipole'])
--------------------------------------------------------------------------

    Molecular point group: c1
  Charge       = 0
  Multiplicity = 1
  Basis Set: AUG-CC-PVTZ
    Blend: AUG-CC-PVTZ
  Basis Set: (AUG-CC-PVTZ AUX)
    Blend: AUG-CC-PVTZ-JKFIT

    Orbital Energies [Eh]
    ---------------------

    Doubly Occupied:

       1A    -92.071020     2A    -20.503923     3A    -11.266204
       4A    -11.265920     5A     -9.057558     6A     -6.739281
       7A     -6.739076     8A     -6.737692     9A     -1.326182
      10A     -1.065055    11A     -0.977140    12A     -0.818844
      13A     -0.642167    14A     -0.629658    15A     -0.620638
      16A     -0.581981    17A     -0.560347    18A     -0.550630
      19A     -0.509923    20A     -0.419096    21A     -0.367820

  @DF-RHF Final Energy:  -551.65148142760609

   => Energetics <=

    Nuclear Repulsion Energy =            183.1736961957711003
    One-Electron Energy =               -1122.7500463974488412
    Two-Electron Energy =                 387.9248687740716832
    Total Energy =                       -551.6514814276060861
  Basis Set: (AUG-CC-PVTZ AUX)
    Blend: AUG-CC-PVTZ-RI
    Molecular point group: c1

    Geometry (in Angstrom), charge = 0, multiplicity = 1:

       Center              X                  Y                   Z               Mass
    ------------   -----------------  -----------------  -----------------  -----------------
         C            1.359606706031    -0.869557589003     0.193440713367    12.000000000000
         O           -0.003214593969     1.423458310997     0.404709413367    15.994914619570
         S           -0.003224593969     0.152873310997    -0.413906586633    31.972071174400
         C           -1.345102593969    -0.889835689003     0.205495413367    12.000000000000
         H            1.302699406031    -1.874055689003    -0.268611586633     1.007825032230
         H            2.278426406031    -0.394298689003    -0.044448586633     1.007825032230
         H            1.255294406031    -0.977796689003     1.291863413367     1.007825032230
         H           -1.309170593969    -1.874039689003    -0.268614586633     1.007825032230
         H           -1.261753593969    -0.977787689003     1.291863413367     1.007825032230
         H           -2.284879593969    -0.394270689003    -0.044445586633     1.007825032230

  Basis Set: AUG-CC-PVTZ
    Blend: AUG-CC-PVTZ
  Basis Set: (AUG-CC-PVTZ AUX)
    Blend: AUG-CC-PVTZ-JKFIT
	 Reference Energy          =    -551.6514814276060861 [Eh]
	 Singles Energy            =      -0.0000000000000000 [Eh]
	 Same-Spin Energy          =      -0.2101894603904575 [Eh]
	 Opposite-Spin Energy      =      -0.6824859465549213 [Eh]
	 Correlation Energy        =      -0.8926754069453788 [Eh]
	 Total Energy              =    -552.5441568345514725 [Eh]

	 ================> DF-SCS-MP2 Energies <==================
	-----------------------------------------------------------
	 SCS Same-Spin Scale       =       0.3333333333333333 [-]
	 SCS Opposite-Spin Scale   =       1.2000000000000000 [-]
	 SCS Same-Spin Energy      =      -0.0700631534634858 [Eh]
	 SCS Opposite-Spin Energy  =      -0.8189831358659055 [Eh]
	 SCS Correlation Energy    =      -0.8890462893293913 [Eh]
	 SCS Total Energy          =    -552.5405277169354576 [Eh]
	-----------------------------------------------------------

  Dipole Moment: [D]
     X:    -0.0000      Y:    -4.1759      Z:    -0.4955     Total:     4.2052

*** Psi4 exiting successfully. Buy a developer a beer!
