                               Psi4 1.3.2 release

  ==> Input File <==

--------------------------------------------------------------------------
#psi4
#
memory 32 gb

molecule  {
0 1
  C        1.4612923    -0.6841015     0.1057359
  O        0.0000100     1.5029040     0.3799780
  S        0.0000000     0.2323190    -0.4386380
  C       -1.3418780    -0.8103900     0.1807640
  H        1.3059240    -1.7946100    -0.2933430
  H        2.2816510    -0.3148530    -0.0691800
  H        1.2585190    -0.8983510     1.2671320
  H       -1.3059460    -1.7945940    -0.2933460
  H       -1.2585290    -0.8983420     1.2671320
  H       -2.2816550    -0.3148250    -0.0691770
units angstrom
no_reorient  #important for SAPT in psi4, default
symmetry c1  #important for SAPT in psi4, default
}

set PROPERTIES_ORIGIN ["COM"]
properties('MP2/aug-cc-pvtz', properties = ['dipole'])
--------------------------------------------------------------------------

    Molecular point group: c1
  Charge       = 0
  Multiplicity = 1
  Basis Set: AUG-CC-PVTZ
    Blend: AUG-CC-PVTZ
  Basis Set: (AUG-CC-PVTZ AUX)
    Blend: AUG-CC-PVTZ-JKFIT

    Orbital Energies [Eh]
    ---------------------

    Doubly Occupied:

       1A    -92.071696     2A    -20.500467     3A    -11.271314
       4A    -11.270431     5A     -9.058168     6A     -6.739911
       7A     -6.739843     8A     -6.738313     9A     -1.324597
      10A     -1.064169    11A     -0.986984    12A     -0.825178
      13A     -0.667777    14A     -0.627024    15A     -0.616809
      16A     -0.576516    17A     -0.558769    18A     -0.552553
      19A     -0.497642    20A     -0.419021    21A     -0.361560

  @DF-RHF Final Energy:  -551.60777855582910

   => Energetics <=

    Nuclear Repulsion Energy =            182.9802496036783737
    One-Electron Energy =               -1122.2385758856380562
    Two-Electron Energy =                 387.6505477261305259
    Total Energy =                       -551.6077785558290998
  Basis Set: (AUG-CC-PVTZ AUX)
    Blend: AUG-CC-PVTZ-RI
    Molecular point group: c1

    Geometry (in Angstrom), charge = 0, multiplicity = 1:

       Center              X                  Y                   Z               Mass
    ------------   -----------------  -----------------  -----------------  -----------------
         C            1.442922565807    -0.779853567907     0.140153798102    12.000000000000
         O           -0.018359734193     1.407151932093     0.414395898102    15.994914619570
         S           -0.018369734193     0.136566932093    -0.404220101898    31.972071174400
         C           -1.360247734193    -0.906142067907     0.215181898102    12.000000000000
         H            1.287554265807    -1.890362067907    -0.258925101898     1.007825032230
         H            2.263281265807    -0.410605067907    -0.034762101898     1.007825032230
         H            1.240149265807    -0.994103067907     1.301549898102     1.007825032230
         H           -1.324315734193    -1.890346067907    -0.258928101898     1.007825032230
         H           -1.276898734193    -0.994094067907     1.301549898102     1.007825032230
         H           -2.300024734193    -0.410577067907    -0.034759101898     1.007825032230

  Basis Set: AUG-CC-PVTZ
    Blend: AUG-CC-PVTZ
  Basis Set: (AUG-CC-PVTZ AUX)
    Blend: AUG-CC-PVTZ-JKFIT
	 Reference Energy          =    -551.6077785558290998 [Eh]
	 Singles Energy            =      -0.0000000000000000 [Eh]
	 Same-Spin Energy          =      -0.2102969773530310 [Eh]
	 Opposite-Spin Energy      =      -0.6835648380257064 [Eh]
	 Correlation Energy        =      -0.8938618153787374 [Eh]
	 Total Energy              =    -552.5016403712078272 [Eh]

	 ================> DF-SCS-MP2 Energies <==================
	-----------------------------------------------------------
	 SCS Same-Spin Scale       =       0.3333333333333333 [-]
	 SCS Opposite-Spin Scale   =       1.2000000000000000 [-]
	 SCS Same-Spin Energy      =      -0.0700989924510103 [Eh]
	 SCS Opposite-Spin Energy  =      -0.8202778056308477 [Eh]
	 SCS Correlation Energy    =      -0.8903767980818580 [Eh]
	 SCS Total Energy          =    -552.4981553539109882 [Eh]
	-----------------------------------------------------------

  Dipole Moment: [D]
     X:    -0.0516      Y:    -4.2373      Z:    -0.4737     Total:     4.2640

*** Psi4 exiting successfully. Buy a developer a beer!
