                               Psi4 1.4a3.dev225

  ==> Input File <==

--------------------------------------------------------------------------
#psi4
#
memory 32 gb

molecule  {
0 1
  C        1.3418020    -0.8103610     0.1807780
  O        0.0000010     1.5029090     0.3799830
  S       -0.0148375     0.2438094    -0.4455158
  C       -1.3418030    -0.8103600     0.1807780
  H        1.3064620    -1.7943290    -0.2939050
  H        2.2815750    -0.3144010    -0.0684470
  H        1.2580440    -0.8989840     1.2670770
  H       -1.3064650    -1.7943270    -0.2939050
  H       -1.2580450    -0.8989840     1.2670770
  H       -2.2815760    -0.3143980    -0.0684470
units angstrom
no_reorient  #important for SAPT in psi4, default
symmetry c1  #important for SAPT in psi4, default
}

set PROPERTIES_ORIGIN ["COM"]
properties('MP2/aug-cc-pvtz', properties = ['dipole'])
--------------------------------------------------------------------------

    Molecular point group: c1
  Charge       = 0
  Multiplicity = 1
  Basis Set: AUG-CC-PVTZ
    Blend: AUG-CC-PVTZ
  Basis Set: (AUG-CC-PVTZ AUX)
    Blend: AUG-CC-PVTZ-JKFIT

    Orbital Energies [Eh]
    ---------------------

    Doubly Occupied:

       1A    -92.072191     2A    -20.505290     3A    -11.265291
       4A    -11.265115     5A     -9.058446     6A     -6.740136
       7A     -6.739905     8A     -6.738559     9A     -1.330058
      10A     -1.062756    11A     -0.973893    12A     -0.819032
      13A     -0.639996    14A     -0.627261    15A     -0.620089
      16A     -0.585138    17A     -0.562932    18A     -0.543012
      19A     -0.513669    20A     -0.418403    21A     -0.369870

  @DF-RHF Final Energy:  -551.65212372098108

   => Energetics <=

    Nuclear Repulsion Energy =            183.0551686015535608
    One-Electron Energy =               -1122.5125006499872597
    Two-Electron Energy =                 387.8052083274527035
    Total Energy =                       -551.6521237209810806
  Basis Set: (AUG-CC-PVTZ AUX)
    Blend: AUG-CC-PVTZ-RI
    Molecular point group: c1

    Geometry (in Angstrom), charge = 0, multiplicity = 1:

       Center              X                  Y                   Z               Mass
    ------------   -----------------  -----------------  -----------------  -----------------
         C            1.347882793697    -0.891408657279     0.206465541528    12.000000000000
         O            0.006081793697     1.421861342721     0.405670541528    15.994914619570
         S           -0.008756706303     0.162761742721    -0.419828258472    31.972071174400
         C           -1.335722206303    -0.891407657279     0.206465541528    12.000000000000
         H            1.312542793697    -1.875376657279    -0.268217458472     1.007825032230
         H            2.287655793697    -0.395448657279    -0.042759458472     1.007825032230
         H            1.264124793697    -0.980031657279     1.292764541528     1.007825032230
         H           -1.300384206303    -1.875374657279    -0.268217458472     1.007825032230
         H           -1.251964206303    -0.980031657279     1.292764541528     1.007825032230
         H           -2.275495206303    -0.395445657279    -0.042759458472     1.007825032230

  Basis Set: AUG-CC-PVTZ
    Blend: AUG-CC-PVTZ
  Basis Set: (AUG-CC-PVTZ AUX)
    Blend: AUG-CC-PVTZ-JKFIT
	 Reference Energy          =    -551.6521237209810806 [Eh]
	 Singles Energy            =      -0.0000000000000000 [Eh]
	 Same-Spin Energy          =      -0.2101819844242783 [Eh]
	 Opposite-Spin Energy      =      -0.6826595450665106 [Eh]
	 Correlation Energy        =      -0.8928415294907890 [Eh]
	 Total Energy              =    -552.5449652504718188 [Eh]

	 ================> DF-SCS-MP2 Energies <==================
	-----------------------------------------------------------
	 SCS Same-Spin Scale       =       0.3333333333333333 [-]
	 SCS Opposite-Spin Scale   =       1.2000000000000000 [-]
	 SCS Same-Spin Energy      =      -0.0700606614747594 [Eh]
	 SCS Opposite-Spin Energy  =      -0.8191914540798128 [Eh]
	 SCS Correlation Energy    =      -0.8892521155545722 [Eh]
	 SCS Total Energy          =    -552.5413758365356216 [Eh]
	-----------------------------------------------------------

  Dipole Moment: [D]
     X:    -0.0492      Y:    -4.0930      Z:    -0.5143     Total:     4.1255

*** Psi4 exiting successfully. Buy a developer a beer!
