                               Psi4 1.3.2 release

  ==> Input File <==

--------------------------------------------------------------------------
#psi4
#
memory 32 gb

molecule  {
0 1
  C        1.3418690    -0.8104050     0.1807640
  O        0.0000100     1.5029040     0.3799780
  S       -0.1483760     0.3476173    -0.5071278
  C       -1.3418780    -0.8103900     0.1807640
  H        1.3059240    -1.7946100    -0.2933430
  H        2.2816510    -0.3148530    -0.0691800
  H        1.2585190    -0.8983510     1.2671320
  H       -1.3059460    -1.7945940    -0.2933460
  H       -1.2585290    -0.8983420     1.2671320
  H       -2.2816550    -0.3148250    -0.0691770
units angstrom
no_reorient  #important for SAPT in psi4, default
symmetry c1  #important for SAPT in psi4, default
}

set PROPERTIES_ORIGIN ["COM"]
properties('MP2/aug-cc-pvtz', properties = ['dipole'])
--------------------------------------------------------------------------

    Molecular point group: c1
  Charge       = 0
  Multiplicity = 1
  Basis Set: AUG-CC-PVTZ
    Blend: AUG-CC-PVTZ
  Basis Set: (AUG-CC-PVTZ AUX)
    Blend: AUG-CC-PVTZ-JKFIT

    Orbital Energies [Eh]
    ---------------------

    Doubly Occupied:

       1A    -92.079056     2A    -20.510318     3A    -11.263002
       4A    -11.262065     5A     -9.064031     6A     -6.745437
       7A     -6.745281     8A     -6.743850     9A     -1.356579
      10A     -1.045851    11A     -0.953572    12A     -0.819906
      13A     -0.631758    14A     -0.626091    15A     -0.608660
      16A     -0.579337    17A     -0.571101    18A     -0.533298
      19A     -0.529980    20A     -0.406525    21A     -0.371060

  @DF-RHF Final Energy:  -551.63284542244855

   => Energetics <=

    Nuclear Repulsion Energy =            181.3400574020656961
    One-Electron Energy =               -1119.0522875433232457
    Two-Electron Energy =                 386.0793847188090240
    Total Energy =                       -551.6328454224485540
  Basis Set: (AUG-CC-PVTZ AUX)
    Blend: AUG-CC-PVTZ-RI
    Molecular point group: c1

    Geometry (in Angstrom), charge = 0, multiplicity = 1:

       Center              X                  Y                   Z               Mass
    ------------   -----------------  -----------------  -----------------  -----------------
         C            1.402677012121    -0.933981371685     0.231710016367    12.000000000000
         O            0.060818012121     1.379327628315     0.430924016367    15.994914619570
         S           -0.087567987879     0.224040928315    -0.456181783633    31.972071174400
         C           -1.281069987879    -0.933966371685     0.231710016367    12.000000000000
         H            1.366732012121    -1.918186371685    -0.242396983633     1.007825032230
         H            2.342459012121    -0.438429371685    -0.018233983633     1.007825032230
         H            1.319327012121    -1.021927371685     1.318078016367     1.007825032230
         H           -1.245137987879    -1.918170371685    -0.242399983633     1.007825032230
         H           -1.197720987879    -1.021918371685     1.318078016367     1.007825032230
         H           -2.220846987879    -0.438401371685    -0.018230983633     1.007825032230

  Basis Set: AUG-CC-PVTZ
    Blend: AUG-CC-PVTZ
  Basis Set: (AUG-CC-PVTZ AUX)
    Blend: AUG-CC-PVTZ-JKFIT
	 Reference Energy          =    -551.6328454224485540 [Eh]
	 Singles Energy            =      -0.0000000000000000 [Eh]
	 Same-Spin Energy          =      -0.2100494514404245 [Eh]
	 Opposite-Spin Energy      =      -0.6845523248121544 [Eh]
	 Correlation Energy        =      -0.8946017762525790 [Eh]
	 Total Energy              =    -552.5274471987011111 [Eh]

	 ================> DF-SCS-MP2 Energies <==================
	-----------------------------------------------------------
	 SCS Same-Spin Scale       =       0.3333333333333333 [-]
	 SCS Opposite-Spin Scale   =       1.2000000000000000 [-]
	 SCS Same-Spin Energy      =      -0.0700164838134748 [Eh]
	 SCS Opposite-Spin Energy  =      -0.8214627897745853 [Eh]
	 SCS Correlation Energy    =      -0.8914792735880601 [Eh]
	 SCS Total Energy          =    -552.5243246960366150 [Eh]
	-----------------------------------------------------------

  Dipole Moment: [D]
     X:    -0.4786      Y:    -3.4951      Z:    -0.6476     Total:     3.5867

*** Psi4 exiting successfully. Buy a developer a beer!
