                               Psi4 1.3.2 release

  ==> Input File <==

--------------------------------------------------------------------------
#psi4
#
memory 32 gb

molecule  {
0 1
  C        1.3092549    -0.8962160     0.0940955
  O        0.0000100     1.5029040     0.3799780
  S        0.0000000     0.2323190    -0.4386380
  C       -1.3418780    -0.8103900     0.1807640
  H        1.3059240    -1.7946100    -0.2933430
  H        2.2816510    -0.3148530    -0.0691800
  H        1.2585190    -0.8983510     1.2671320
  H       -1.3059460    -1.7945940    -0.2933460
  H       -1.2585290    -0.8983420     1.2671320
  H       -2.2816550    -0.3148250    -0.0691770
units angstrom
no_reorient  #important for SAPT in psi4, default
symmetry c1  #important for SAPT in psi4, default
}

set PROPERTIES_ORIGIN ["COM"]
properties('MP2/aug-cc-pvtz', properties = ['dipole'])
--------------------------------------------------------------------------

    Molecular point group: c1
  Charge       = 0
  Multiplicity = 1
  Basis Set: AUG-CC-PVTZ
    Blend: AUG-CC-PVTZ
  Basis Set: (AUG-CC-PVTZ AUX)
    Blend: AUG-CC-PVTZ-JKFIT

    Orbital Energies [Eh]
    ---------------------

    Doubly Occupied:

       1A    -92.072010     2A    -20.510500     3A    -11.268056
       4A    -11.264733     5A     -9.058353     6A     -6.740171
       7A     -6.739787     8A     -6.738551     9A     -1.329252
      10A     -1.068829    11A     -0.976199    12A     -0.822001
      13A     -0.656559    14A     -0.627966    15A     -0.623370
      16A     -0.581412    17A     -0.560369    18A     -0.533127
      19A     -0.509313    20A     -0.423400    21A     -0.368340

  @DF-RHF Final Energy:  -551.63177058677320

   => Energetics <=

    Nuclear Repulsion Energy =            183.1157704332960350
    One-Electron Energy =               -1122.5504844301908633
    Two-Electron Energy =                 387.8029434101216566
    Total Energy =                       -551.6317705867732002
  Basis Set: (AUG-CC-PVTZ AUX)
    Blend: AUG-CC-PVTZ-RI
    Molecular point group: c1

    Geometry (in Angstrom), charge = 0, multiplicity = 1:

       Center              X                  Y                   Z               Mass
    ------------   -----------------  -----------------  -----------------  -----------------
         C            1.314271356709    -0.959340897289     0.130303908967    12.000000000000
         O            0.005026456709     1.439779102711     0.416186408967    15.994914619570
         S            0.005016456709     0.169194102711    -0.402429591033    31.972071174400
         C           -1.336861543291    -0.873514897289     0.216972408967    12.000000000000
         H            1.310940456709    -1.857734897289    -0.257134591033     1.007825032230
         H            2.286667456709    -0.377977897289    -0.032971591033     1.007825032230
         H            1.263535456709    -0.961475897289     1.303340408967     1.007825032230
         H           -1.300929543291    -1.857718897289    -0.257137591033     1.007825032230
         H           -1.253512543291    -0.961466897289     1.303340408967     1.007825032230
         H           -2.276638543291    -0.377949897289    -0.032968591033     1.007825032230

  Basis Set: AUG-CC-PVTZ
    Blend: AUG-CC-PVTZ
  Basis Set: (AUG-CC-PVTZ AUX)
    Blend: AUG-CC-PVTZ-JKFIT
	 Reference Energy          =    -551.6317705867732002 [Eh]
	 Singles Energy            =      -0.0000000000000000 [Eh]
	 Same-Spin Energy          =      -0.2108835884251736 [Eh]
	 Opposite-Spin Energy      =      -0.6840295357736057 [Eh]
	 Correlation Energy        =      -0.8949131241987793 [Eh]
	 Total Energy              =    -552.5266837109719518 [Eh]

	 ================> DF-SCS-MP2 Energies <==================
	-----------------------------------------------------------
	 SCS Same-Spin Scale       =       0.3333333333333333 [-]
	 SCS Opposite-Spin Scale   =       1.2000000000000000 [-]
	 SCS Same-Spin Energy      =      -0.0702945294750578 [Eh]
	 SCS Opposite-Spin Energy  =      -0.8208354429283268 [Eh]
	 SCS Correlation Energy    =      -0.8911299724033847 [Eh]
	 SCS Total Energy          =    -552.5229005591766054 [Eh]
	-----------------------------------------------------------

  Dipole Moment: [D]
     X:    -0.0018      Y:    -4.1062      Z:    -0.4988     Total:     4.1364

*** Psi4 exiting successfully. Buy a developer a beer!
