                               Psi4 1.3.2 release

  ==> Input File <==

--------------------------------------------------------------------------
#psi4
#
memory 32 gb

molecule  {
0 1
  C        1.3418690    -0.8104050     0.1807640
  O        0.0000100     1.5029040     0.3799780
  S        0.0741880     0.1746698    -0.4043931
  C       -1.3418780    -0.8103900     0.1807640
  H        1.3059240    -1.7946100    -0.2933430
  H        2.2816510    -0.3148530    -0.0691800
  H        1.2585190    -0.8983510     1.2671320
  H       -1.3059460    -1.7945940    -0.2933460
  H       -1.2585290    -0.8983420     1.2671320
  H       -2.2816550    -0.3148250    -0.0691770
units angstrom
no_reorient  #important for SAPT in psi4, default
symmetry c1  #important for SAPT in psi4, default
}

set PROPERTIES_ORIGIN ["COM"]
properties('MP2/aug-cc-pvtz', properties = ['dipole'])
--------------------------------------------------------------------------

    Molecular point group: c1
  Charge       = 0
  Multiplicity = 1
  Basis Set: AUG-CC-PVTZ
    Blend: AUG-CC-PVTZ
  Basis Set: (AUG-CC-PVTZ AUX)
    Blend: AUG-CC-PVTZ-JKFIT

    Orbital Energies [Eh]
    ---------------------

    Doubly Occupied:

       1A    -92.066083     2A    -20.502255     3A    -11.267756
       4A    -11.266546     5A     -9.054321     6A     -6.736316
       7A     -6.735817     8A     -6.734437     9A     -1.308962
      10A     -1.084019    11A     -0.983838    12A     -0.818455
      13A     -0.649502    14A     -0.639091    15A     -0.621566
      16A     -0.590608    17A     -0.558204    18A     -0.545260
      19A     -0.499284    20A     -0.419938    21A     -0.365205

  @DF-RHF Final Energy:  -551.64469045495684

   => Energetics <=

    Nuclear Repulsion Energy =            184.0799106188011365
    One-Electron Energy =               -1124.5542717463779354
    Two-Electron Energy =                 388.8296706726199545
    Total Energy =                       -551.6446904549568444
  Basis Set: (AUG-CC-PVTZ AUX)
    Blend: AUG-CC-PVTZ-RI
    Molecular point group: c1

    Geometry (in Angstrom), charge = 0, multiplicity = 1:

       Center              X                  Y                   Z               Mass
    ------------   -----------------  -----------------  -----------------  -----------------
         C            1.311464692696    -0.863103140643     0.189606754957    12.000000000000
         O           -0.030394307304     1.450205859357     0.388820754957    15.994914619570
         S            0.043783692696     0.121971659357    -0.395550345043    31.972071174400
         C           -1.372282307304    -0.863088140643     0.189606754957    12.000000000000
         H            1.275519692696    -1.847308140643    -0.284500245043     1.007825032230
         H            2.251246692696    -0.367551140643    -0.060337245043     1.007825032230
         H            1.228114692696    -0.951049140643     1.275974754957     1.007825032230
         H           -1.336350307304    -1.847292140643    -0.284503245043     1.007825032230
         H           -1.288933307304    -0.951040140643     1.275974754957     1.007825032230
         H           -2.312059307304    -0.367523140643    -0.060334245043     1.007825032230

  Basis Set: AUG-CC-PVTZ
    Blend: AUG-CC-PVTZ
  Basis Set: (AUG-CC-PVTZ AUX)
    Blend: AUG-CC-PVTZ-JKFIT
	 Reference Energy          =    -551.6446904549568444 [Eh]
	 Singles Energy            =      -0.0000000000000000 [Eh]
	 Same-Spin Energy          =      -0.2110386402979040 [Eh]
	 Opposite-Spin Energy      =      -0.6831233278894562 [Eh]
	 Correlation Energy        =      -0.8941619681873602 [Eh]
	 Total Energy              =    -552.5388524231442489 [Eh]

	 ================> DF-SCS-MP2 Energies <==================
	-----------------------------------------------------------
	 SCS Same-Spin Scale       =       0.3333333333333333 [-]
	 SCS Opposite-Spin Scale   =       1.2000000000000000 [-]
	 SCS Same-Spin Energy      =      -0.0703462134326347 [Eh]
	 SCS Opposite-Spin Energy  =      -0.8197479934673474 [Eh]
	 SCS Correlation Energy    =      -0.8900942068999821 [Eh]
	 SCS Total Energy          =    -552.5347846618568610 [Eh]
	-----------------------------------------------------------

  Dipole Moment: [D]
     X:     0.2512      Y:    -4.5031      Z:    -0.4346     Total:     4.5310

*** Psi4 exiting successfully. Buy a developer a beer!
