                               Psi4 1.3.2 release

  ==> Input File <==

--------------------------------------------------------------------------
#psi4
#
memory 32 gb

molecule  {
0 1
  C        1.3418690    -0.8104050     0.1807640
  O        0.0000100     1.5029040     0.3799780
  S       -0.0000007     0.1482557    -0.4927985
  C       -1.3418780    -0.8103900     0.1807640
  H        1.3059240    -1.7946100    -0.2933430
  H        2.2816510    -0.3148530    -0.0691800
  H        1.2585190    -0.8983510     1.2671320
  H       -1.3059460    -1.7945940    -0.2933460
  H       -1.2585290    -0.8983420     1.2671320
  H       -2.2816550    -0.3148250    -0.0691770
units angstrom
no_reorient  #important for SAPT in psi4, default
symmetry c1  #important for SAPT in psi4, default
}

set PROPERTIES_ORIGIN ["COM"]
properties('MP2/aug-cc-pvtz', properties = ['dipole'])
--------------------------------------------------------------------------

    Molecular point group: c1
  Charge       = 0
  Multiplicity = 1
  Basis Set: AUG-CC-PVTZ
    Blend: AUG-CC-PVTZ
  Basis Set: (AUG-CC-PVTZ AUX)
    Blend: AUG-CC-PVTZ-JKFIT

    Orbital Energies [Eh]
    ---------------------

    Doubly Occupied:

       1A    -92.070758     2A    -20.499408     3A    -11.270508
       4A    -11.270496     5A     -9.058508     6A     -6.740206
       7A     -6.739763     8A     -6.738344     9A     -1.275323
      10A     -1.076268    11A     -0.983779    12A     -0.825926
      13A     -0.643223    14A     -0.634952    15A     -0.618458
      16A     -0.592694    17A     -0.547762    18A     -0.537523
      19A     -0.486189    20A     -0.409310    21A     -0.375542

  @DF-RHF Final Energy:  -551.63988062625197

   => Energetics <=

    Nuclear Repulsion Energy =            181.5295144333057920
    One-Electron Energy =               -1119.5489128937792884
    Two-Electron Energy =                 386.3795178342214740
    Total Energy =                       -551.6398806262519656
  Basis Set: (AUG-CC-PVTZ AUX)
    Blend: AUG-CC-PVTZ-RI
    Molecular point group: c1

    Geometry (in Angstrom), charge = 0, multiplicity = 1:

       Center              X                  Y                   Z               Mass
    ------------   -----------------  -----------------  -----------------  -----------------
         C            1.341869086049    -0.852277978773     0.225837509183    12.000000000000
         O            0.000010086049     1.461031021227     0.425051509183    15.994914619570
         S           -0.000000613951     0.106382721227    -0.447724990817    31.972071174400
         C           -1.341877913951    -0.852262978773     0.225837509183    12.000000000000
         H            1.305924086049    -1.836482978773    -0.248269490817     1.007825032230
         H            2.281651086049    -0.356725978773    -0.024106490817     1.007825032230
         H            1.258519086049    -0.940223978773     1.312205509183     1.007825032230
         H           -1.305945913951    -1.836466978773    -0.248272490817     1.007825032230
         H           -1.258528913951    -0.940214978773     1.312205509183     1.007825032230
         H           -2.281654913951    -0.356697978773    -0.024103490817     1.007825032230

  Basis Set: AUG-CC-PVTZ
    Blend: AUG-CC-PVTZ
  Basis Set: (AUG-CC-PVTZ AUX)
    Blend: AUG-CC-PVTZ-JKFIT
	 Reference Energy          =    -551.6398806262519656 [Eh]
	 Singles Energy            =      -0.0000000000000000 [Eh]
	 Same-Spin Energy          =      -0.2111277028685457 [Eh]
	 Opposite-Spin Energy      =      -0.6852677955759058 [Eh]
	 Correlation Energy        =      -0.8963954984444514 [Eh]
	 Total Energy              =    -552.5362761246964283 [Eh]

	 ================> DF-SCS-MP2 Energies <==================
	-----------------------------------------------------------
	 SCS Same-Spin Scale       =       0.3333333333333333 [-]
	 SCS Opposite-Spin Scale   =       1.2000000000000000 [-]
	 SCS Same-Spin Energy      =      -0.0703759009561819 [Eh]
	 SCS Opposite-Spin Energy  =      -0.8223213546910869 [Eh]
	 SCS Correlation Energy    =      -0.8926972556472688 [Eh]
	 SCS Total Energy          =    -552.5325778818992148 [Eh]
	-----------------------------------------------------------

  Dipole Moment: [D]
     X:    -0.0000      Y:    -4.7478      Z:    -0.6340     Total:     4.7899

*** Psi4 exiting successfully. Buy a developer a beer!
