                               Psi4 1.3.2 release

  ==> Input File <==

--------------------------------------------------------------------------
#psi4
#
memory 32 gb

molecule  {
0 1
  C        1.3784914    -0.6723009     0.3049807
  O        0.0000100     1.5029040     0.3799780
  S        0.0000000     0.2323190    -0.4386380
  C       -1.3418780    -0.8103900     0.1807640
  H        1.3059240    -1.7946100    -0.2933430
  H        2.2816510    -0.3148530    -0.0691800
  H        1.2585190    -0.8983510     1.2671320
  H       -1.3059460    -1.7945940    -0.2933460
  H       -1.2585290    -0.8983420     1.2671320
  H       -2.2816550    -0.3148250    -0.0691770
units angstrom
no_reorient  #important for SAPT in psi4, default
symmetry c1  #important for SAPT in psi4, default
}

set PROPERTIES_ORIGIN ["COM"]
properties('MP2/aug-cc-pvtz', properties = ['dipole'])
--------------------------------------------------------------------------

    Molecular point group: c1
  Charge       = 0
  Multiplicity = 1
  Basis Set: AUG-CC-PVTZ
    Blend: AUG-CC-PVTZ
  Basis Set: (AUG-CC-PVTZ AUX)
    Blend: AUG-CC-PVTZ-JKFIT

    Orbital Energies [Eh]
    ---------------------

    Doubly Occupied:

       1A    -92.074209     2A    -20.498900     3A    -11.269052
       4A    -11.267370     5A     -9.060524     6A     -6.742148
       7A     -6.742024     8A     -6.740514     9A     -1.325665
      10A     -1.063410    11A     -0.979773    12A     -0.823335
      13A     -0.667146    14A     -0.628607    15A     -0.616589
      16A     -0.582854    17A     -0.555446    18A     -0.538696
      19A     -0.501253    20A     -0.412767    21A     -0.371164

  @DF-RHF Final Energy:  -551.62230199733222

   => Energetics <=

    Nuclear Repulsion Energy =            183.4703194495257037
    One-Electron Energy =               -1123.2623498961245332
    Two-Electron Energy =                 388.1697284492665858
    Total Energy =                       -551.6223019973322153
  Basis Set: (AUG-CC-PVTZ AUX)
    Blend: AUG-CC-PVTZ-RI
    Molecular point group: c1

    Geometry (in Angstrom), charge = 0, multiplicity = 1:

       Center              X                  Y                   Z               Mass
    ------------   -----------------  -----------------  -----------------  -----------------
         C            1.372857990252    -0.769868120523     0.308751027642    12.000000000000
         O           -0.005623409748     1.405336779477     0.383748327642    15.994914619570
         S           -0.005633409748     0.134751779477    -0.434867672358    31.972071174400
         C           -1.347511409748    -0.907957220523     0.184534327642    12.000000000000
         H            1.300290590252    -1.892177220523    -0.289572672358     1.007825032230
         H            2.276017590252    -0.412420220523    -0.065409672358     1.007825032230
         H            1.252885590252    -0.995918220523     1.270902327642     1.007825032230
         H           -1.311579409748    -1.892161220523    -0.289575672358     1.007825032230
         H           -1.264162409748    -0.995909220523     1.270902327642     1.007825032230
         H           -2.287288409748    -0.412392220523    -0.065406672358     1.007825032230

  Basis Set: AUG-CC-PVTZ
    Blend: AUG-CC-PVTZ
  Basis Set: (AUG-CC-PVTZ AUX)
    Blend: AUG-CC-PVTZ-JKFIT
	 Reference Energy          =    -551.6223019973322153 [Eh]
	 Singles Energy            =      -0.0000000000000000 [Eh]
	 Same-Spin Energy          =      -0.2103846243824360 [Eh]
	 Opposite-Spin Energy      =      -0.6837565422970480 [Eh]
	 Correlation Energy        =      -0.8941411666794840 [Eh]
	 Total Energy              =    -552.5164431640116618 [Eh]

	 ================> DF-SCS-MP2 Energies <==================
	-----------------------------------------------------------
	 SCS Same-Spin Scale       =       0.3333333333333333 [-]
	 SCS Opposite-Spin Scale   =       1.2000000000000000 [-]
	 SCS Same-Spin Energy      =      -0.0701282081274787 [Eh]
	 SCS Opposite-Spin Energy  =      -0.8205078507564575 [Eh]
	 SCS Correlation Energy    =      -0.8906360588839362 [Eh]
	 SCS Total Energy          =    -552.5129380562161714 [Eh]
	-----------------------------------------------------------

  Dipole Moment: [D]
     X:    -0.0460      Y:    -4.1210      Z:    -0.4857     Total:     4.1498

*** Psi4 exiting successfully. Buy a developer a beer!
