                               Psi4 1.3.2 release

  ==> Input File <==

--------------------------------------------------------------------------
#psi4
#
memory 32 gb

molecule  {
0 1
  C        1.3557332    -0.7655674     0.2229925
  O        0.0000100     1.5029040     0.3799780
  S        0.0000000     0.2323190    -0.4386380
  C       -1.3418780    -0.8103900     0.1807640
  H        1.3059240    -1.7946100    -0.2933430
  H        2.2816510    -0.3148530    -0.0691800
  H        1.2585190    -0.8983510     1.2671320
  H       -1.3059460    -1.7945940    -0.2933460
  H       -1.2585290    -0.8983420     1.2671320
  H       -2.2816550    -0.3148250    -0.0691770
units angstrom
no_reorient  #important for SAPT in psi4, default
symmetry c1  #important for SAPT in psi4, default
}

set PROPERTIES_ORIGIN ["COM"]
properties('MP2/aug-cc-pvtz', properties = ['dipole'])
--------------------------------------------------------------------------

    Molecular point group: c1
  Charge       = 0
  Multiplicity = 1
  Basis Set: AUG-CC-PVTZ
    Blend: AUG-CC-PVTZ
  Basis Set: (AUG-CC-PVTZ AUX)
    Blend: AUG-CC-PVTZ-JKFIT

    Orbital Energies [Eh]
    ---------------------

    Doubly Occupied:

       1A    -92.071764     2A    -20.502449     3A    -11.266074
       4A    -11.265645     5A     -9.058259     6A     -6.739946
       7A     -6.739752     8A     -6.738343     9A     -1.325949
      10A     -1.064551    11A     -0.976767    12A     -0.819666
      13A     -0.647292    14A     -0.626711    15A     -0.616998
      16A     -0.586426    17A     -0.558091    18A     -0.547170
      19A     -0.510444    20A     -0.417023    21A     -0.369756

  @DF-RHF Final Energy:  -551.64890934820562

   => Energetics <=

    Nuclear Repulsion Energy =            183.3022179950424402
    One-Electron Energy =               -1123.0041039418204036
    Two-Electron Energy =                 388.0529765985723998
    Total Energy =                       -551.6489093482056205
  Basis Set: (AUG-CC-PVTZ AUX)
    Blend: AUG-CC-PVTZ-RI
    Molecular point group: c1

    Geometry (in Angstrom), charge = 0, multiplicity = 1:

       Center              X                  Y                   Z               Mass
    ------------   -----------------  -----------------  -----------------  -----------------
         C            1.353600426344    -0.848788491388     0.239374143653    12.000000000000
         O           -0.002122773656     1.419682908612     0.396359643653    15.994914619570
         S           -0.002132773656     0.149097908612    -0.422256356347    31.972071174400
         C           -1.344010773656    -0.893611091388     0.197145643653    12.000000000000
         H            1.303791226344    -1.877831091388    -0.276961356347     1.007825032230
         H            2.279518226344    -0.398074091388    -0.052798356347     1.007825032230
         H            1.256386226344    -0.981572091388     1.283513643653     1.007825032230
         H           -1.308078773656    -1.877815091388    -0.276964356347     1.007825032230
         H           -1.260661773656    -0.981563091388     1.283513643653     1.007825032230
         H           -2.283787773656    -0.398046091388    -0.052795356347     1.007825032230

  Basis Set: AUG-CC-PVTZ
    Blend: AUG-CC-PVTZ
  Basis Set: (AUG-CC-PVTZ AUX)
    Blend: AUG-CC-PVTZ-JKFIT
	 Reference Energy          =    -551.6489093482056205 [Eh]
	 Singles Energy            =      -0.0000000000000000 [Eh]
	 Same-Spin Energy          =      -0.2101862267268069 [Eh]
	 Opposite-Spin Energy      =      -0.6826263779037806 [Eh]
	 Correlation Energy        =      -0.8928126046305874 [Eh]
	 Total Energy              =    -552.5417219528361557 [Eh]

	 ================> DF-SCS-MP2 Energies <==================
	-----------------------------------------------------------
	 SCS Same-Spin Scale       =       0.3333333333333333 [-]
	 SCS Opposite-Spin Scale   =       1.2000000000000000 [-]
	 SCS Same-Spin Energy      =      -0.0700620755756023 [Eh]
	 SCS Opposite-Spin Energy  =      -0.8191516534845367 [Eh]
	 SCS Correlation Energy    =      -0.8892137290601390 [Eh]
	 SCS Total Energy          =    -552.5381230772657091 [Eh]
	-----------------------------------------------------------

  Dipole Moment: [D]
     X:    -0.0102      Y:    -4.1623      Z:    -0.4975     Total:     4.1920

*** Psi4 exiting successfully. Buy a developer a beer!
