                               Psi4 1.3.2 release

  ==> Input File <==

--------------------------------------------------------------------------
#psi4
#
memory 32 gb

molecule  {
0 1
  C        1.2539982    -0.8883409     0.2270604
  O        0.0000100     1.5029040     0.3799780
  S        0.0000000     0.2323190    -0.4386380
  C       -1.3418780    -0.8103900     0.1807640
  H        1.3059240    -1.7946100    -0.2933430
  H        2.2816510    -0.3148530    -0.0691800
  H        1.2585190    -0.8983510     1.2671320
  H       -1.3059460    -1.7945940    -0.2933460
  H       -1.2585290    -0.8983420     1.2671320
  H       -2.2816550    -0.3148250    -0.0691770
units angstrom
no_reorient  #important for SAPT in psi4, default
symmetry c1  #important for SAPT in psi4, default
}

set PROPERTIES_ORIGIN ["COM"]
properties('MP2/aug-cc-pvtz', properties = ['dipole'])
--------------------------------------------------------------------------

    Molecular point group: c1
  Charge       = 0
  Multiplicity = 1
  Basis Set: AUG-CC-PVTZ
    Blend: AUG-CC-PVTZ
  Basis Set: (AUG-CC-PVTZ AUX)
    Blend: AUG-CC-PVTZ-JKFIT

    Orbital Energies [Eh]
    ---------------------

    Doubly Occupied:

       1A    -92.073592     2A    -20.508539     3A    -11.266508
       4A    -11.263479     5A     -9.059837     6A     -6.741575
       7A     -6.741166     8A     -6.739929     9A     -1.329126
      10A     -1.068816    11A     -0.972502    12A     -0.821682
      13A     -0.655813    14A     -0.625015    15A     -0.614343
      16A     -0.596605    17A     -0.565035    18A     -0.518002
      19A     -0.511733    20A     -0.418853    21A     -0.374995

  @DF-RHF Final Energy:  -551.63616858558680

   => Energetics <=

    Nuclear Repulsion Energy =            183.4664701744433728
    One-Electron Energy =               -1123.2709876117380645
    Two-Electron Energy =                 388.1683488517078331
    Total Energy =                       -551.6361685855868018
  Basis Set: (AUG-CC-PVTZ AUX)
    Blend: AUG-CC-PVTZ-RI
    Molecular point group: c1

    Geometry (in Angstrom), charge = 0, multiplicity = 1:

       Center              X                  Y                   Z               Mass
    ------------   -----------------  -----------------  -----------------  -----------------
         C            1.267514168900    -0.952677134710     0.242816324679    12.000000000000
         O            0.013525968900     1.438567765290     0.395733924679    15.994914619570
         S            0.013515968900     0.167982765290    -0.422882075321    31.972071174400
         C           -1.328362031100    -0.874726234710     0.196519924679    12.000000000000
         H            1.319439968900    -1.858946234710    -0.277587075321     1.007825032230
         H            2.295166968900    -0.379189234710    -0.053424075321     1.007825032230
         H            1.272034968900    -0.962687234710     1.282887924679     1.007825032230
         H           -1.292430031100    -1.858930234710    -0.277590075321     1.007825032230
         H           -1.245013031100    -0.962678234710     1.282887924679     1.007825032230
         H           -2.268139031100    -0.379161234710    -0.053421075321     1.007825032230

  Basis Set: AUG-CC-PVTZ
    Blend: AUG-CC-PVTZ
  Basis Set: (AUG-CC-PVTZ AUX)
    Blend: AUG-CC-PVTZ-JKFIT
	 Reference Energy          =    -551.6361685855868018 [Eh]
	 Singles Energy            =      -0.0000000000000000 [Eh]
	 Same-Spin Energy          =      -0.2109917919768040 [Eh]
	 Opposite-Spin Energy      =      -0.6843065203501686 [Eh]
	 Correlation Energy        =      -0.8952983123269727 [Eh]
	 Total Energy              =    -552.5314668979137878 [Eh]

	 ================> DF-SCS-MP2 Energies <==================
	-----------------------------------------------------------
	 SCS Same-Spin Scale       =       0.3333333333333333 [-]
	 SCS Opposite-Spin Scale   =       1.2000000000000000 [-]
	 SCS Same-Spin Energy      =      -0.0703305973256013 [Eh]
	 SCS Opposite-Spin Energy  =      -0.8211678244202023 [Eh]
	 SCS Correlation Energy    =      -0.8914984217458036 [Eh]
	 SCS Total Energy          =    -552.5276670073326386 [Eh]
	-----------------------------------------------------------

  Dipole Moment: [D]
     X:    -0.0308      Y:    -4.0926      Z:    -0.5177     Total:     4.1254

*** Psi4 exiting successfully. Buy a developer a beer!
