                               Psi4 1.3.2 release

  ==> Input File <==

--------------------------------------------------------------------------
#psi4
#
memory 32 gb

molecule  {
0 1
  C        1.2905448    -0.9370848     0.0497610
  O        0.0000100     1.5029040     0.3799780
  S        0.0000000     0.2323190    -0.4386380
  C       -1.3418780    -0.8103900     0.1807640
  H        1.3059240    -1.7946100    -0.2933430
  H        2.2816510    -0.3148530    -0.0691800
  H        1.2585190    -0.8983510     1.2671320
  H       -1.3059460    -1.7945940    -0.2933460
  H       -1.2585290    -0.8983420     1.2671320
  H       -2.2816550    -0.3148250    -0.0691770
units angstrom
no_reorient  #important for SAPT in psi4, default
symmetry c1  #important for SAPT in psi4, default
}

set PROPERTIES_ORIGIN ["COM"]
properties('MP2/aug-cc-pvtz', properties = ['dipole'])
--------------------------------------------------------------------------

    Molecular point group: c1
  Charge       = 0
  Multiplicity = 1
  Basis Set: AUG-CC-PVTZ
    Blend: AUG-CC-PVTZ
  Basis Set: (AUG-CC-PVTZ AUX)
    Blend: AUG-CC-PVTZ-JKFIT

    Orbital Energies [Eh]
    ---------------------

    Doubly Occupied:

       1A    -92.073242     2A    -20.513928     3A    -11.270566
       4A    -11.264497     5A     -9.059403     6A     -6.741267
       7A     -6.740807     8A     -6.739625     9A     -1.331097
      10A     -1.071081    11A     -0.977739    12A     -0.826776
      13A     -0.668730    14A     -0.625415    15A     -0.623791
      16A     -0.580990    17A     -0.557753    18A     -0.526920
      19A     -0.504806    20A     -0.425675    21A     -0.367975

  @DF-RHF Final Energy:  -551.60518421929021

   => Energetics <=

    Nuclear Repulsion Energy =            183.0875071375806442
    One-Electron Energy =               -1122.4012161370937974
    Two-Electron Energy =                 387.7085247802230015
    Total Energy =                       -551.6051842192902086
  Basis Set: (AUG-CC-PVTZ AUX)
    Blend: AUG-CC-PVTZ-RI
    Molecular point group: c1

    Geometry (in Angstrom), charge = 0, multiplicity = 1:

       Center              X                  Y                   Z               Mass
    ------------   -----------------  -----------------  -----------------  -----------------
         C            1.298439219436    -0.993923312763     0.092788882863    12.000000000000
         O            0.007904419436     1.446065487237     0.423005882863    15.994914619570
         S            0.007894419436     0.175480487237    -0.395610117137    31.972071174400
         C           -1.333983580564    -0.867228512763     0.223791882863    12.000000000000
         H            1.313818419436    -1.851448512763    -0.250315117137     1.007825032230
         H            2.289545419436    -0.371691512763    -0.026152117137     1.007825032230
         H            1.266413419436    -0.955189512763     1.310159882863     1.007825032230
         H           -1.298051580564    -1.851432512763    -0.250318117137     1.007825032230
         H           -1.250634580564    -0.955180512763     1.310159882863     1.007825032230
         H           -2.273760580564    -0.371663512763    -0.026149117137     1.007825032230

  Basis Set: AUG-CC-PVTZ
    Blend: AUG-CC-PVTZ
  Basis Set: (AUG-CC-PVTZ AUX)
    Blend: AUG-CC-PVTZ-JKFIT
	 Reference Energy          =    -551.6051842192902086 [Eh]
	 Singles Energy            =      -0.0000000000000000 [Eh]
	 Same-Spin Energy          =      -0.2114084917948912 [Eh]
	 Opposite-Spin Energy      =      -0.6854889457808990 [Eh]
	 Correlation Energy        =      -0.8968974375757902 [Eh]
	 Total Energy              =    -552.5020816568660393 [Eh]

	 ================> DF-SCS-MP2 Energies <==================
	-----------------------------------------------------------
	 SCS Same-Spin Scale       =       0.3333333333333333 [-]
	 SCS Opposite-Spin Scale   =       1.2000000000000000 [-]
	 SCS Same-Spin Energy      =      -0.0704694972649637 [Eh]
	 SCS Opposite-Spin Energy  =      -0.8225867349370788 [Eh]
	 SCS Correlation Energy    =      -0.8930562322020426 [Eh]
	 SCS Total Energy          =    -552.4982404514922791 [Eh]
	-----------------------------------------------------------

  Dipole Moment: [D]
     X:    -0.0163      Y:    -4.0542      Z:    -0.4958     Total:     4.0844

*** Psi4 exiting successfully. Buy a developer a beer!
