                               Psi4 1.3.2 release

  ==> Input File <==

--------------------------------------------------------------------------
#psi4
#
memory 32 gb

molecule  {
0 1
  C        1.3418690    -0.8104050     0.1807640
  O        0.0000100     1.5029040     0.3799780
  S        0.0000000     0.2323190    -0.4386380
  C       -1.3418780    -0.8103900     0.1807640
  H        1.3059240    -1.7946100    -0.2933430
  H        2.2816510    -0.3148530    -0.0691800
  H        1.2585190    -0.8983510     1.2671320
  H       -1.3059460    -1.7945940    -0.2933460
  H       -1.2585290    -0.8983420     1.2671320
  H       -2.2816550    -0.3148250    -0.0691770
units angstrom
no_reorient  #important for SAPT in psi4, default
symmetry c1  #important for SAPT in psi4, default
}

set PROPERTIES_ORIGIN ["COM"]
properties('MP2/aug-cc-pvtz', properties = ['dipole'])
--------------------------------------------------------------------------

    Molecular point group: c1
  Charge       = 0
  Multiplicity = 1
  Basis Set: AUG-CC-PVTZ
    Blend: AUG-CC-PVTZ
  Basis Set: (AUG-CC-PVTZ AUX)
    Blend: AUG-CC-PVTZ-JKFIT

    Orbital Energies [Eh]
    ---------------------

    Doubly Occupied:

       1A    -92.071293     2A    -20.504763     3A    -11.265540
       4A    -11.265528     5A     -9.057798     6A     -6.739526
       7A     -6.739276     8A     -6.737926     9A     -1.326670
      10A     -1.065596    11A     -0.975891    12A     -0.818947
      13A     -0.641274    14A     -0.628431    15A     -0.620879
      16A     -0.586110    17A     -0.561220    18A     -0.544455
      19A     -0.511472    20A     -0.419087    21A     -0.369202

  @DF-RHF Final Energy:  -551.65225713238021

   => Energetics <=

    Nuclear Repulsion Energy =            183.2267332713154531
    One-Electron Energy =               -1122.8562118568456754
    Two-Electron Energy =                 387.9772214531500367
    Total Energy =                       -551.6522571323802140
  Basis Set: (AUG-CC-PVTZ AUX)
    Blend: AUG-CC-PVTZ-RI
    Molecular point group: c1

    Geometry (in Angstrom), charge = 0, multiplicity = 1:

       Center              X                  Y                   Z               Mass
    ------------   -----------------  -----------------  -----------------  -----------------
         C            1.341868799171    -0.886729231318     0.203641175427    12.000000000000
         O            0.000009799171     1.426579768682     0.402855175427    15.994914619570
         S           -0.000000200829     0.155994768682    -0.415760824573    31.972071174400
         C           -1.341878200829    -0.886714231318     0.203641175427    12.000000000000
         H            1.305923799171    -1.870934231318    -0.270465824573     1.007825032230
         H            2.281650799171    -0.391177231318    -0.046302824573     1.007825032230
         H            1.258518799171    -0.974675231318     1.290009175427     1.007825032230
         H           -1.305946200829    -1.870918231318    -0.270468824573     1.007825032230
         H           -1.258529200829    -0.974666231318     1.290009175427     1.007825032230
         H           -2.281655200829    -0.391149231318    -0.046299824573     1.007825032230

  Basis Set: AUG-CC-PVTZ
    Blend: AUG-CC-PVTZ
  Basis Set: (AUG-CC-PVTZ AUX)
    Blend: AUG-CC-PVTZ-JKFIT
	 Reference Energy          =    -551.6522571323802140 [Eh]
	 Singles Energy            =      -0.0000000000000000 [Eh]
	 Same-Spin Energy          =      -0.2102794461722667 [Eh]
	 Opposite-Spin Energy      =      -0.6826398465139760 [Eh]
	 Correlation Energy        =      -0.8929192926862428 [Eh]
	 Total Energy              =    -552.5451764250664155 [Eh]

	 ================> DF-SCS-MP2 Energies <==================
	-----------------------------------------------------------
	 SCS Same-Spin Scale       =       0.3333333333333333 [-]
	 SCS Opposite-Spin Scale   =       1.2000000000000000 [-]
	 SCS Same-Spin Energy      =      -0.0700931487240889 [Eh]
	 SCS Opposite-Spin Energy  =      -0.8191678158167712 [Eh]
	 SCS Correlation Energy    =      -0.8892609645408601 [Eh]
	 SCS Total Energy          =    -552.5415180969210951 [Eh]
	-----------------------------------------------------------

  Dipole Moment: [D]
     X:    -0.0000      Y:    -4.1605      Z:    -0.5000     Total:     4.1904

*** Psi4 exiting successfully. Buy a developer a beer!
