                               Psi4 1.3.2 release

  ==> Input File <==

--------------------------------------------------------------------------
#psi4
#
memory 32 gb

molecule  {
0 1
  C        1.3263699    -0.8539722     0.1377809
  O        0.0000100     1.5029040     0.3799780
  S        0.0000000     0.2323190    -0.4386380
  C       -1.3418780    -0.8103900     0.1807640
  H        1.3059240    -1.7946100    -0.2933430
  H        2.2816510    -0.3148530    -0.0691800
  H        1.2585190    -0.8983510     1.2671320
  H       -1.3059460    -1.7945940    -0.2933460
  H       -1.2585290    -0.8983420     1.2671320
  H       -2.2816550    -0.3148250    -0.0691770
units angstrom
no_reorient  #important for SAPT in psi4, default
symmetry c1  #important for SAPT in psi4, default
}

set PROPERTIES_ORIGIN ["COM"]
properties('MP2/aug-cc-pvtz', properties = ['dipole'])
--------------------------------------------------------------------------

    Molecular point group: c1
  Charge       = 0
  Multiplicity = 1
  Basis Set: AUG-CC-PVTZ
    Blend: AUG-CC-PVTZ
  Basis Set: (AUG-CC-PVTZ AUX)
    Blend: AUG-CC-PVTZ-JKFIT

    Orbital Energies [Eh]
    ---------------------

    Doubly Occupied:

       1A    -92.071367     2A    -20.507445     3A    -11.266365
       4A    -11.265083     5A     -9.057824     6A     -6.739596
       7A     -6.739282     8A     -6.737990     9A     -1.327774
      10A     -1.067010    11A     -0.975642    12A     -0.819545
      13A     -0.644526    14A     -0.630345    15A     -0.622799
      16A     -0.583474    17A     -0.561859    18A     -0.539531
      19A     -0.511174    20A     -0.421203    21A     -0.368738

  @DF-RHF Final Energy:  -551.64701344574007

   => Energetics <=

    Nuclear Repulsion Energy =            183.1632363411369511
    One-Electron Energy =               -1122.7033556235837750
    Two-Electron Energy =                 387.8931058367066953
    Total Energy =                       -551.6470134457400718
  Basis Set: (AUG-CC-PVTZ AUX)
    Blend: AUG-CC-PVTZ-RI
    Molecular point group: c1

    Geometry (in Angstrom), charge = 0, multiplicity = 1:

       Center              X                  Y                   Z               Mass
    ------------   -----------------  -----------------  -----------------  -----------------
         C            1.328753750144    -0.923594982488     0.167269678770    12.000000000000
         O            0.002393850144     1.433281217512     0.409466778770    15.994914619570
         S            0.002383850144     0.162696217512    -0.409149221230    31.972071174400
         C           -1.339494149856    -0.880012782488     0.210252778770    12.000000000000
         H            1.308307850144    -1.864232782488    -0.263854221230     1.007825032230
         H            2.284034850144    -0.384475782488    -0.039691221230     1.007825032230
         H            1.260902850144    -0.967973782488     1.296620778770     1.007825032230
         H           -1.303562149856    -1.864216782488    -0.263857221230     1.007825032230
         H           -1.256145149856    -0.967964782488     1.296620778770     1.007825032230
         H           -2.279271149856    -0.384447782488    -0.039688221230     1.007825032230

  Basis Set: AUG-CC-PVTZ
    Blend: AUG-CC-PVTZ
  Basis Set: (AUG-CC-PVTZ AUX)
    Blend: AUG-CC-PVTZ-JKFIT
	 Reference Energy          =    -551.6470134457400718 [Eh]
	 Singles Energy            =      -0.0000000000000000 [Eh]
	 Same-Spin Energy          =      -0.2105093800074203 [Eh]
	 Opposite-Spin Energy      =      -0.6830913666389562 [Eh]
	 Correlation Energy        =      -0.8936007466463766 [Eh]
	 Total Energy              =    -552.5406141923864425 [Eh]

	 ================> DF-SCS-MP2 Energies <==================
	-----------------------------------------------------------
	 SCS Same-Spin Scale       =       0.3333333333333333 [-]
	 SCS Opposite-Spin Scale   =       1.2000000000000000 [-]
	 SCS Same-Spin Energy      =      -0.0701697933358068 [Eh]
	 SCS Opposite-Spin Energy  =      -0.8197096399667474 [Eh]
	 SCS Correlation Energy    =      -0.8898794333025541 [Eh]
	 SCS Total Energy          =    -552.5368928790426253 [Eh]
	-----------------------------------------------------------

  Dipole Moment: [D]
     X:     0.0032      Y:    -4.1419      Z:    -0.5003     Total:     4.1720

*** Psi4 exiting successfully. Buy a developer a beer!
