                               Psi4 1.4a3.dev225

  ==> Input File <==

--------------------------------------------------------------------------
#psi4
#
memory 32 gb

molecule  {
0 1
  C        1.3418020    -0.8103610     0.1807780
  O        0.0000010     1.5029090     0.3799830
  S       -0.0370939     0.2611036    -0.4557904
  C       -1.3418030    -0.8103600     0.1807780
  H        1.3064620    -1.7943290    -0.2939050
  H        2.2815750    -0.3144010    -0.0684470
  H        1.2580440    -0.8989840     1.2670770
  H       -1.3064650    -1.7943270    -0.2939050
  H       -1.2580450    -0.8989840     1.2670770
  H       -2.2815760    -0.3143980    -0.0684470
units angstrom
no_reorient  #important for SAPT in psi4, default
symmetry c1  #important for SAPT in psi4, default
}

set PROPERTIES_ORIGIN ["COM"]
properties('MP2/aug-cc-pvtz', properties = ['dipole'])
--------------------------------------------------------------------------

    Molecular point group: c1
  Charge       = 0
  Multiplicity = 1
  Basis Set: AUG-CC-PVTZ
    Blend: AUG-CC-PVTZ
  Basis Set: (AUG-CC-PVTZ AUX)
    Blend: AUG-CC-PVTZ-JKFIT

    Orbital Energies [Eh]
    ---------------------

    Doubly Occupied:

       1A    -92.073467     2A    -20.506103     3A    -11.264906
       4A    -11.264508     5A     -9.059395     6A     -6.741033
       7A     -6.740821     8A     -6.739478     9A     -1.335048
      10A     -1.058925    11A     -0.970702    12A     -0.819148
      13A     -0.638236    14A     -0.626286    15A     -0.618333
      16A     -0.583700    17A     -0.565396    18A     -0.540907
      19A     -0.516836    20A     -0.417049    21A     -0.370735

  @DF-RHF Final Energy:  -551.65105129572771

   => Energetics <=

    Nuclear Repulsion Energy =            182.7907598636025455
    One-Electron Energy =               -1121.9815997215755488
    Two-Electron Energy =                 387.5397885622454055
    Total Energy =                       -551.6510512957277115
  Basis Set: (AUG-CC-PVTZ AUX)
    Blend: AUG-CC-PVTZ-RI
    Molecular point group: c1

    Geometry (in Angstrom), charge = 0, multiplicity = 1:

       Center              X                  Y                   Z               Mass
    ------------   -----------------  -----------------  -----------------  -----------------
         C            1.357004025640    -0.898496254980     0.210676330772    12.000000000000
         O            0.015203025640     1.414773745020     0.409881330772    15.994914619570
         S           -0.021891874360     0.172968345020    -0.425892069228    31.972071174400
         C           -1.326600974360    -0.898495254980     0.210676330772    12.000000000000
         H            1.321664025640    -1.882464254980    -0.264006669228     1.007825032230
         H            2.296777025640    -0.402536254980    -0.038548669228     1.007825032230
         H            1.273246025640    -0.987119254980     1.296975330772     1.007825032230
         H           -1.291262974360    -1.882462254980    -0.264006669228     1.007825032230
         H           -1.242842974360    -0.987119254980     1.296975330772     1.007825032230
         H           -2.266373974360    -0.402533254980    -0.038548669228     1.007825032230

  Basis Set: AUG-CC-PVTZ
    Blend: AUG-CC-PVTZ
  Basis Set: (AUG-CC-PVTZ AUX)
    Blend: AUG-CC-PVTZ-JKFIT
	 Reference Energy          =    -551.6510512957277115 [Eh]
	 Singles Energy            =      -0.0000000000000000 [Eh]
	 Same-Spin Energy          =      -0.2100658938015247 [Eh]
	 Opposite-Spin Energy      =      -0.6827587342253615 [Eh]
	 Correlation Energy        =      -0.8928246280268862 [Eh]
	 Total Energy              =    -552.5438759237546265 [Eh]

	 ================> DF-SCS-MP2 Energies <==================
	-----------------------------------------------------------
	 SCS Same-Spin Scale       =       0.3333333333333333 [-]
	 SCS Opposite-Spin Scale   =       1.2000000000000000 [-]
	 SCS Same-Spin Energy      =      -0.0700219646005082 [Eh]
	 SCS Opposite-Spin Energy  =      -0.8193104810704338 [Eh]
	 SCS Correlation Energy    =      -0.8893324456709421 [Eh]
	 SCS Total Energy          =    -552.5403837413986139 [Eh]
	-----------------------------------------------------------

  Dipole Moment: [D]
     X:    -0.1225      Y:    -3.9916      Z:    -0.5361     Total:     4.0292

*** Psi4 exiting successfully. Buy a developer a beer!
