                               Psi4 1.4a3.dev225

  ==> Input File <==

--------------------------------------------------------------------------
#psi4
#
memory 32 gb

molecule  {
0 1
  C        1.3418020    -0.8103610     0.1807780
  O        0.0000010     1.5029090     0.3799830
  S        0.0000000     0.2490926    -0.4278339
  C       -1.3418030    -0.8103600     0.1807780
  H        1.3064620    -1.7943290    -0.2939050
  H        2.2815750    -0.3144010    -0.0684470
  H        1.2580440    -0.8989840     1.2670770
  H       -1.3064650    -1.7943270    -0.2939050
  H       -1.2580450    -0.8989840     1.2670770
  H       -2.2815760    -0.3143980    -0.0684470
units angstrom
no_reorient  #important for SAPT in psi4, default
symmetry c1  #important for SAPT in psi4, default
}

set PROPERTIES_ORIGIN ["COM"]
properties('MP2/aug-cc-pvtz', properties = ['dipole'])
--------------------------------------------------------------------------

    Molecular point group: c1
  Charge       = 0
  Multiplicity = 1
  Basis Set: AUG-CC-PVTZ
    Blend: AUG-CC-PVTZ
  Basis Set: (AUG-CC-PVTZ AUX)
    Blend: AUG-CC-PVTZ-JKFIT

    Orbital Energies [Eh]
    ---------------------

    Doubly Occupied:

       1A    -92.070871     2A    -20.506323     3A    -11.264331
       4A    -11.264319     5A     -9.057314     6A     -6.739018
       7A     -6.738858     8A     -6.737479     9A     -1.338601
      10A     -1.063085    11A     -0.974095    12A     -0.817396
      13A     -0.641038    14A     -0.627075    15A     -0.621805
      16A     -0.584607    17A     -0.566320    18A     -0.544066
      19A     -0.516954    20A     -0.420975    21A     -0.367630

  @DF-RHF Final Energy:  -551.65284551257309

   => Energetics <=

    Nuclear Repulsion Energy =            183.5945973492930250
    One-Electron Energy =               -1123.5705628973153125
    Two-Electron Energy =                 388.3231200354492216
    Total Energy =                       -551.6528455125730943
  Basis Set: (AUG-CC-PVTZ AUX)
    Blend: AUG-CC-PVTZ-RI
    Molecular point group: c1

    Geometry (in Angstrom), charge = 0, multiplicity = 1:

       Center              X                  Y                   Z               Mass
    ------------   -----------------  -----------------  -----------------  -----------------
         C            1.341802013385    -0.893573845387     0.199219054626    12.000000000000
         O            0.000001013385     1.419696154613     0.398424054626    15.994914619570
         S            0.000000013385     0.165879754613    -0.409392845374    31.972071174400
         C           -1.341802986615    -0.893572845387     0.199219054626    12.000000000000
         H            1.306462013385    -1.877541845387    -0.275463945374     1.007825032230
         H            2.281575013385    -0.397613845387    -0.050005945374     1.007825032230
         H            1.258044013385    -0.982196845387     1.285518054626     1.007825032230
         H           -1.306464986615    -1.877539845387    -0.275463945374     1.007825032230
         H           -1.258044986615    -0.982196845387     1.285518054626     1.007825032230
         H           -2.281575986615    -0.397610845387    -0.050005945374     1.007825032230

  Basis Set: AUG-CC-PVTZ
    Blend: AUG-CC-PVTZ
  Basis Set: (AUG-CC-PVTZ AUX)
    Blend: AUG-CC-PVTZ-JKFIT
	 Reference Energy          =    -551.6528455125730943 [Eh]
	 Singles Energy            =      -0.0000000000000000 [Eh]
	 Same-Spin Energy          =      -0.2100238915433981 [Eh]
	 Opposite-Spin Energy      =      -0.6820351870349443 [Eh]
	 Correlation Energy        =      -0.8920590785783424 [Eh]
	 Total Energy              =    -552.5449045911514077 [Eh]

	 ================> DF-SCS-MP2 Energies <==================
	-----------------------------------------------------------
	 SCS Same-Spin Scale       =       0.3333333333333333 [-]
	 SCS Opposite-Spin Scale   =       1.2000000000000000 [-]
	 SCS Same-Spin Energy      =      -0.0700079638477994 [Eh]
	 SCS Opposite-Spin Energy  =      -0.8184422244419330 [Eh]
	 SCS Correlation Energy    =      -0.8884501882897324 [Eh]
	 SCS Total Energy          =    -552.5412957008628609 [Eh]
	-----------------------------------------------------------

  Dipole Moment: [D]
     X:    -0.0000      Y:    -4.0356      Z:    -0.4716     Total:     4.0631

*** Psi4 exiting successfully. Buy a developer a beer!
