                               Psi4 1.3.2 release

  ==> Input File <==

--------------------------------------------------------------------------
#psi4
#
memory 32 gb

molecule  {
0 1
  C        1.2077439    -0.9252842     0.2490058
  O        0.0000100     1.5029040     0.3799780
  S        0.0000000     0.2323190    -0.4386380
  C       -1.3418780    -0.8103900     0.1807640
  H        1.3059240    -1.7946100    -0.2933430
  H        2.2816510    -0.3148530    -0.0691800
  H        1.2585190    -0.8983510     1.2671320
  H       -1.3059460    -1.7945940    -0.2933460
  H       -1.2585290    -0.8983420     1.2671320
  H       -2.2816550    -0.3148250    -0.0691770
units angstrom
no_reorient  #important for SAPT in psi4, default
symmetry c1  #important for SAPT in psi4, default
}

set PROPERTIES_ORIGIN ["COM"]
properties('MP2/aug-cc-pvtz', properties = ['dipole'])
--------------------------------------------------------------------------

    Molecular point group: c1
  Charge       = 0
  Multiplicity = 1
  Basis Set: AUG-CC-PVTZ
    Blend: AUG-CC-PVTZ
  Basis Set: (AUG-CC-PVTZ AUX)
    Blend: AUG-CC-PVTZ-JKFIT

    Orbital Energies [Eh]
    ---------------------

    Doubly Occupied:

       1A    -92.075370     2A    -20.510626     3A    -11.268592
       4A    -11.262832     5A     -9.061421     6A     -6.743157
       7A     -6.742683     8A     -6.741490     9A     -1.330616
      10A     -1.070999    11A     -0.971460    12A     -0.823751
      13A     -0.666069    14A     -0.626324    15A     -0.611473
      16A     -0.597851    17A     -0.566584    18A     -0.518842
      19A     -0.495562    20A     -0.418484    21A     -0.377887

  @DF-RHF Final Energy:  -551.61960963707065

   => Energetics <=

    Nuclear Repulsion Energy =            183.5937922799153625
    One-Electron Energy =               -1123.4626563007232107
    Two-Electron Energy =                 388.2492543837373091
    Total Energy =                       -551.6196096370706528
  Basis Set: (AUG-CC-PVTZ AUX)
    Blend: AUG-CC-PVTZ-RI
    Molecular point group: c1

    Geometry (in Angstrom), charge = 0, multiplicity = 1:

       Center              X                  Y                   Z               Mass
    ------------   -----------------  -----------------  -----------------  -----------------
         C            1.228374643882    -0.983937865379     0.261386112403    12.000000000000
         O            0.020640743882     1.444250334621     0.392358312403    15.994914619570
         S            0.020630743882     0.173665334621    -0.426257687597    31.972071174400
         C           -1.321247256118    -0.869043665379     0.193144312403    12.000000000000
         H            1.326554743882    -1.853263665379    -0.280962687597     1.007825032230
         H            2.302281743882    -0.373506665379    -0.056799687597     1.007825032230
         H            1.279149743882    -0.957004665379     1.279512312403     1.007825032230
         H           -1.285315256118    -1.853247665379    -0.280965687597     1.007825032230
         H           -1.237898256118    -0.956995665379     1.279512312403     1.007825032230
         H           -2.261024256118    -0.373478665379    -0.056796687597     1.007825032230

  Basis Set: AUG-CC-PVTZ
    Blend: AUG-CC-PVTZ
  Basis Set: (AUG-CC-PVTZ AUX)
    Blend: AUG-CC-PVTZ-JKFIT
	 Reference Energy          =    -551.6196096370706528 [Eh]
	 Singles Energy            =      -0.0000000000000000 [Eh]
	 Same-Spin Energy          =      -0.2115521823625196 [Eh]
	 Opposite-Spin Energy      =      -0.6857064823881966 [Eh]
	 Correlation Energy        =      -0.8972586647507163 [Eh]
	 Total Energy              =    -552.5168683018213187 [Eh]

	 ================> DF-SCS-MP2 Energies <==================
	-----------------------------------------------------------
	 SCS Same-Spin Scale       =       0.3333333333333333 [-]
	 SCS Opposite-Spin Scale   =       1.2000000000000000 [-]
	 SCS Same-Spin Energy      =      -0.0705173941208399 [Eh]
	 SCS Opposite-Spin Energy  =      -0.8228477788658359 [Eh]
	 SCS Correlation Energy    =      -0.8933651729866758 [Eh]
	 SCS Total Energy          =    -552.5129748100573579 [Eh]
	-----------------------------------------------------------

  Dipole Moment: [D]
     X:    -0.0607      Y:    -4.0556      Z:    -0.5264     Total:     4.0901

*** Psi4 exiting successfully. Buy a developer a beer!
