                               Psi4 1.3.2 release

  ==> Input File <==

--------------------------------------------------------------------------
#psi4
#
memory 32 gb

molecule  {
0 1
  C        1.3418690    -0.8104050     0.1807640
  O        0.0000100     1.5029040     0.3799780
  S        0.1483760     0.1170207    -0.3701482
  C       -1.3418780    -0.8103900     0.1807640
  H        1.3059240    -1.7946100    -0.2933430
  H        2.2816510    -0.3148530    -0.0691800
  H        1.2585190    -0.8983510     1.2671320
  H       -1.3059460    -1.7945940    -0.2933460
  H       -1.2585290    -0.8983420     1.2671320
  H       -2.2816550    -0.3148250    -0.0691770
units angstrom
no_reorient  #important for SAPT in psi4, default
symmetry c1  #important for SAPT in psi4, default
}

set PROPERTIES_ORIGIN ["COM"]
properties('MP2/aug-cc-pvtz', properties = ['dipole'])
--------------------------------------------------------------------------

    Molecular point group: c1
  Charge       = 0
  Multiplicity = 1
  Basis Set: AUG-CC-PVTZ
    Blend: AUG-CC-PVTZ
  Basis Set: (AUG-CC-PVTZ AUX)
    Blend: AUG-CC-PVTZ-JKFIT

    Orbital Energies [Eh]
    ---------------------

    Doubly Occupied:

       1A    -92.059138     2A    -20.500036     3A    -11.269951
       4A    -11.267126     5A     -9.050150     6A     -6.732565
       7A     -6.731474     8A     -6.730078     9A     -1.291733
      10A     -1.108982    11A     -0.987725    12A     -0.817646
      13A     -0.661419    14A     -0.654026    15A     -0.620694
      16A     -0.593885    17A     -0.567433    18A     -0.531837
      19A     -0.485294    20A     -0.417136    21A     -0.360284

  @DF-RHF Final Energy:  -551.61981440639670

   => Energetics <=

    Nuclear Repulsion Energy =            184.9625930884405705
    One-Electron Energy =               -1126.2875938814263463
    Two-Electron Energy =                 389.7051863865890482
    Total Energy =                       -551.6198144063966993
  Basis Set: (AUG-CC-PVTZ AUX)
    Blend: AUG-CC-PVTZ-RI
    Molecular point group: c1

    Geometry (in Angstrom), charge = 0, multiplicity = 1:

       Center              X                  Y                   Z               Mass
    ------------   -----------------  -----------------  -----------------  -----------------
         C            1.281060586221    -0.839477090951     0.175572334487    12.000000000000
         O           -0.060798413779     1.473831909049     0.374786334487    15.994914619570
         S            0.087567586221     0.087948609049    -0.375339865513    31.972071174400
         C           -1.402686413779    -0.839462090951     0.175572334487    12.000000000000
         H            1.245115586221    -1.823682090951    -0.298534665513     1.007825032230
         H            2.220842586221    -0.343925090951    -0.074371665513     1.007825032230
         H            1.197710586221    -0.927423090951     1.261940334487     1.007825032230
         H           -1.366754413779    -1.823666090951    -0.298537665513     1.007825032230
         H           -1.319337413779    -0.927414090951     1.261940334487     1.007825032230
         H           -2.342463413779    -0.343897090951    -0.074368665513     1.007825032230

  Basis Set: AUG-CC-PVTZ
    Blend: AUG-CC-PVTZ
  Basis Set: (AUG-CC-PVTZ AUX)
    Blend: AUG-CC-PVTZ-JKFIT
	 Reference Energy          =    -551.6198144063966993 [Eh]
	 Singles Energy            =      -0.0000000000000000 [Eh]
	 Same-Spin Energy          =      -0.2122411437976424 [Eh]
	 Opposite-Spin Energy      =      -0.6845571794651295 [Eh]
	 Correlation Energy        =      -0.8967983232627719 [Eh]
	 Total Energy              =    -552.5166127296595278 [Eh]

	 ================> DF-SCS-MP2 Energies <==================
	-----------------------------------------------------------
	 SCS Same-Spin Scale       =       0.3333333333333333 [-]
	 SCS Opposite-Spin Scale   =       1.2000000000000000 [-]
	 SCS Same-Spin Energy      =      -0.0707470479325474 [Eh]
	 SCS Opposite-Spin Energy  =      -0.8214686153581554 [Eh]
	 SCS Correlation Energy    =      -0.8922156632907029 [Eh]
	 SCS Total Energy          =    -552.5120300696873983 [Eh]
	-----------------------------------------------------------

  Dipole Moment: [D]
     X:     0.5148      Y:    -4.8519      Z:    -0.3829     Total:     4.8941

*** Psi4 exiting successfully. Buy a developer a beer!
