                               Psi4 1.3.2 release

  ==> Input File <==

--------------------------------------------------------------------------
#psi4
#
memory 32 gb

molecule  {
0 1
  C        1.3418690    -0.8104050     0.1807640
  O        0.0000100     1.5029040     0.3799780
  S       -0.0741880     0.2899682    -0.4728829
  C       -1.3418780    -0.8103900     0.1807640
  H        1.3059240    -1.7946100    -0.2933430
  H        2.2816510    -0.3148530    -0.0691800
  H        1.2585190    -0.8983510     1.2671320
  H       -1.3059460    -1.7945940    -0.2933460
  H       -1.2585290    -0.8983420     1.2671320
  H       -2.2816550    -0.3148250    -0.0691770
units angstrom
no_reorient  #important for SAPT in psi4, default
symmetry c1  #important for SAPT in psi4, default
}

set PROPERTIES_ORIGIN ["COM"]
properties('MP2/aug-cc-pvtz', properties = ['dipole'])
--------------------------------------------------------------------------

    Molecular point group: c1
  Charge       = 0
  Multiplicity = 1
  Basis Set: AUG-CC-PVTZ
    Blend: AUG-CC-PVTZ
  Basis Set: (AUG-CC-PVTZ AUX)
    Blend: AUG-CC-PVTZ-JKFIT

    Orbital Energies [Eh]
    ---------------------

    Doubly Occupied:

       1A    -92.075446     2A    -20.507496     3A    -11.264236
       4A    -11.263570     5A     -9.060944     6A     -6.742502
       7A     -6.742311     8A     -6.740955     9A     -1.342957
      10A     -1.053587    11A     -0.965049    12A     -0.819347
      13A     -0.635696    14A     -0.625830    15A     -0.614797
      16A     -0.581491    17A     -0.568822    18A     -0.537786
      19A     -0.521731    20A     -0.414019    21A     -0.371745

  @DF-RHF Final Energy:  -551.64715472759326

   => Energetics <=

    Nuclear Repulsion Energy =            182.3332692906953127
    One-Electron Energy =               -1121.0602141785698223
    Two-Electron Energy =                 387.0797901602812772
    Total Energy =                       -551.6471547275932608
  Basis Set: (AUG-CC-PVTZ AUX)
    Blend: AUG-CC-PVTZ-RI
    Molecular point group: c1

    Geometry (in Angstrom), charge = 0, multiplicity = 1:

       Center              X                  Y                   Z               Mass
    ------------   -----------------  -----------------  -----------------  -----------------
         C            1.372272905646    -0.910355321993     0.217675595897    12.000000000000
         O            0.030413905646     1.402953678007     0.416889595897    15.994914619570
         S           -0.043784094354     0.190017878007    -0.435971304103    31.972071174400
         C           -1.311474094354    -0.910340321993     0.217675595897    12.000000000000
         H            1.336327905646    -1.894560321993    -0.256431404103     1.007825032230
         H            2.312054905646    -0.414803321993    -0.032268404103     1.007825032230
         H            1.288922905646    -0.998301321993     1.304043595897     1.007825032230
         H           -1.275542094354    -1.894544321993    -0.256434404103     1.007825032230
         H           -1.228125094354    -0.998292321993     1.304043595897     1.007825032230
         H           -2.251251094354    -0.414775321993    -0.032265404103     1.007825032230

  Basis Set: AUG-CC-PVTZ
    Blend: AUG-CC-PVTZ
  Basis Set: (AUG-CC-PVTZ AUX)
    Blend: AUG-CC-PVTZ-JKFIT
	 Reference Energy          =    -551.6471547275932608 [Eh]
	 Singles Energy            =      -0.0000000000000000 [Eh]
	 Same-Spin Energy          =      -0.2099561158106157 [Eh]
	 Opposite-Spin Energy      =      -0.6831145487671054 [Eh]
	 Correlation Energy        =      -0.8930706645777211 [Eh]
	 Total Energy              =    -552.5402253921710098 [Eh]

	 ================> DF-SCS-MP2 Energies <==================
	-----------------------------------------------------------
	 SCS Same-Spin Scale       =       0.3333333333333333 [-]
	 SCS Opposite-Spin Scale   =       1.2000000000000000 [-]
	 SCS Same-Spin Energy      =      -0.0699853719368719 [Eh]
	 SCS Opposite-Spin Energy  =      -0.8197374585205265 [Eh]
	 SCS Correlation Energy    =      -0.8897228304573984 [Eh]
	 SCS Total Energy          =    -552.5368775580506053 [Eh]
	-----------------------------------------------------------

  Dipole Moment: [D]
     X:    -0.2433      Y:    -3.8233      Z:    -0.5729     Total:     3.8737

*** Psi4 exiting successfully. Buy a developer a beer!
