                               Psi4 1.3.2 release

  ==> Input File <==

--------------------------------------------------------------------------
#psi4
#
memory 32 gb

molecule  {
0 1
  C        1.3490066    -0.7881416     0.2019758
  O        0.0000100     1.5029040     0.3799780
  S        0.0000000     0.2323190    -0.4386380
  C       -1.3418780    -0.8103900     0.1807640
  H        1.3059240    -1.7946100    -0.2933430
  H        2.2816510    -0.3148530    -0.0691800
  H        1.2585190    -0.8983510     1.2671320
  H       -1.3059460    -1.7945940    -0.2933460
  H       -1.2585290    -0.8983420     1.2671320
  H       -2.2816550    -0.3148250    -0.0691770
units angstrom
no_reorient  #important for SAPT in psi4, default
symmetry c1  #important for SAPT in psi4, default
}

set PROPERTIES_ORIGIN ["COM"]
properties('MP2/aug-cc-pvtz', properties = ['dipole'])
--------------------------------------------------------------------------

    Molecular point group: c1
  Charge       = 0
  Multiplicity = 1
  Basis Set: AUG-CC-PVTZ
    Blend: AUG-CC-PVTZ
  Basis Set: (AUG-CC-PVTZ AUX)
    Blend: AUG-CC-PVTZ-JKFIT

    Orbital Energies [Eh]
    ---------------------

    Doubly Occupied:

       1A    -92.071462     2A    -20.503560     3A    -11.265794
       4A    -11.265466     5A     -9.057969     6A     -6.739676
       7A     -6.739455     8A     -6.738075     9A     -1.326261
      10A     -1.065030    11A     -0.976261    12A     -0.819173
      13A     -0.643708    14A     -0.627108    15A     -0.618826
      16A     -0.586698    17A     -0.559933    18A     -0.546148
      19A     -0.511141    20A     -0.418051    21A     -0.369467

  @DF-RHF Final Energy:  -551.65156745136198

   => Energetics <=

    Nuclear Repulsion Energy =            183.2632559525179374
    One-Electron Energy =               -1122.9311230311377585
    Two-Electron Energy =                 388.0162996272578084
    Total Energy =                       -551.6515674513619842
  Basis Set: (AUG-CC-PVTZ AUX)
    Blend: AUG-CC-PVTZ-RI
    Molecular point group: c1

    Geometry (in Angstrom), charge = 0, multiplicity = 1:

       Center              X                  Y                   Z               Mass
    ------------   -----------------  -----------------  -----------------  -----------------
         C            1.347908503021    -0.867890357931     0.221590204529    12.000000000000
         O           -0.001088096979     1.423155242069     0.399592404529    15.994914619570
         S           -0.001098096979     0.152570242069    -0.419023595471    31.972071174400
         C           -1.342976096979    -0.890138757931     0.200378404529    12.000000000000
         H            1.304825903021    -1.874358757931    -0.273728595471     1.007825032230
         H            2.280552903021    -0.394601757931    -0.049565595471     1.007825032230
         H            1.257420903021    -0.978099757931     1.286746404529     1.007825032230
         H           -1.307044096979    -1.874342757931    -0.273731595471     1.007825032230
         H           -1.259627096979    -0.978090757931     1.286746404529     1.007825032230
         H           -2.282753096979    -0.394573757931    -0.049562595471     1.007825032230

  Basis Set: AUG-CC-PVTZ
    Blend: AUG-CC-PVTZ
  Basis Set: (AUG-CC-PVTZ AUX)
    Blend: AUG-CC-PVTZ-JKFIT
	 Reference Energy          =    -551.6515674513619842 [Eh]
	 Singles Energy            =      -0.0000000000000000 [Eh]
	 Same-Spin Energy          =      -0.2102162122511510 [Eh]
	 Opposite-Spin Energy      =      -0.6825813560381445 [Eh]
	 Correlation Energy        =      -0.8927975682892955 [Eh]
	 Total Energy              =    -552.5443650196513090 [Eh]

	 ================> DF-SCS-MP2 Energies <==================
	-----------------------------------------------------------
	 SCS Same-Spin Scale       =       0.3333333333333333 [-]
	 SCS Opposite-Spin Scale   =       1.2000000000000000 [-]
	 SCS Same-Spin Energy      =      -0.0700720707503837 [Eh]
	 SCS Opposite-Spin Energy  =      -0.8190976272457734 [Eh]
	 SCS Correlation Energy    =      -0.8891696979961571 [Eh]
	 SCS Total Energy          =    -552.5407371493581650 [Eh]
	-----------------------------------------------------------

  Dipole Moment: [D]
     X:    -0.0043      Y:    -4.1635      Z:    -0.4990     Total:     4.1933

*** Psi4 exiting successfully. Buy a developer a beer!
