                               Psi4 1.4a3.dev225

  ==> Input File <==

--------------------------------------------------------------------------
#psi4
#
memory 32 gb

molecule  {
0 1
  C        1.3418020    -0.8103610     0.1807780
  O        0.0000010     1.5029090     0.3799830
  S        0.0370939     0.2034564    -0.4215416
  C       -1.3418030    -0.8103600     0.1807780
  H        1.3064620    -1.7943290    -0.2939050
  H        2.2815750    -0.3144010    -0.0684470
  H        1.2580440    -0.8989840     1.2670770
  H       -1.3064650    -1.7943270    -0.2939050
  H       -1.2580450    -0.8989840     1.2670770
  H       -2.2815760    -0.3143980    -0.0684470
units angstrom
no_reorient  #important for SAPT in psi4, default
symmetry c1  #important for SAPT in psi4, default
}

set PROPERTIES_ORIGIN ["COM"]
properties('MP2/aug-cc-pvtz', properties = ['dipole'])
--------------------------------------------------------------------------

    Molecular point group: c1
  Charge       = 0
  Multiplicity = 1
  Basis Set: AUG-CC-PVTZ
    Blend: AUG-CC-PVTZ
  Basis Set: (AUG-CC-PVTZ AUX)
    Blend: AUG-CC-PVTZ-JKFIT

    Orbital Energies [Eh]
    ---------------------

    Doubly Occupied:

       1A    -92.068861     2A    -20.503471     3A    -11.266631
       4A    -11.266092     5A     -9.056126     6A     -6.737970
       7A     -6.737632     8A     -6.736266     9A     -1.317872
      10A     -1.073947    11A     -0.980346    12A     -0.818734
      13A     -0.645005    14A     -0.632985    15A     -0.621668
      16A     -0.588456    17A     -0.557536    18A     -0.547177
      19A     -0.505600    20A     -0.420041    21A     -0.367345

  @DF-RHF Final Energy:  -551.65030569559781

   => Energetics <=

    Nuclear Repulsion Energy =            183.6563071421442430
    One-Electron Energy =               -1123.7137022944293676
    Two-Electron Energy =                 388.4070894566873449
    Total Energy =                       -551.6503056955978082
  Basis Set: (AUG-CC-PVTZ AUX)
    Blend: AUG-CC-PVTZ-RI
    Molecular point group: c1

    Geometry (in Angstrom), charge = 0, multiplicity = 1:

       Center              X                  Y                   Z               Mass
    ------------   -----------------  -----------------  -----------------  -----------------
         C            1.326600001130    -0.874870983955     0.196640311984    12.000000000000
         O           -0.015200998870     1.438399016045     0.395845311984    15.994914619570
         S            0.021891901130     0.138946416045    -0.405679288016    31.972071174400
         C           -1.357004998870    -0.874869983955     0.196640311984    12.000000000000
         H            1.291260001130    -1.858838983955    -0.278042688016     1.007825032230
         H            2.266373001130    -0.378910983955    -0.052584688016     1.007825032230
         H            1.242842001130    -0.963493983955     1.282939311984     1.007825032230
         H           -1.321666998870    -1.858836983955    -0.278042688016     1.007825032230
         H           -1.273246998870    -0.963493983955     1.282939311984     1.007825032230
         H           -2.296777998870    -0.378907983955    -0.052584688016     1.007825032230

  Basis Set: AUG-CC-PVTZ
    Blend: AUG-CC-PVTZ
  Basis Set: (AUG-CC-PVTZ AUX)
    Blend: AUG-CC-PVTZ-JKFIT
	 Reference Energy          =    -551.6503056955978082 [Eh]
	 Singles Energy            =      -0.0000000000000000 [Eh]
	 Same-Spin Energy          =      -0.2106053362076318 [Eh]
	 Opposite-Spin Energy      =      -0.6827636395164104 [Eh]
	 Correlation Energy        =      -0.8933689757240422 [Eh]
	 Total Energy              =    -552.5436746713218099 [Eh]

	 ================> DF-SCS-MP2 Energies <==================
	-----------------------------------------------------------
	 SCS Same-Spin Scale       =       0.3333333333333333 [-]
	 SCS Opposite-Spin Scale   =       1.2000000000000000 [-]
	 SCS Same-Spin Energy      =      -0.0702017787358773 [Eh]
	 SCS Opposite-Spin Energy  =      -0.8193163674196925 [Eh]
	 SCS Correlation Energy    =      -0.8895181461555698 [Eh]
	 SCS Total Energy          =    -552.5398238417533321 [Eh]
	-----------------------------------------------------------

  Dipole Moment: [D]
     X:     0.1244      Y:    -4.3316      Z:    -0.4661     Total:     4.3584

*** Psi4 exiting successfully. Buy a developer a beer!
