                               Psi4 1.4a3.dev225

  ==> Input File <==

--------------------------------------------------------------------------
#psi4
#
memory 32 gb

molecule  {
0 1
  C        1.3418020    -0.8103610     0.1807780
  O        0.0000010     1.5029090     0.3799830
  S        0.0000000     0.2743116    -0.4115856
  C       -1.3418030    -0.8103600     0.1807780
  H        1.3064620    -1.7943290    -0.2939050
  H        2.2815750    -0.3144010    -0.0684470
  H        1.2580440    -0.8989840     1.2670770
  H       -1.3064650    -1.7943270    -0.2939050
  H       -1.2580450    -0.8989840     1.2670770
  H       -2.2815760    -0.3143980    -0.0684470
units angstrom
no_reorient  #important for SAPT in psi4, default
symmetry c1  #important for SAPT in psi4, default
}

set PROPERTIES_ORIGIN ["COM"]
properties('MP2/aug-cc-pvtz', properties = ['dipole'])
--------------------------------------------------------------------------

    Molecular point group: c1
  Charge       = 0
  Multiplicity = 1
  Basis Set: AUG-CC-PVTZ
    Blend: AUG-CC-PVTZ
  Basis Set: (AUG-CC-PVTZ AUX)
    Blend: AUG-CC-PVTZ-JKFIT

    Orbital Energies [Eh]
    ---------------------

    Doubly Occupied:

       1A    -92.069910     2A    -20.508932     3A    -11.262389
       4A    -11.262377     5A     -9.056410     6A     -6.738086
       7A     -6.738051     8A     -6.736599     9A     -1.357574
      10A     -1.059062    11A     -0.971275    12A     -0.815001
      13A     -0.640927    14A     -0.625151    15A     -0.623617
      16A     -0.582273    17A     -0.573969    18A     -0.543850
      19A     -0.525482    20A     -0.423475    21A     -0.365020

  @DF-RHF Final Energy:  -551.65214582768658

   => Energetics <=

    Nuclear Repulsion Energy =            184.1638393253897164
    One-Electron Energy =               -1124.6731127031041524
    Two-Electron Energy =                 388.8571275500278261
    Total Energy =                       -551.6521458276865815
  Basis Set: (AUG-CC-PVTZ AUX)
    Blend: AUG-CC-PVTZ-RI
    Molecular point group: c1

    Geometry (in Angstrom), charge = 0, multiplicity = 1:

       Center              X                  Y                   Z               Mass
    ------------   -----------------  -----------------  -----------------  -----------------
         C            1.341802013385    -0.903909225249     0.192560093026    12.000000000000
         O            0.000001013385     1.409360774751     0.391765093026    15.994914619570
         S            0.000000013385     0.180763374751    -0.399803506974    31.972071174400
         C           -1.341802986615    -0.903908225249     0.192560093026    12.000000000000
         H            1.306462013385    -1.887877225249    -0.282122906974     1.007825032230
         H            2.281575013385    -0.407949225249    -0.056664906974     1.007825032230
         H            1.258044013385    -0.992532225249     1.278859093026     1.007825032230
         H           -1.306464986615    -1.887875225249    -0.282122906974     1.007825032230
         H           -1.258044986615    -0.992532225249     1.278859093026     1.007825032230
         H           -2.281575986615    -0.407946225249    -0.056664906974     1.007825032230

  Basis Set: AUG-CC-PVTZ
    Blend: AUG-CC-PVTZ
  Basis Set: (AUG-CC-PVTZ AUX)
    Blend: AUG-CC-PVTZ-JKFIT
	 Reference Energy          =    -551.6521458276865815 [Eh]
	 Singles Energy            =      -0.0000000000000000 [Eh]
	 Same-Spin Energy          =      -0.2095954034768120 [Eh]
	 Opposite-Spin Energy      =      -0.6810914188515204 [Eh]
	 Correlation Energy        =      -0.8906868223283324 [Eh]
	 Total Energy              =    -552.5428326500149296 [Eh]

	 ================> DF-SCS-MP2 Energies <==================
	-----------------------------------------------------------
	 SCS Same-Spin Scale       =       0.3333333333333333 [-]
	 SCS Opposite-Spin Scale   =       1.2000000000000000 [-]
	 SCS Same-Spin Energy      =      -0.0698651344922707 [Eh]
	 SCS Opposite-Spin Energy  =      -0.8173097026218245 [Eh]
	 SCS Correlation Energy    =      -0.8871748371140952 [Eh]
	 SCS Total Energy          =    -552.5393206648006981 [Eh]
	-----------------------------------------------------------

  Dipole Moment: [D]
     X:    -0.0000      Y:    -3.8423      Z:    -0.4274     Total:     3.8660

*** Psi4 exiting successfully. Buy a developer a beer!
