                               Psi4 1.3.2 release

  ==> Input File <==

--------------------------------------------------------------------------
#psi4
#
memory 32 gb

molecule  {
0 1
  C        1.2987248    -0.8500323     0.2043038
  O        0.0000100     1.5029040     0.3799780
  S        0.0000000     0.2323190    -0.4386380
  C       -1.3418780    -0.8103900     0.1807640
  H        1.3059240    -1.7946100    -0.2933430
  H        2.2816510    -0.3148530    -0.0691800
  H        1.2585190    -0.8983510     1.2671320
  H       -1.3059460    -1.7945940    -0.2933460
  H       -1.2585290    -0.8983420     1.2671320
  H       -2.2816550    -0.3148250    -0.0691770
units angstrom
no_reorient  #important for SAPT in psi4, default
symmetry c1  #important for SAPT in psi4, default
}

set PROPERTIES_ORIGIN ["COM"]
properties('MP2/aug-cc-pvtz', properties = ['dipole'])
--------------------------------------------------------------------------

    Molecular point group: c1
  Charge       = 0
  Multiplicity = 1
  Basis Set: AUG-CC-PVTZ
    Blend: AUG-CC-PVTZ
  Basis Set: (AUG-CC-PVTZ AUX)
    Blend: AUG-CC-PVTZ-JKFIT

    Orbital Energies [Eh]
    ---------------------

    Doubly Occupied:

       1A    -92.072213     2A    -20.506574     3A    -11.265501
       4A    -11.264380     5A     -9.058612     6A     -6.740347
       7A     -6.740013     8A     -6.738723     9A     -1.327802
      10A     -1.067004    11A     -0.973921    12A     -0.819964
      13A     -0.646638    14A     -0.624794    15A     -0.619011
      16A     -0.592703    17A     -0.563200    18A     -0.530078
      19A     -0.513922    20A     -0.419023    21A     -0.372062

  @DF-RHF Final Energy:  -551.64761839623316

   => Energetics <=

    Nuclear Repulsion Energy =            183.3423865431235242
    One-Electron Energy =               -1123.0670395476872727
    Two-Electron Energy =                 388.0770346083305640
    Total Energy =                       -551.6476183962331561
  Basis Set: (AUG-CC-PVTZ AUX)
    Blend: AUG-CC-PVTZ-RI
    Molecular point group: c1

    Geometry (in Angstrom), charge = 0, multiplicity = 1:

       Center              X                  Y                   Z               Mass
    ------------   -----------------  -----------------  -----------------  -----------------
         C            1.305360982703    -0.920261112673     0.223560114661    12.000000000000
         O            0.006646182703     1.432675187327     0.399234314661    15.994914619570
         S            0.006636182703     0.162090187327    -0.419381685339    31.972071174400
         C           -1.335241817297    -0.880618812673     0.200020314661    12.000000000000
         H            1.312560182703    -1.864838812673    -0.274086685339     1.007825032230
         H            2.288287182703    -0.385081812673    -0.049923685339     1.007825032230
         H            1.265155182703    -0.968579812673     1.286388314661     1.007825032230
         H           -1.299309817297    -1.864822812673    -0.274089685339     1.007825032230
         H           -1.251892817297    -0.968570812673     1.286388314661     1.007825032230
         H           -2.275018817297    -0.385053812673    -0.049920685339     1.007825032230

  Basis Set: AUG-CC-PVTZ
    Blend: AUG-CC-PVTZ
  Basis Set: (AUG-CC-PVTZ AUX)
    Blend: AUG-CC-PVTZ-JKFIT
	 Reference Energy          =    -551.6476183962331561 [Eh]
	 Singles Energy            =      -0.0000000000000000 [Eh]
	 Same-Spin Energy          =      -0.2105664111513854 [Eh]
	 Opposite-Spin Energy      =      -0.6832740469789318 [Eh]
	 Correlation Energy        =      -0.8938404581303172 [Eh]
	 Total Energy              =    -552.5414588543634409 [Eh]

	 ================> DF-SCS-MP2 Energies <==================
	-----------------------------------------------------------
	 SCS Same-Spin Scale       =       0.3333333333333333 [-]
	 SCS Opposite-Spin Scale   =       1.2000000000000000 [-]
	 SCS Same-Spin Energy      =      -0.0701888037171285 [Eh]
	 SCS Opposite-Spin Energy  =      -0.8199288563747181 [Eh]
	 SCS Correlation Energy    =      -0.8901176600918466 [Eh]
	 SCS Total Energy          =    -552.5377360563250022 [Eh]
	-----------------------------------------------------------

  Dipole Moment: [D]
     X:    -0.0097      Y:    -4.1277      Z:    -0.5089     Total:     4.1590

*** Psi4 exiting successfully. Buy a developer a beer!
