                               Psi4 1.3.2 release

  ==> Input File <==

--------------------------------------------------------------------------
#psi4
#
memory 32 gb

molecule  {
0 1
  C        1.3418690    -0.8104050     0.1807640
  O        0.0000100     1.5029040     0.3799780
  S        0.0000013     0.4004456    -0.3303169
  C       -1.3418780    -0.8103900     0.1807640
  H        1.3059240    -1.7946100    -0.2933430
  H        2.2816510    -0.3148530    -0.0691800
  H        1.2585190    -0.8983510     1.2671320
  H       -1.3059460    -1.7945940    -0.2933460
  H       -1.2585290    -0.8983420     1.2671320
  H       -2.2816550    -0.3148250    -0.0691770
units angstrom
no_reorient  #important for SAPT in psi4, default
symmetry c1  #important for SAPT in psi4, default
}

set PROPERTIES_ORIGIN ["COM"]
properties('MP2/aug-cc-pvtz', properties = ['dipole'])
--------------------------------------------------------------------------

    Molecular point group: c1
  Charge       = 0
  Multiplicity = 1
  Basis Set: AUG-CC-PVTZ
    Blend: AUG-CC-PVTZ
  Basis Set: (AUG-CC-PVTZ AUX)
    Blend: AUG-CC-PVTZ-JKFIT

    Orbital Energies [Eh]
    ---------------------

    Doubly Occupied:

       1A    -92.059632     2A    -20.525646     3A    -11.250734
       4A    -11.250722     5A     -9.050343     6A     -6.733686
       7A     -6.730846     8A     -6.729577     9A     -1.469424
      10A     -1.035794    11A     -0.955576    12A     -0.803148
      13A     -0.655887    14A     -0.647849    15A     -0.626741
      16A     -0.597464    17A     -0.569453    18A     -0.567487
      19A     -0.548677    20A     -0.424352    21A     -0.347996

  @DF-RHF Final Energy:  -551.60535210876628

   => Energetics <=

    Nuclear Repulsion Energy =            187.4799728538392003
    One-Electron Energy =               -1131.0085865014359570
    Two-Electron Energy =                 391.9232615388305589
    Total Energy =                       -551.6053521087662830
  Basis Set: (AUG-CC-PVTZ AUX)
    Blend: AUG-CC-PVTZ-RI
    Molecular point group: c1

    Geometry (in Angstrom), charge = 0, multiplicity = 1:

       Center              X                  Y                   Z               Mass
    ------------   -----------------  -----------------  -----------------  -----------------
         C            1.341868266399    -0.955631736409     0.159248466931    12.000000000000
         O            0.000009266399     1.357677263591     0.358462466931    15.994914619570
         S            0.000000566399     0.255218863591    -0.351832433069    31.972071174400
         C           -1.341878733601    -0.955616736409     0.159248466931    12.000000000000
         H            1.305923266399    -1.939836736409    -0.314858533069     1.007825032230
         H            2.281650266399    -0.460079736409    -0.090695533069     1.007825032230
         H            1.258518266399    -1.043577736409     1.245616466931     1.007825032230
         H           -1.305946733601    -1.939820736409    -0.314861533069     1.007825032230
         H           -1.258529733601    -1.043568736409     1.245616466931     1.007825032230
         H           -2.281655733601    -0.460051736409    -0.090692533069     1.007825032230

  Basis Set: AUG-CC-PVTZ
    Blend: AUG-CC-PVTZ
  Basis Set: (AUG-CC-PVTZ AUX)
    Blend: AUG-CC-PVTZ-JKFIT
	 Reference Energy          =    -551.6053521087662830 [Eh]
	 Singles Energy            =      -0.0000000000000000 [Eh]
	 Same-Spin Energy          =      -0.2069810737704603 [Eh]
	 Opposite-Spin Energy      =      -0.6761264005865784 [Eh]
	 Correlation Energy        =      -0.8831074743570386 [Eh]
	 Total Energy              =    -552.4884595831233582 [Eh]

	 ================> DF-SCS-MP2 Energies <==================
	-----------------------------------------------------------
	 SCS Same-Spin Scale       =       0.3333333333333333 [-]
	 SCS Opposite-Spin Scale   =       1.2000000000000000 [-]
	 SCS Same-Spin Energy      =      -0.0689936912568201 [Eh]
	 SCS Opposite-Spin Energy  =      -0.8113516807038940 [Eh]
	 SCS Correlation Energy    =      -0.8803453719607141 [Eh]
	 SCS Total Energy          =    -552.4856974807270262 [Eh]
	-----------------------------------------------------------

  Dipole Moment: [D]
     X:    -0.0000      Y:    -2.7661      Z:    -0.1744     Total:     2.7716

*** Psi4 exiting successfully. Buy a developer a beer!
