                               Psi4 1.4a3.dev225

  ==> Input File <==

--------------------------------------------------------------------------
#psi4
#
memory 32 gb

molecule  {
0 1
  C        1.3418020    -0.8103610     0.1807780
  O        0.0000010     1.5029090     0.3799830
  S        0.0148375     0.2207506    -0.4318162
  C       -1.3418030    -0.8103600     0.1807780
  H        1.3064620    -1.7943290    -0.2939050
  H        2.2815750    -0.3144010    -0.0684470
  H        1.2580440    -0.8989840     1.2670770
  H       -1.3064650    -1.7943270    -0.2939050
  H       -1.2580450    -0.8989840     1.2670770
  H       -2.2815760    -0.3143980    -0.0684470
units angstrom
no_reorient  #important for SAPT in psi4, default
symmetry c1  #important for SAPT in psi4, default
}

set PROPERTIES_ORIGIN ["COM"]
properties('MP2/aug-cc-pvtz', properties = ['dipole'])
--------------------------------------------------------------------------

    Molecular point group: c1
  Charge       = 0
  Multiplicity = 1
  Basis Set: AUG-CC-PVTZ
    Blend: AUG-CC-PVTZ
  Basis Set: (AUG-CC-PVTZ AUX)
    Blend: AUG-CC-PVTZ-JKFIT

    Orbital Energies [Eh]
    ---------------------

    Doubly Occupied:

       1A    -92.070357     2A    -20.504236     3A    -11.265968
       4A    -11.265769     5A     -9.057143     6A     -6.738914
       7A     -6.738636     8A     -6.737280     9A     -1.323167
      10A     -1.068742    11A     -0.977779    12A     -0.818870
      13A     -0.642688    14A     -0.629992    15A     -0.621374
      16A     -0.587061    17A     -0.559531    18A     -0.545777
      19A     -0.509173    20A     -0.419602    21A     -0.368502

  @DF-RHF Final Energy:  -551.65188019712321

   => Energetics <=

    Nuclear Repulsion Energy =            183.4004824901627728
    One-Electron Energy =               -1123.2036005285383453
    Two-Electron Energy =                 388.1512378412523958
    Total Energy =                       -551.6518801971232051
  Basis Set: (AUG-CC-PVTZ AUX)
    Blend: AUG-CC-PVTZ-RI
    Molecular point group: c1

    Geometry (in Angstrom), charge = 0, multiplicity = 1:

       Center              X                  Y                   Z               Mass
    ------------   -----------------  -----------------  -----------------  -----------------
         C            1.335721233072    -0.881958581656     0.200851101227    12.000000000000
         O           -0.006079766928     1.431311418344     0.400056101227    15.994914619570
         S            0.008756733072     0.149153018344    -0.411743098773    31.972071174400
         C           -1.347883766928    -0.881957581656     0.200851101227    12.000000000000
         H            1.300381233072    -1.865926581656    -0.273831898773     1.007825032230
         H            2.275494233072    -0.385998581656    -0.048373898773     1.007825032230
         H            1.251963233072    -0.970581581656     1.287150101227     1.007825032230
         H           -1.312545766928    -1.865924581656    -0.273831898773     1.007825032230
         H           -1.264125766928    -0.970581581656     1.287150101227     1.007825032230
         H           -2.287656766928    -0.385995581656    -0.048373898773     1.007825032230

  Basis Set: AUG-CC-PVTZ
    Blend: AUG-CC-PVTZ
  Basis Set: (AUG-CC-PVTZ AUX)
    Blend: AUG-CC-PVTZ-JKFIT
	 Reference Energy          =    -551.6518801971232051 [Eh]
	 Singles Energy            =      -0.0000000000000000 [Eh]
	 Same-Spin Energy          =      -0.2103975565364711 [Eh]
	 Opposite-Spin Energy      =      -0.6826615697839515 [Eh]
	 Correlation Energy        =      -0.8930591263204226 [Eh]
	 Total Energy              =    -552.5449393234436002 [Eh]

	 ================> DF-SCS-MP2 Energies <==================
	-----------------------------------------------------------
	 SCS Same-Spin Scale       =       0.3333333333333333 [-]
	 SCS Opposite-Spin Scale   =       1.2000000000000000 [-]
	 SCS Same-Spin Energy      =      -0.0701325188454904 [Eh]
	 SCS Opposite-Spin Energy  =      -0.8191938837407419 [Eh]
	 SCS Correlation Energy    =      -0.8893264025862322 [Eh]
	 SCS Total Energy          =    -552.5412065997094260 [Eh]
	-----------------------------------------------------------

  Dipole Moment: [D]
     X:     0.0495      Y:    -4.2290      Z:    -0.4863     Total:     4.2572

*** Psi4 exiting successfully. Buy a developer a beer!
