                               Psi4 1.4a2.dev612

  ==> Input File <==

--------------------------------------------------------------------------
#psi4
#
memory 32 gb

molecule  {
0 1
  N       -1.7314010     0.6447010     0.0841650
  N       -1.4345640    -1.5648400    -0.1846490
  N        1.1113180     1.0210360    -0.2929590
  N        1.3650780    -1.3052570     0.2771500
  C       -0.8211750    -0.3840720    -0.0264870
  C        0.6302560    -0.2085840    -0.0077820
  C       -2.9774260     0.0775420    -0.0074450
  C       -2.7669850    -1.2782450    -0.1740670
  C        2.4478010     1.1517920    -0.2896530
  C        2.6936640    -1.1417610     0.2510410
  C        3.2993530     0.0833730    -0.0301630
  H       -3.8759520     0.6750340     0.0629310
  H       -3.5136598    -2.0679732    -0.1895616
  H        2.8330150     2.1453150    -0.5142540
  H        3.2873230    -2.0271970     0.4738100
  H        4.3785670     0.1979470    -0.0409660
  C       -1.4969110     2.0704780     0.2948980
  H       -0.7998500     2.2172910     1.1191120
  H       -1.0792200     2.5269500    -0.6013110
  H       -2.4567070     2.5274350     0.5414280
units angstrom
no_reorient  #important for SAPT in psi4, default
symmetry c1  #important for SAPT in psi4, default
}

set PROPERTIES_ORIGIN ["COM"]
properties('MP2/aug-cc-pvtz', properties = ['dipole'])
--------------------------------------------------------------------------

    Molecular point group: c1
  Charge       = 0
  Multiplicity = 1
  Basis Set: AUG-CC-PVTZ
    Blend: AUG-CC-PVTZ
  Basis Set: (AUG-CC-PVTZ AUX)
    Blend: AUG-CC-PVTZ-JKFIT

    Orbital Energies [Eh]
    ---------------------

    Doubly Occupied:

       1A    -15.625840     2A    -15.580054     3A    -15.574972
       4A    -15.546542     5A    -11.333418     6A    -11.305861
       7A    -11.303008     8A    -11.295459     9A    -11.273430
      10A    -11.259995    11A    -11.251899    12A    -11.240688
      13A     -1.344848    14A     -1.308116    15A     -1.197969
      16A     -1.177866    17A     -1.088985    18A     -1.007890
      19A     -0.968556    20A     -0.899336    21A     -0.893863
      22A     -0.801984    23A     -0.784491    24A     -0.726803
      25A     -0.702756    26A     -0.685748    27A     -0.646162
      28A     -0.639852    29A     -0.607168    30A     -0.592863
      31A     -0.586961    32A     -0.579344    33A     -0.569960
      34A     -0.556125    35A     -0.542878    36A     -0.481175
      37A     -0.436194    38A     -0.424262    39A     -0.412449
      40A     -0.396652    41A     -0.377674    42A     -0.298654

  @DF-RHF Final Energy:  -525.55736473201978

   => Energetics <=

    Nuclear Repulsion Energy =            654.1001237819181142
    One-Electron Energy =               -2010.6574811065304402
    Two-Electron Energy =                 830.9999925925926618
    Total Energy =                       -525.5573647320197779
  Basis Set: (AUG-CC-PVTZ AUX)
    Blend: AUG-CC-PVTZ-RI
    Molecular point group: c1

    Geometry (in Angstrom), charge = 0, multiplicity = 1:

       Center              X                  Y                   Z               Mass
    ------------   -----------------  -----------------  -----------------  -----------------
         N           -1.738964691839     0.683277878873     0.088203775121    14.003074004430
         N           -1.442127691839    -1.526263121127    -0.180610224879    14.003074004430
         N            1.103754308161     1.059612878873    -0.288920224879    14.003074004430
         N            1.357514308161    -1.266680121127     0.281188775121    14.003074004430
         C           -0.828738691839    -0.345495121127    -0.022448224879    12.000000000000
         C            0.622692308161    -0.170007121127    -0.003743224879    12.000000000000
         C           -2.984989691839     0.116118878873    -0.003406224879    12.000000000000
         C           -2.774548691839    -1.239668121127    -0.170028224879    12.000000000000
         C            2.440237308161     1.190368878873    -0.285614224879    12.000000000000
         C            2.686100308161    -1.103184121127     0.255079775121    12.000000000000
         C            3.291789308161     0.121949878873    -0.026124224879    12.000000000000
         H           -3.883515691839     0.713610878873     0.066969775121     1.007825032230
         H           -3.521223491839    -2.029396321127    -0.185522824879     1.007825032230
         H            2.825451308161     2.183891878873    -0.510215224879     1.007825032230
         H            3.279759308161    -1.988620121127     0.477848775121     1.007825032230
         H            4.371003308161     0.236523878873    -0.036927224879     1.007825032230
         C           -1.504474691839     2.109054878873     0.298936775121    12.000000000000
         H           -0.807413691839     2.255867878873     1.123150775121     1.007825032230
         H           -1.086783691839     2.565526878873    -0.597272224879     1.007825032230
         H           -2.464270691839     2.566011878873     0.545466775121     1.007825032230

  Basis Set: AUG-CC-PVTZ
    Blend: AUG-CC-PVTZ
  Basis Set: (AUG-CC-PVTZ AUX)
    Blend: AUG-CC-PVTZ-JKFIT
	 Reference Energy          =    -525.5573647320197779 [Eh]
	 Singles Energy            =      -0.0000000000000000 [Eh]
	 Same-Spin Energy          =      -0.5779935054590702 [Eh]
	 Opposite-Spin Energy      =      -1.7383852488261931 [Eh]
	 Correlation Energy        =      -2.3163787542852634 [Eh]
	 Total Energy              =    -527.8737434863049884 [Eh]

	 ================> DF-SCS-MP2 Energies <==================
	-----------------------------------------------------------
	 SCS Same-Spin Scale       =       0.3333333333333333 [-]
	 SCS Opposite-Spin Scale   =       1.2000000000000000 [-]
	 SCS Same-Spin Energy      =      -0.1926645018196901 [Eh]
	 SCS Opposite-Spin Energy  =      -2.0860622985914317 [Eh]
	 SCS Correlation Energy    =      -2.2787268004111216 [Eh]
	 SCS Total Energy          =    -527.8360915324309417 [Eh]
	-----------------------------------------------------------

  Dipole Moment: [D]
     X:     1.4063      Y:     4.1060      Z:     0.5515     Total:     4.3751

*** Psi4 exiting successfully. Buy a developer a beer!
