                               Psi4 1.4a2.dev612

  ==> Input File <==

--------------------------------------------------------------------------
#psi4
#
memory 32 gb

molecule  {
0 1
  N       -1.7314010     0.6447010     0.0841650
  N       -1.4345640    -1.5648400    -0.1846490
  N        1.1113180     1.0210360    -0.2929590
  N        1.3650780    -1.3052570     0.2771500
  C       -0.8139198    -0.4308994    -0.2207923
  C        0.6302560    -0.2085840    -0.0077820
  C       -2.9774260     0.0775420    -0.0074450
  C       -2.7669850    -1.2782450    -0.1740670
  C        2.4478010     1.1517920    -0.2896530
  C        2.6936640    -1.1417610     0.2510410
  C        3.2993530     0.0833730    -0.0301630
  H       -3.8759520     0.6750340     0.0629310
  H       -3.5116600    -2.0553930    -0.2887470
  H        2.8330150     2.1453150    -0.5142540
  H        3.2873230    -2.0271970     0.4738100
  H        4.3785670     0.1979470    -0.0409660
  C       -1.4969110     2.0704780     0.2948980
  H       -0.7998500     2.2172910     1.1191120
  H       -1.0792200     2.5269500    -0.6013110
  H       -2.4567070     2.5274350     0.5414280
units angstrom
no_reorient  #important for SAPT in psi4, default
symmetry c1  #important for SAPT in psi4, default
}

set PROPERTIES_ORIGIN ["COM"]
properties('MP2/aug-cc-pvtz', properties = ['dipole'])
--------------------------------------------------------------------------

    Molecular point group: c1
  Charge       = 0
  Multiplicity = 1
  Basis Set: AUG-CC-PVTZ
    Blend: AUG-CC-PVTZ
  Basis Set: (AUG-CC-PVTZ AUX)
    Blend: AUG-CC-PVTZ-JKFIT

    Orbital Energies [Eh]
    ---------------------

    Doubly Occupied:

       1A    -15.618455     2A    -15.579542     3A    -15.574502
       4A    -15.549873     5A    -11.333163     6A    -11.305573
       7A    -11.302717     8A    -11.296766     9A    -11.269777
      10A    -11.265104    11A    -11.251610    12A    -11.239276
      13A     -1.338522    14A     -1.306316    15A     -1.198660
      16A     -1.183024    17A     -1.087204    18A     -1.008614
      19A     -0.960398    20A     -0.898865    21A     -0.890337
      22A     -0.798466    23A     -0.783748    24A     -0.723420
      25A     -0.701964    26A     -0.685387    27A     -0.640763
      28A     -0.638024    29A     -0.607884    30A     -0.593336
      31A     -0.587019    32A     -0.577133    33A     -0.566709
      34A     -0.556277    35A     -0.540109    36A     -0.480136
      37A     -0.438223    38A     -0.423854    39A     -0.412277
      40A     -0.398072    41A     -0.376743    42A     -0.299925

  @DF-RHF Final Energy:  -525.54317744439072

   => Energetics <=

    Nuclear Repulsion Energy =            653.4199807367059520
    One-Electron Energy =               -2009.3507810339792741
    Two-Electron Energy =                 830.3876228528827141
    Total Energy =                       -525.5431774443907216
  Basis Set: (AUG-CC-PVTZ AUX)
    Blend: AUG-CC-PVTZ-RI
    Molecular point group: c1

    Geometry (in Angstrom), charge = 0, multiplicity = 1:

       Center              X                  Y                   Z               Mass
    ------------   -----------------  -----------------  -----------------  -----------------
         N           -1.739521167905     0.686709086216     0.103394321456    14.003074004430
         N           -1.442684167905    -1.522831913784    -0.165419678544    14.003074004430
         N            1.103197832095     1.063044086216    -0.273729678544    14.003074004430
         N            1.356957832095    -1.263248913784     0.296379321456    14.003074004430
         C           -0.822039967905    -0.388891313784    -0.201562978544    12.000000000000
         C            0.622135832095    -0.166575913784     0.011447321456    12.000000000000
         C           -2.985546167905     0.119550086216     0.011784321456    12.000000000000
         C           -2.775105167905    -1.236236913784    -0.154837678544    12.000000000000
         C            2.439680832095     1.193800086216    -0.270423678544    12.000000000000
         C            2.685543832095    -1.099752913784     0.270270321456    12.000000000000
         C            3.291232832095     0.125381086216    -0.010933678544    12.000000000000
         H           -3.884072167905     0.717042086216     0.082160321456     1.007825032230
         H           -3.519780167905    -2.013384913784    -0.269517678544     1.007825032230
         H            2.824894832095     2.187323086216    -0.495024678544     1.007825032230
         H            3.279202832095    -1.985188913784     0.493039321456     1.007825032230
         H            4.370446832095     0.239955086216    -0.021736678544     1.007825032230
         C           -1.505031167905     2.112486086216     0.314127321456    12.000000000000
         H           -0.807970167905     2.259299086216     1.138341321456     1.007825032230
         H           -1.087340167905     2.568958086216    -0.582081678544     1.007825032230
         H           -2.464827167905     2.569443086216     0.560657321456     1.007825032230

  Basis Set: AUG-CC-PVTZ
    Blend: AUG-CC-PVTZ
  Basis Set: (AUG-CC-PVTZ AUX)
    Blend: AUG-CC-PVTZ-JKFIT
	 Reference Energy          =    -525.5431774443907216 [Eh]
	 Singles Energy            =      -0.0000000000000000 [Eh]
	 Same-Spin Energy          =      -0.5778993140288484 [Eh]
	 Opposite-Spin Energy      =      -1.7390505702797299 [Eh]
	 Correlation Energy        =      -2.3169498843085785 [Eh]
	 Total Energy              =    -527.8601273286992637 [Eh]

	 ================> DF-SCS-MP2 Energies <==================
	-----------------------------------------------------------
	 SCS Same-Spin Scale       =       0.3333333333333333 [-]
	 SCS Opposite-Spin Scale   =       1.2000000000000000 [-]
	 SCS Same-Spin Energy      =      -0.1926331046762828 [Eh]
	 SCS Opposite-Spin Energy  =      -2.0868606843356758 [Eh]
	 SCS Correlation Energy    =      -2.2794937890119584 [Eh]
	 SCS Total Energy          =    -527.8226712334027297 [Eh]
	-----------------------------------------------------------

  Dipole Moment: [D]
     X:     1.4266      Y:     3.9471      Z:     0.3979     Total:     4.2158

*** Psi4 exiting successfully. Buy a developer a beer!
