                               Psi4 1.4a2.dev612

  ==> Input File <==

--------------------------------------------------------------------------
#psi4
#
memory 32 gb

molecule  {
0 1
  N       -1.7314010     0.6447010     0.0841650
  N       -1.4345640    -1.5648400    -0.1846490
  N        1.1113180     1.0210360    -0.2929590
  N        1.3650780    -1.3052570     0.2771500
  C       -0.8211750    -0.3840720    -0.0264870
  C        0.6302560    -0.2085840    -0.0077820
  C       -2.9774260     0.0775420    -0.0074450
  C       -2.7669850    -1.2782450    -0.1740670
  C        2.4478010     1.1517920    -0.2896530
  C        2.6936640    -1.1417610     0.2510410
  C        3.2993530     0.0833730    -0.0301630
  H       -3.8730480     0.7067687    -0.1850296
  H       -3.5116600    -2.0553930    -0.2887470
  H        2.8330150     2.1453150    -0.5142540
  H        3.2873230    -2.0271970     0.4738100
  H        4.3785670     0.1979470    -0.0409660
  C       -1.4969110     2.0704780     0.2948980
  H       -0.7998500     2.2172910     1.1191120
  H       -1.0792200     2.5269500    -0.6013110
  H       -2.4567070     2.5274350     0.5414280
units angstrom
no_reorient  #important for SAPT in psi4, default
symmetry c1  #important for SAPT in psi4, default
}

set PROPERTIES_ORIGIN ["COM"]
properties('MP2/aug-cc-pvtz', properties = ['dipole'])
--------------------------------------------------------------------------

    Molecular point group: c1
  Charge       = 0
  Multiplicity = 1
  Basis Set: AUG-CC-PVTZ
    Blend: AUG-CC-PVTZ
  Basis Set: (AUG-CC-PVTZ AUX)
    Blend: AUG-CC-PVTZ-JKFIT

    Orbital Energies [Eh]
    ---------------------

    Doubly Occupied:

       1A    -15.625511     2A    -15.580575     3A    -15.575425
       4A    -15.546646     5A    -11.333673     6A    -11.306183
       7A    -11.303281     8A    -11.296148     9A    -11.272972
      10A    -11.261292    11A    -11.252398    12A    -11.241028
      13A     -1.344899    14A     -1.308430    15A     -1.198322
      16A     -1.177940    17A     -1.089308    18A     -1.007290
      19A     -0.968466    20A     -0.899692    21A     -0.893601
      22A     -0.801017    23A     -0.783556    24A     -0.726788
      25A     -0.703089    26A     -0.684584    27A     -0.646900
      28A     -0.636774    29A     -0.606399    30A     -0.593100
      31A     -0.586334    32A     -0.578330    33A     -0.569945
      34A     -0.556378    35A     -0.541904    36A     -0.481556
      37A     -0.436239    38A     -0.424511    39A     -0.412989
      40A     -0.396012    41A     -0.378018    42A     -0.299033

  @DF-RHF Final Energy:  -525.55446370524328

   => Energetics <=

    Nuclear Repulsion Energy =            654.0075035125602199
    One-Electron Energy =               -2010.4708651795865535
    Two-Electron Energy =                 830.9088979617829409
    Total Energy =                       -525.5544637052432790
  Basis Set: (AUG-CC-PVTZ AUX)
    Blend: AUG-CC-PVTZ-RI
    Molecular point group: c1

    Geometry (in Angstrom), charge = 0, multiplicity = 1:

       Center              X                  Y                   Z               Mass
    ------------   -----------------  -----------------  -----------------  -----------------
         N           -1.738995565964     0.682998874066     0.090389392209    14.003074004430
         N           -1.442158565964    -1.526542125934    -0.178424607791    14.003074004430
         N            1.103723434036     1.059333874066    -0.286734607791    14.003074004430
         N            1.357483434036    -1.266959125934     0.283374392209    14.003074004430
         C           -0.828769565964    -0.345774125934    -0.020262607791    12.000000000000
         C            0.622661434036    -0.170286125934    -0.001557607791    12.000000000000
         C           -2.985020565964     0.115839874066    -0.001220607791    12.000000000000
         C           -2.774579565964    -1.239947125934    -0.167842607791    12.000000000000
         C            2.440206434036     1.190089874066    -0.283428607791    12.000000000000
         C            2.686069434036    -1.103463125934     0.257265392209    12.000000000000
         C            3.291758434036     0.121670874066    -0.023938607791    12.000000000000
         H           -3.880642565964     0.745066574066    -0.178805207791     1.007825032230
         H           -3.519254565964    -2.017095125934    -0.282522607791     1.007825032230
         H            2.825420434036     2.183612874066    -0.508029607791     1.007825032230
         H            3.279728434036    -1.988899125934     0.480034392209     1.007825032230
         H            4.370972434036     0.236244874066    -0.034741607791     1.007825032230
         C           -1.504505565964     2.108775874066     0.301122392209    12.000000000000
         H           -0.807444565964     2.255588874066     1.125336392209     1.007825032230
         H           -1.086814565964     2.565247874066    -0.595086607791     1.007825032230
         H           -2.464301565964     2.565732874066     0.547652392209     1.007825032230

  Basis Set: AUG-CC-PVTZ
    Blend: AUG-CC-PVTZ
  Basis Set: (AUG-CC-PVTZ AUX)
    Blend: AUG-CC-PVTZ-JKFIT
	 Reference Energy          =    -525.5544637052432790 [Eh]
	 Singles Energy            =      -0.0000000000000000 [Eh]
	 Same-Spin Energy          =      -0.5781821576030217 [Eh]
	 Opposite-Spin Energy      =      -1.7388340537231874 [Eh]
	 Correlation Energy        =      -2.3170162113262092 [Eh]
	 Total Energy              =    -527.8714799165694558 [Eh]

	 ================> DF-SCS-MP2 Energies <==================
	-----------------------------------------------------------
	 SCS Same-Spin Scale       =       0.3333333333333333 [-]
	 SCS Opposite-Spin Scale   =       1.2000000000000000 [-]
	 SCS Same-Spin Energy      =      -0.1927273858676739 [Eh]
	 SCS Opposite-Spin Energy  =      -2.0866008644678247 [Eh]
	 SCS Correlation Energy    =      -2.2793282503354986 [Eh]
	 SCS Total Energy          =    -527.8337919555788176 [Eh]
	-----------------------------------------------------------

  Dipole Moment: [D]
     X:     1.4735      Y:     4.1030      Z:     0.2681     Total:     4.3678

*** Psi4 exiting successfully. Buy a developer a beer!
