                               Psi4 1.4a2.dev612

  ==> Input File <==

--------------------------------------------------------------------------
#psi4
#
memory 32 gb

molecule  {
0 1
  N       -1.7314010     0.6447010     0.0841650
  N       -1.4345640    -1.5648400    -0.1846490
  N        1.1113180     1.0210360    -0.2929590
  N        1.3650780    -1.3052570     0.2771500
  C       -0.8211750    -0.3840720    -0.0264870
  C        0.6302560    -0.2085840    -0.0077820
  C       -2.9774260     0.0775420    -0.0074450
  C       -2.7669850    -1.2782450    -0.1740670
  C        2.4478010     1.1517920    -0.2896530
  C        2.6936640    -1.1417610     0.2510410
  C        3.2993530     0.0833730    -0.0301630
  H       -3.8759520     0.6750340     0.0629310
  H       -3.5116600    -2.0553930    -0.2887470
  H        2.8330150     2.1453150    -0.5142540
  H        3.2873230    -2.0271970     0.4738100
  H        4.3753961     0.2549841     0.2024199
  C       -1.4969110     2.0704780     0.2948980
  H       -0.7998500     2.2172910     1.1191120
  H       -1.0792200     2.5269500    -0.6013110
  H       -2.4567070     2.5274350     0.5414280
units angstrom
no_reorient  #important for SAPT in psi4, default
symmetry c1  #important for SAPT in psi4, default
}

set PROPERTIES_ORIGIN ["COM"]
properties('MP2/aug-cc-pvtz', properties = ['dipole'])
--------------------------------------------------------------------------

    Molecular point group: c1
  Charge       = 0
  Multiplicity = 1
  Basis Set: AUG-CC-PVTZ
    Blend: AUG-CC-PVTZ
  Basis Set: (AUG-CC-PVTZ AUX)
    Blend: AUG-CC-PVTZ-JKFIT

    Orbital Energies [Eh]
    ---------------------

    Doubly Occupied:

       1A    -15.626093     2A    -15.580103     3A    -15.575096
       4A    -15.546944     5A    -11.333956     6A    -11.306165
       7A    -11.303405     8A    -11.295717     9A    -11.273647
      10A    -11.260303    11A    -11.254026    12A    -11.240636
      13A     -1.345126    14A     -1.308364    15A     -1.198206
      16A     -1.178167    17A     -1.088513    18A     -1.007798
      19A     -0.968702    20A     -0.899489    21A     -0.893185
      22A     -0.802644    23A     -0.784737    24A     -0.727004
      25A     -0.702854    26A     -0.682209    27A     -0.646592
      28A     -0.636416    29A     -0.606340    30A     -0.592807
      31A     -0.587085    32A     -0.579199    33A     -0.570543
      34A     -0.556466    35A     -0.543737    36A     -0.480446
      37A     -0.436477    38A     -0.424607    39A     -0.412571
      40A     -0.395742    41A     -0.378158    42A     -0.298833

  @DF-RHF Final Energy:  -525.55390315979287

   => Energetics <=

    Nuclear Repulsion Energy =            654.0126556020171620
    One-Electron Energy =               -2010.4749042857049517
    Two-Electron Energy =                 830.9083455238950364
    Total Energy =                       -525.5539031597928670
  Basis Set: (AUG-CC-PVTZ AUX)
    Blend: AUG-CC-PVTZ-RI
    Molecular point group: c1

    Geometry (in Angstrom), charge = 0, multiplicity = 1:

       Center              X                  Y                   Z               Mass
    ------------   -----------------  -----------------  -----------------  -----------------
         N           -1.738957318641     0.682839571185     0.087295894641    14.003074004430
         N           -1.442120318641    -1.526701428815    -0.181518105359    14.003074004430
         N            1.103761681359     1.059174571185    -0.289828105359    14.003074004430
         N            1.357521681359    -1.267118428815     0.280280894641    14.003074004430
         C           -0.828731318641    -0.345933428815    -0.023356105359    12.000000000000
         C            0.622699681359    -0.170445428815    -0.004651105359    12.000000000000
         C           -2.984982318641     0.115680571185    -0.004314105359    12.000000000000
         C           -2.774541318641    -1.240106428815    -0.170936105359    12.000000000000
         C            2.440244681359     1.189930571185    -0.286522105359    12.000000000000
         C            2.686107681359    -1.103622428815     0.254171894641    12.000000000000
         C            3.291796681359     0.121511571185    -0.027032105359    12.000000000000
         H           -3.883508318641     0.713172571185     0.066061894641     1.007825032230
         H           -3.519216318641    -2.017254428815    -0.285616105359     1.007825032230
         H            2.825458681359     2.183453571185    -0.511123105359     1.007825032230
         H            3.279766681359    -1.989058428815     0.476940894641     1.007825032230
         H            4.367839781359     0.293122671185     0.205550794641     1.007825032230
         C           -1.504467318641     2.108616571185     0.298028894641    12.000000000000
         H           -0.807406318641     2.255429571185     1.122242894641     1.007825032230
         H           -1.086776318641     2.565088571185    -0.598180105359     1.007825032230
         H           -2.464263318641     2.565573571185     0.544558894641     1.007825032230

  Basis Set: AUG-CC-PVTZ
    Blend: AUG-CC-PVTZ
  Basis Set: (AUG-CC-PVTZ AUX)
    Blend: AUG-CC-PVTZ-JKFIT
	 Reference Energy          =    -525.5539031597928670 [Eh]
	 Singles Energy            =      -0.0000000000000000 [Eh]
	 Same-Spin Energy          =      -0.5781002814033280 [Eh]
	 Opposite-Spin Energy      =      -1.7386658644525954 [Eh]
	 Correlation Energy        =      -2.3167661458559232 [Eh]
	 Total Energy              =    -527.8706693056487893 [Eh]

	 ================> DF-SCS-MP2 Energies <==================
	-----------------------------------------------------------
	 SCS Same-Spin Scale       =       0.3333333333333333 [-]
	 SCS Opposite-Spin Scale   =       1.2000000000000000 [-]
	 SCS Same-Spin Energy      =      -0.1927000938011093 [Eh]
	 SCS Opposite-Spin Energy  =      -2.0863990373431145 [Eh]
	 SCS Correlation Energy    =      -2.2790991311442239 [Eh]
	 SCS Total Energy          =    -527.8330022909370882 [Eh]
	-----------------------------------------------------------

  Dipole Moment: [D]
     X:     1.3279      Y:     4.1358      Z:     0.6324     Total:     4.3896

*** Psi4 exiting successfully. Buy a developer a beer!
