                               Psi4 1.4a2.dev612

  ==> Input File <==

--------------------------------------------------------------------------
#psi4
#
memory 32 gb

molecule  {
0 1
  N       -1.7314010     0.6447010     0.0841650
  N       -1.4345640    -1.5648400    -0.1846490
  N        1.1113180     1.0210360    -0.2929590
  N        1.3650780    -1.3052570     0.2771500
  C       -0.8211750    -0.3840720    -0.0264870
  C        0.6302560    -0.2085840    -0.0077820
  C       -2.9774260     0.0775420    -0.0074450
  C       -2.7669850    -1.2782450    -0.1740670
  C        2.4478010     1.1517920    -0.2896530
  C        2.6936640    -1.1417610     0.2510410
  C        3.2993530     0.0833730    -0.0301630
  H       -3.8759520     0.6750340     0.0629310
  H       -3.5116600    -2.0553930    -0.2887470
  H        2.8330150     2.1453150    -0.5142540
  H        3.2873230    -2.0271970     0.4738100
  H        4.3766644     0.2321693     0.1050656
  C       -1.4969110     2.0704780     0.2948980
  H       -0.7998500     2.2172910     1.1191120
  H       -1.0792200     2.5269500    -0.6013110
  H       -2.4567070     2.5274350     0.5414280
units angstrom
no_reorient  #important for SAPT in psi4, default
symmetry c1  #important for SAPT in psi4, default
}

set PROPERTIES_ORIGIN ["COM"]
properties('MP2/aug-cc-pvtz', properties = ['dipole'])
--------------------------------------------------------------------------

    Molecular point group: c1
  Charge       = 0
  Multiplicity = 1
  Basis Set: AUG-CC-PVTZ
    Blend: AUG-CC-PVTZ
  Basis Set: (AUG-CC-PVTZ AUX)
    Blend: AUG-CC-PVTZ-JKFIT

    Orbital Energies [Eh]
    ---------------------

    Doubly Occupied:

       1A    -15.625906     2A    -15.580011     3A    -15.574975
       4A    -15.546695     5A    -11.333593     6A    -11.305929
       7A    -11.303138     8A    -11.295532     9A    -11.273493
      10A    -11.260073    11A    -11.252637    12A    -11.240461
      13A     -1.344927    14A     -1.308169    15A     -1.198020
      16A     -1.177971    17A     -1.088775    18A     -1.007865
      19A     -0.968616    20A     -0.899364    21A     -0.893622
      22A     -0.802463    23A     -0.784558    24A     -0.726959
      25A     -0.702750    26A     -0.684399    27A     -0.646393
      28A     -0.638620    29A     -0.606826    30A     -0.592819
      31A     -0.587014    32A     -0.579327    33A     -0.570254
      34A     -0.556365    35A     -0.543503    36A     -0.480871
      37A     -0.436297    38A     -0.424382    39A     -0.412457
      40A     -0.396230    41A     -0.378021    42A     -0.298670

  @DF-RHF Final Energy:  -525.55657924242450

   => Energetics <=

    Nuclear Repulsion Energy =            654.0795811819187975
    One-Electron Energy =               -2010.6144221488348194
    Two-Electron Energy =                 830.9782617244914036
    Total Energy =                       -525.5565792424245046
  Basis Set: (AUG-CC-PVTZ AUX)
    Blend: AUG-CC-PVTZ-RI
    Molecular point group: c1

    Geometry (in Angstrom), charge = 0, multiplicity = 1:

       Center              X                  Y                   Z               Mass
    ------------   -----------------  -----------------  -----------------  -----------------
         N           -1.738965303806     0.682983212238     0.087908833352    14.003074004430
         N           -1.442128303806    -1.526557787762    -0.180905166648    14.003074004430
         N            1.103753696194     1.059318212238    -0.289215166648    14.003074004430
         N            1.357513696194    -1.266974787762     0.280893833352    14.003074004430
         C           -0.828739303806    -0.345789787762    -0.022743166648    12.000000000000
         C            0.622691696194    -0.170301787762    -0.004038166648    12.000000000000
         C           -2.984990303806     0.115824212238    -0.003701166648    12.000000000000
         C           -2.774549303806    -1.239962787762    -0.170323166648    12.000000000000
         C            2.440236696194     1.190074212238    -0.285909166648    12.000000000000
         C            2.686099696194    -1.103478787762     0.254784833352    12.000000000000
         C            3.291788696194     0.121655212238    -0.026419166648    12.000000000000
         H           -3.883516303806     0.713316212238     0.066674833352     1.007825032230
         H           -3.519224303806    -2.017110787762    -0.285003166648     1.007825032230
         H            2.825450696194     2.183597212238    -0.510510166648     1.007825032230
         H            3.279758696194    -1.988914787762     0.477553833352     1.007825032230
         H            4.369100096194     0.270451512238     0.108809433352     1.007825032230
         C           -1.504475303806     2.108760212238     0.298641833352    12.000000000000
         H           -0.807414303806     2.255573212238     1.122855833352     1.007825032230
         H           -1.086784303806     2.565232212238    -0.597567166648     1.007825032230
         H           -2.464271303806     2.565717212238     0.545171833352     1.007825032230

  Basis Set: AUG-CC-PVTZ
    Blend: AUG-CC-PVTZ
  Basis Set: (AUG-CC-PVTZ AUX)
    Blend: AUG-CC-PVTZ-JKFIT
	 Reference Energy          =    -525.5565792424245046 [Eh]
	 Singles Energy            =      -0.0000000000000000 [Eh]
	 Same-Spin Energy          =      -0.5780150173723414 [Eh]
	 Opposite-Spin Energy      =      -1.7384356331338151 [Eh]
	 Correlation Energy        =      -2.3164506505061566 [Eh]
	 Total Energy              =    -527.8730298929306173 [Eh]

	 ================> DF-SCS-MP2 Energies <==================
	-----------------------------------------------------------
	 SCS Same-Spin Scale       =       0.3333333333333333 [-]
	 SCS Opposite-Spin Scale   =       1.2000000000000000 [-]
	 SCS Same-Spin Energy      =      -0.1926716724574471 [Eh]
	 SCS Opposite-Spin Energy  =      -2.0861227597605780 [Eh]
	 SCS Correlation Energy    =      -2.2787944322180254 [Eh]
	 SCS Total Energy          =    -527.8353736746424829 [Eh]
	-----------------------------------------------------------

  Dipole Moment: [D]
     X:     1.3679      Y:     4.1263      Z:     0.5719     Total:     4.3846

*** Psi4 exiting successfully. Buy a developer a beer!
