                               Psi4 1.4a2.dev612

  ==> Input File <==

--------------------------------------------------------------------------
#psi4
#
memory 32 gb

molecule  {
0 1
  N       -1.7314010     0.6447010     0.0841650
  N       -1.4345640    -1.5648400    -0.1846490
  N        1.1113180     1.0210360    -0.2929590
  N        1.3650780    -1.3052570     0.2771500
  C       -0.8211750    -0.3840720    -0.0264870
  C        0.6302560    -0.2085840    -0.0077820
  C       -2.9774260     0.0775420    -0.0074450
  C       -2.7669850    -1.2782450    -0.1740670
  C        2.4478010     1.1517920    -0.2896530
  C        2.6936640    -1.1417610     0.2510410
  C        3.2993530     0.0833730    -0.0301630
  H       -3.8759520     0.6750340     0.0629310
  H       -3.5166595    -2.0868434    -0.0407835
  H        2.8330150     2.1453150    -0.5142540
  H        3.2873230    -2.0271970     0.4738100
  H        4.3785670     0.1979470    -0.0409660
  C       -1.4969110     2.0704780     0.2948980
  H       -0.7998500     2.2172910     1.1191120
  H       -1.0792200     2.5269500    -0.6013110
  H       -2.4567070     2.5274350     0.5414280
units angstrom
no_reorient  #important for SAPT in psi4, default
symmetry c1  #important for SAPT in psi4, default
}

set PROPERTIES_ORIGIN ["COM"]
properties('MP2/aug-cc-pvtz', properties = ['dipole'])
--------------------------------------------------------------------------

    Molecular point group: c1
  Charge       = 0
  Multiplicity = 1
  Basis Set: AUG-CC-PVTZ
    Blend: AUG-CC-PVTZ
  Basis Set: (AUG-CC-PVTZ AUX)
    Blend: AUG-CC-PVTZ-JKFIT

    Orbital Energies [Eh]
    ---------------------

    Doubly Occupied:

       1A    -15.626192     2A    -15.580282     3A    -15.575212
       4A    -15.546736     5A    -11.333601     6A    -11.306022
       7A    -11.303186     8A    -11.295753     9A    -11.273670
      10A    -11.260565    11A    -11.252128    12A    -11.242503
      13A     -1.345163    14A     -1.308343    15A     -1.198172
      16A     -1.178038    17A     -1.089165    18A     -1.007903
      19A     -0.968613    20A     -0.899478    21A     -0.893720
      22A     -0.800256    23A     -0.784693    24A     -0.726174
      25A     -0.702823    26A     -0.685415    27A     -0.646372
      28A     -0.640101    29A     -0.606419    30A     -0.592503
      31A     -0.587122    32A     -0.579443    33A     -0.570000
      34A     -0.555242    35A     -0.540108    36A     -0.481344
      37A     -0.436264    38A     -0.424440    39A     -0.412668
      40A     -0.396855    41A     -0.377166    42A     -0.298854

  @DF-RHF Final Energy:  -525.55392553406955

   => Energetics <=

    Nuclear Repulsion Energy =            654.0094808797598489
    One-Electron Energy =               -2010.4693951058866332
    Two-Electron Energy =                 830.9059886920572353
    Total Energy =                       -525.5539255340695490
  Basis Set: (AUG-CC-PVTZ AUX)
    Blend: AUG-CC-PVTZ-RI
    Molecular point group: c1

    Geometry (in Angstrom), charge = 0, multiplicity = 1:

       Center              X                  Y                   Z               Mass
    ------------   -----------------  -----------------  -----------------  -----------------
         N           -1.738945805850     0.683396684884     0.087267074258    14.003074004430
         N           -1.442108805850    -1.526144315116    -0.181546925742    14.003074004430
         N            1.103773194150     1.059731684884    -0.289856925742    14.003074004430
         N            1.357533194150    -1.266561315116     0.280252074258    14.003074004430
         C           -0.828719805850    -0.345376315116    -0.023384925742    12.000000000000
         C            0.622711194150    -0.169888315116    -0.004679925742    12.000000000000
         C           -2.984970805850     0.116237684884    -0.004342925742    12.000000000000
         C           -2.774529805850    -1.239549315116    -0.170964925742    12.000000000000
         C            2.440256194150     1.190487684884    -0.286550925742    12.000000000000
         C            2.686119194150    -1.103065315116     0.254143074258    12.000000000000
         C            3.291808194150     0.122068684884    -0.027060925742    12.000000000000
         H           -3.883496805850     0.713729684884     0.066033074258     1.007825032230
         H           -3.524204305850    -2.048147715116    -0.037681425742     1.007825032230
         H            2.825470194150     2.184010684884    -0.511151925742     1.007825032230
         H            3.279778194150    -1.988501315116     0.476912074258     1.007825032230
         H            4.371022194150     0.236642684884    -0.037863925742     1.007825032230
         C           -1.504455805850     2.109173684884     0.298000074258    12.000000000000
         H           -0.807394805850     2.255986684884     1.122214074258     1.007825032230
         H           -1.086764805850     2.565645684884    -0.598208925742     1.007825032230
         H           -2.464251805850     2.566130684884     0.544530074258     1.007825032230

  Basis Set: AUG-CC-PVTZ
    Blend: AUG-CC-PVTZ
  Basis Set: (AUG-CC-PVTZ AUX)
    Blend: AUG-CC-PVTZ-JKFIT
	 Reference Energy          =    -525.5539255340695490 [Eh]
	 Singles Energy            =      -0.0000000000000000 [Eh]
	 Same-Spin Energy          =      -0.5781506268648732 [Eh]
	 Opposite-Spin Energy      =      -1.7387781399776669 [Eh]
	 Correlation Energy        =      -2.3169287668425400 [Eh]
	 Total Energy              =    -527.8708543009121286 [Eh]

	 ================> DF-SCS-MP2 Energies <==================
	-----------------------------------------------------------
	 SCS Same-Spin Scale       =       0.3333333333333333 [-]
	 SCS Opposite-Spin Scale   =       1.2000000000000000 [-]
	 SCS Same-Spin Energy      =      -0.1927168756216244 [Eh]
	 SCS Opposite-Spin Energy  =      -2.0865337679732003 [Eh]
	 SCS Correlation Energy    =      -2.2792506435948248 [Eh]
	 SCS Total Energy          =    -527.8331761776644271 [Eh]
	-----------------------------------------------------------

  Dipole Moment: [D]
     X:     1.4601      Y:     4.1267      Z:     0.6604     Total:     4.4269

*** Psi4 exiting successfully. Buy a developer a beer!
