                               Psi4 1.4a2.dev612

  ==> Input File <==

--------------------------------------------------------------------------
#psi4
#
memory 32 gb

molecule  {
0 1
  N       -1.7314010     0.6447010     0.0841650
  N       -1.4345640    -1.5648400    -0.1846490
  N        1.1113180     1.0210360    -0.2929590
  N        1.3650780    -1.3052570     0.2771500
  C       -0.8211750    -0.3840720    -0.0264870
  C        0.6302560    -0.2085840    -0.0077820
  C       -2.9774260     0.0775420    -0.0074450
  C       -2.7669850    -1.2782450    -0.1740670
  C        2.4478010     1.1517920    -0.2896530
  C        2.6936640    -1.1417610     0.2510410
  C        3.2993530     0.0833730    -0.0301630
  H       -3.8759520     0.6750340     0.0629310
  H       -3.5116600    -2.0553930    -0.2887470
  H        2.8267047     2.2125144    -0.2219452
  H        3.2873230    -2.0271970     0.4738100
  H        4.3785670     0.1979470    -0.0409660
  C       -1.4969110     2.0704780     0.2948980
  H       -0.7998500     2.2172910     1.1191120
  H       -1.0792200     2.5269500    -0.6013110
  H       -2.4567070     2.5274350     0.5414280
units angstrom
no_reorient  #important for SAPT in psi4, default
symmetry c1  #important for SAPT in psi4, default
}

set PROPERTIES_ORIGIN ["COM"]
properties('MP2/aug-cc-pvtz', properties = ['dipole'])
--------------------------------------------------------------------------

    Molecular point group: c1
  Charge       = 0
  Multiplicity = 1
  Basis Set: AUG-CC-PVTZ
    Blend: AUG-CC-PVTZ
  Basis Set: (AUG-CC-PVTZ AUX)
    Blend: AUG-CC-PVTZ-JKFIT

    Orbital Energies [Eh]
    ---------------------

    Doubly Occupied:

       1A    -15.625971     2A    -15.580451     3A    -15.575349
       4A    -15.546734     5A    -11.333855     6A    -11.309804
       7A    -11.303340     8A    -11.295621     9A    -11.273517
      10A    -11.260076    11A    -11.252485    12A    -11.240499
      13A     -1.345010    14A     -1.308409    15A     -1.198095
      16A     -1.178025    17A     -1.088890    18A     -1.008089
      19A     -0.968725    20A     -0.896963    21A     -0.893919
      22A     -0.802194    23A     -0.782657    24A     -0.725963
      25A     -0.702643    26A     -0.685082    27A     -0.646442
      28A     -0.639141    29A     -0.607896    30A     -0.592588
      31A     -0.584415    32A     -0.577014    33A     -0.569710
      34A     -0.556655    35A     -0.542444    36A     -0.481516
      37A     -0.437280    38A     -0.423335    39A     -0.411933
      40A     -0.396133    41A     -0.377776    42A     -0.298854

  @DF-RHF Final Energy:  -525.55131285148593

   => Energetics <=

    Nuclear Repulsion Energy =            653.9804894011633678
    One-Electron Energy =               -2010.4126094766609185
    Two-Electron Energy =                 830.8808072240116189
    Total Energy =                       -525.5513128514859318
  Basis Set: (AUG-CC-PVTZ AUX)
    Blend: AUG-CC-PVTZ-RI
    Molecular point group: c1

    Geometry (in Angstrom), charge = 0, multiplicity = 1:

       Center              X                  Y                   Z               Mass
    ------------   -----------------  -----------------  -----------------  -----------------
         N           -1.738937553106     0.682775589758     0.086987878054    14.003074004430
         N           -1.442100553106    -1.526765410242    -0.181826121946    14.003074004430
         N            1.103781446894     1.059110589758    -0.290136121946    14.003074004430
         N            1.357541446894    -1.267182410242     0.279972878054    14.003074004430
         C           -0.828711553106    -0.345997410242    -0.023664121946    12.000000000000
         C            0.622719446894    -0.170509410242    -0.004959121946    12.000000000000
         C           -2.984962553106     0.115616589758    -0.004622121946    12.000000000000
         C           -2.774521553106    -1.240170410242    -0.171244121946    12.000000000000
         C            2.440264446894     1.189866589758    -0.286830121946    12.000000000000
         C            2.686127446894    -1.103686410242     0.253863878054    12.000000000000
         C            3.291816446894     0.121447589758    -0.027340121946    12.000000000000
         H           -3.883488553106     0.713108589758     0.065753878054     1.007825032230
         H           -3.519196553106    -2.017318410242    -0.285924121946     1.007825032230
         H            2.819168146894     2.250588989758    -0.219122321946     1.007825032230
         H            3.279786446894    -1.989122410242     0.476632878054     1.007825032230
         H            4.371030446894     0.236021589758    -0.038143121946     1.007825032230
         C           -1.504447553106     2.108552589758     0.297720878054    12.000000000000
         H           -0.807386553106     2.255365589758     1.121934878054     1.007825032230
         H           -1.086756553106     2.565024589758    -0.598488121946     1.007825032230
         H           -2.464243553106     2.565509589758     0.544250878054     1.007825032230

  Basis Set: AUG-CC-PVTZ
    Blend: AUG-CC-PVTZ
  Basis Set: (AUG-CC-PVTZ AUX)
    Blend: AUG-CC-PVTZ-JKFIT
	 Reference Energy          =    -525.5513128514859318 [Eh]
	 Singles Energy            =      -0.0000000000000000 [Eh]
	 Same-Spin Energy          =      -0.5783762074659886 [Eh]
	 Opposite-Spin Energy      =      -1.7392183147166695 [Eh]
	 Correlation Energy        =      -2.3175945221826582 [Eh]
	 Total Energy              =    -527.8689073736685486 [Eh]

	 ================> DF-SCS-MP2 Energies <==================
	-----------------------------------------------------------
	 SCS Same-Spin Scale       =       0.3333333333333333 [-]
	 SCS Opposite-Spin Scale   =       1.2000000000000000 [-]
	 SCS Same-Spin Energy      =      -0.1927920691553295 [Eh]
	 SCS Opposite-Spin Energy  =      -2.0870619776600035 [Eh]
	 SCS Correlation Energy    =      -2.2798540468153332 [Eh]
	 SCS Total Energy          =    -527.8311668983012623 [Eh]
	-----------------------------------------------------------

  Dipole Moment: [D]
     X:     1.3508      Y:     4.0824      Z:     0.6268     Total:     4.3456

*** Psi4 exiting successfully. Buy a developer a beer!
