                               Psi4 1.4a2.dev612

  ==> Input File <==

--------------------------------------------------------------------------
#psi4
#
memory 32 gb

molecule  {
0 1
  N       -1.7314010     0.6447010     0.0841650
  N       -1.4345640    -1.5648400    -0.1846490
  N        1.1113180     1.0210360    -0.2929590
  N        1.3650780    -1.3052570     0.2771500
  C       -0.8121060    -0.4426062    -0.2693687
  C        0.6302560    -0.2085840    -0.0077820
  C       -2.9774260     0.0775420    -0.0074450
  C       -2.7669850    -1.2782450    -0.1740670
  C        2.4478010     1.1517920    -0.2896530
  C        2.6936640    -1.1417610     0.2510410
  C        3.2993530     0.0833730    -0.0301630
  H       -3.8759520     0.6750340     0.0629310
  H       -3.5116600    -2.0553930    -0.2887470
  H        2.8330150     2.1453150    -0.5142540
  H        3.2873230    -2.0271970     0.4738100
  H        4.3785670     0.1979470    -0.0409660
  C       -1.4969110     2.0704780     0.2948980
  H       -0.7998500     2.2172910     1.1191120
  H       -1.0792200     2.5269500    -0.6013110
  H       -2.4567070     2.5274350     0.5414280
units angstrom
no_reorient  #important for SAPT in psi4, default
symmetry c1  #important for SAPT in psi4, default
}

set PROPERTIES_ORIGIN ["COM"]
properties('MP2/aug-cc-pvtz', properties = ['dipole'])
--------------------------------------------------------------------------

    Molecular point group: c1
  Charge       = 0
  Multiplicity = 1
  Basis Set: AUG-CC-PVTZ
    Blend: AUG-CC-PVTZ
  Basis Set: (AUG-CC-PVTZ AUX)
    Blend: AUG-CC-PVTZ-JKFIT

    Orbital Energies [Eh]
    ---------------------

    Doubly Occupied:

       1A    -15.616895     2A    -15.579039     3A    -15.574083
       4A    -15.551964     5A    -11.333208     6A    -11.305279
       7A    -11.302441     8A    -11.297510     9A    -11.268722
      10A    -11.267010    11A    -11.251240    12A    -11.239479
      13A     -1.336874    14A     -1.305608    15A     -1.198488
      16A     -1.183585    17A     -1.086252    18A     -1.008774
      19A     -0.958045    20A     -0.898429    21A     -0.888994
      22A     -0.796969    23A     -0.783064    24A     -0.722311
      25A     -0.701499    26A     -0.685133    27A     -0.640118
      28A     -0.636545    29A     -0.607927    30A     -0.593323
      31A     -0.586796    32A     -0.577411    33A     -0.564198
      34A     -0.556090    35A     -0.538388    36A     -0.479523
      37A     -0.438599    38A     -0.423561    39A     -0.411998
      40A     -0.397889    41A     -0.376050    42A     -0.300348

  @DF-RHF Final Energy:  -525.53449012515398

   => Energetics <=

    Nuclear Repulsion Energy =            653.0719857216063247
    One-Electron Energy =               -2008.6736359017090763
    Two-Electron Energy =                 830.0671600549487721
    Total Energy =                       -525.5344901251539795
  Basis Set: (AUG-CC-PVTZ AUX)
    Blend: AUG-CC-PVTZ-RI
    Molecular point group: c1

    Geometry (in Angstrom), charge = 0, multiplicity = 1:

       Center              X                  Y                   Z               Mass
    ------------   -----------------  -----------------  -----------------  -----------------
         N           -1.739657139256     0.687586685410     0.107035846851    14.003074004430
         N           -1.442820139256    -1.521954314590    -0.161778153149    14.003074004430
         N            1.103061860744     1.063921685410    -0.270088153149    14.003074004430
         N            1.356821860744    -1.262371314590     0.300020846851    14.003074004430
         C           -0.820362139256    -0.399720514590    -0.246497853149    12.000000000000
         C            0.621999860744    -0.165698314590     0.015088846851    12.000000000000
         C           -2.985682139256     0.120427685410     0.015425846851    12.000000000000
         C           -2.775241139256    -1.235359314590    -0.151196153149    12.000000000000
         C            2.439544860744     1.194677685410    -0.266782153149    12.000000000000
         C            2.685407860744    -1.098875314590     0.273911846851    12.000000000000
         C            3.291096860744     0.126258685410    -0.007292153149    12.000000000000
         H           -3.884208139256     0.717919685410     0.085801846851     1.007825032230
         H           -3.519916139256    -2.012507314590    -0.265876153149     1.007825032230
         H            2.824758860744     2.188200685410    -0.491383153149     1.007825032230
         H            3.279066860744    -1.984311314590     0.496680846851     1.007825032230
         H            4.370310860744     0.240832685410    -0.018095153149     1.007825032230
         C           -1.505167139256     2.113363685410     0.317768846851    12.000000000000
         H           -0.808106139256     2.260176685410     1.141982846851     1.007825032230
         H           -1.087476139256     2.569835685410    -0.578440153149     1.007825032230
         H           -2.464963139256     2.570320685410     0.564298846851     1.007825032230

  Basis Set: AUG-CC-PVTZ
    Blend: AUG-CC-PVTZ
  Basis Set: (AUG-CC-PVTZ AUX)
    Blend: AUG-CC-PVTZ-JKFIT
	 Reference Energy          =    -525.5344901251539795 [Eh]
	 Singles Energy            =      -0.0000000000000000 [Eh]
	 Same-Spin Energy          =      -0.5781618681980528 [Eh]
	 Opposite-Spin Energy      =      -1.7399149664007516 [Eh]
	 Correlation Energy        =      -2.3180768345988043 [Eh]
	 Total Energy              =    -527.8525669597528349 [Eh]

	 ================> DF-SCS-MP2 Energies <==================
	-----------------------------------------------------------
	 SCS Same-Spin Scale       =       0.3333333333333333 [-]
	 SCS Opposite-Spin Scale   =       1.2000000000000000 [-]
	 SCS Same-Spin Energy      =      -0.1927206227326843 [Eh]
	 SCS Opposite-Spin Energy  =      -2.0878979596809017 [Eh]
	 SCS Correlation Energy    =      -2.2806185824135858 [Eh]
	 SCS Total Energy          =    -527.8151087075675605 [Eh]
	-----------------------------------------------------------

  Dipole Moment: [D]
     X:     1.4013      Y:     3.8951      Z:     0.3759     Total:     4.1565

*** Psi4 exiting successfully. Buy a developer a beer!
