                               Psi4 1.4a2.dev612

  ==> Input File <==

--------------------------------------------------------------------------
#psi4
#
memory 32 gb

molecule  {
0 1
  N       -1.7314010     0.6447010     0.0841650
  N       -1.4345640    -1.5648400    -0.1846490
  N        1.1113180     1.0210360    -0.2929590
  N        1.3650780    -1.3052570     0.2771500
  C       -0.8211750    -0.3840720    -0.0264870
  C        0.6286838    -0.2450227     0.2899927
  C       -2.9774260     0.0775420    -0.0074450
  C       -2.7669850    -1.2782450    -0.1740670
  C        2.4478010     1.1517920    -0.2896530
  C        2.6936640    -1.1417610     0.2510410
  C        3.2993530     0.0833730    -0.0301630
  H       -3.8759520     0.6750340     0.0629310
  H       -3.5116600    -2.0553930    -0.2887470
  H        2.8330150     2.1453150    -0.5142540
  H        3.2873230    -2.0271970     0.4738100
  H        4.3785670     0.1979470    -0.0409660
  C       -1.4969110     2.0704780     0.2948980
  H       -0.7998500     2.2172910     1.1191120
  H       -1.0792200     2.5269500    -0.6013110
  H       -2.4567070     2.5274350     0.5414280
units angstrom
no_reorient  #important for SAPT in psi4, default
symmetry c1  #important for SAPT in psi4, default
}

set PROPERTIES_ORIGIN ["COM"]
properties('MP2/aug-cc-pvtz', properties = ['dipole'])
--------------------------------------------------------------------------

    Molecular point group: c1
  Charge       = 0
  Multiplicity = 1
  Basis Set: AUG-CC-PVTZ
    Blend: AUG-CC-PVTZ
  Basis Set: (AUG-CC-PVTZ AUX)
    Blend: AUG-CC-PVTZ-JKFIT

    Orbital Energies [Eh]
    ---------------------

    Doubly Occupied:

       1A    -15.623392     2A    -15.587563     3A    -15.578134
       4A    -15.543796     5A    -11.338450     6A    -11.304808
       7A    -11.303343     8A    -11.297629     9A    -11.271843
      10A    -11.257870    11A    -11.256284    12A    -11.238981
      13A     -1.342167    14A     -1.307434    15A     -1.192001
      16A     -1.175718    17A     -1.085604    18A     -1.005219
      19A     -0.966285    20A     -0.904005    21A     -0.881742
      22A     -0.800231    23A     -0.778275    24A     -0.725008
      25A     -0.700408    26A     -0.681281    27A     -0.647121
      28A     -0.637289    29A     -0.610665    30A     -0.593552
      31A     -0.585021    32A     -0.573714    33A     -0.566529
      34A     -0.554899    35A     -0.535380    36A     -0.482963
      37A     -0.439435    38A     -0.428393    39A     -0.403243
      40A     -0.387295    41A     -0.376697    42A     -0.296725

  @DF-RHF Final Energy:  -525.51275481139885

   => Energetics <=

    Nuclear Repulsion Energy =            652.7978770584597896
    One-Electron Energy =               -2008.0884817919964007
    Two-Electron Energy =                 829.7778499221377615
    Total Energy =                       -525.5127548113988496
  Basis Set: (AUG-CC-PVTZ AUX)
    Blend: AUG-CC-PVTZ-RI
    Molecular point group: c1

    Geometry (in Angstrom), charge = 0, multiplicity = 1:

       Center              X                  Y                   Z               Mass
    ------------   -----------------  -----------------  -----------------  -----------------
         N           -1.738859422669     0.685930298268     0.066505589135    14.003074004430
         N           -1.442022422669    -1.523610701732    -0.202308410865    14.003074004430
         N            1.103859577331     1.062265298268    -0.310618410865    14.003074004430
         N            1.357619577331    -1.264027701732     0.259490589135    14.003074004430
         C           -0.828633422669    -0.342842701732    -0.044146410865    12.000000000000
         C            0.621225377331    -0.203793401732     0.272333289135    12.000000000000
         C           -2.984884422669     0.118771298268    -0.025104410865    12.000000000000
         C           -2.774443422669    -1.237015701732    -0.191726410865    12.000000000000
         C            2.440342577331     1.193021298268    -0.307312410865    12.000000000000
         C            2.686205577331    -1.100531701732     0.233381589135    12.000000000000
         C            3.291894577331     0.124602298268    -0.047822410865    12.000000000000
         H           -3.883410422669     0.716263298268     0.045271589135     1.007825032230
         H           -3.519118422669    -2.014163701732    -0.306406410865     1.007825032230
         H            2.825556577331     2.186544298268    -0.531913410865     1.007825032230
         H            3.279864577331    -1.985967701732     0.456150589135     1.007825032230
         H            4.371108577331     0.239176298268    -0.058625410865     1.007825032230
         C           -1.504369422669     2.111707298268     0.277238589135    12.000000000000
         H           -0.807308422669     2.258520298268     1.101452589135     1.007825032230
         H           -1.086678422669     2.568179298268    -0.618970410865     1.007825032230
         H           -2.464165422669     2.568664298268     0.523768589135     1.007825032230

  Basis Set: AUG-CC-PVTZ
    Blend: AUG-CC-PVTZ
  Basis Set: (AUG-CC-PVTZ AUX)
    Blend: AUG-CC-PVTZ-JKFIT
	 Reference Energy          =    -525.5127548113988496 [Eh]
	 Singles Energy            =      -0.0000000000000000 [Eh]
	 Same-Spin Energy          =      -0.5800134668371104 [Eh]
	 Opposite-Spin Energy      =      -1.7445737575913625 [Eh]
	 Correlation Energy        =      -2.3245872244284729 [Eh]
	 Total Energy              =    -527.8373420358273052 [Eh]

	 ================> DF-SCS-MP2 Energies <==================
	-----------------------------------------------------------
	 SCS Same-Spin Scale       =       0.3333333333333333 [-]
	 SCS Opposite-Spin Scale   =       1.2000000000000000 [-]
	 SCS Same-Spin Energy      =      -0.1933378222790368 [Eh]
	 SCS Opposite-Spin Energy  =      -2.0934885091096347 [Eh]
	 SCS Correlation Energy    =      -2.2868263313886716 [Eh]
	 SCS Total Energy          =    -527.7995811427874742 [Eh]
	-----------------------------------------------------------

  Dipole Moment: [D]
     X:     1.5924      Y:     4.0296      Z:     0.7037     Total:     4.3896

*** Psi4 exiting successfully. Buy a developer a beer!
