                               Psi4 1.4a2.dev612

  ==> Input File <==

--------------------------------------------------------------------------
#psi4
#
memory 32 gb

molecule  {
0 1
  N       -1.7314010     0.6447010     0.0841650
  N       -1.4345640    -1.5648400    -0.1846490
  N        1.1113180     1.0210360    -0.2929590
  N        1.3650780    -1.3052570     0.2771500
  C       -0.8157336    -0.4191925    -0.1722160
  C        0.6302560    -0.2085840    -0.0077820
  C       -2.9774260     0.0775420    -0.0074450
  C       -2.7669850    -1.2782450    -0.1740670
  C        2.4478010     1.1517920    -0.2896530
  C        2.6936640    -1.1417610     0.2510410
  C        3.2993530     0.0833730    -0.0301630
  H       -3.8759520     0.6750340     0.0629310
  H       -3.5116600    -2.0553930    -0.2887470
  H        2.8330150     2.1453150    -0.5142540
  H        3.2873230    -2.0271970     0.4738100
  H        4.3785670     0.1979470    -0.0409660
  C       -1.4969110     2.0704780     0.2948980
  H       -0.7998500     2.2172910     1.1191120
  H       -1.0792200     2.5269500    -0.6013110
  H       -2.4567070     2.5274350     0.5414280
units angstrom
no_reorient  #important for SAPT in psi4, default
symmetry c1  #important for SAPT in psi4, default
}

set PROPERTIES_ORIGIN ["COM"]
properties('MP2/aug-cc-pvtz', properties = ['dipole'])
--------------------------------------------------------------------------

    Molecular point group: c1
  Charge       = 0
  Multiplicity = 1
  Basis Set: AUG-CC-PVTZ
    Blend: AUG-CC-PVTZ
  Basis Set: (AUG-CC-PVTZ AUX)
    Blend: AUG-CC-PVTZ-JKFIT

    Orbital Energies [Eh]
    ---------------------

    Doubly Occupied:

       1A    -15.620131     2A    -15.579892     3A    -15.574796
       4A    -15.548287     5A    -11.333146     6A    -11.305775
       7A    -11.302907     8A    -11.296172     9A    -11.270782
      10A    -11.263431    11A    -11.251855    12A    -11.239282
      13A     -1.340138    14A     -1.306924    15A     -1.198677
      16A     -1.182180    17A     -1.087960    18A     -1.008457
      19A     -0.962643    20A     -0.899169    21A     -0.891529
      22A     -0.799812    23A     -0.784207    24A     -0.724455
      25A     -0.702320    26A     -0.685590    27A     -0.641745
      28A     -0.639052    29A     -0.607800    30A     -0.593286
      31A     -0.587184    32A     -0.576671    33A     -0.569086
      34A     -0.556431    35A     -0.541419    36A     -0.480604
      37A     -0.437755    38A     -0.424065    39A     -0.412449
      40A     -0.398036    41A     -0.377278    42A     -0.299555

  @DF-RHF Final Energy:  -525.54999008390928

   => Energetics <=

    Nuclear Repulsion Energy =            653.6995009208952752
    One-Electron Energy =               -2009.8931164423254359
    Two-Electron Energy =                 830.6436254375209955
    Total Energy =                       -525.5499900839092788
  Basis Set: (AUG-CC-PVTZ AUX)
    Blend: AUG-CC-PVTZ-RI
    Molecular point group: c1

    Geometry (in Angstrom), charge = 0, multiplicity = 1:

       Center              X                  Y                   Z               Mass
    ------------   -----------------  -----------------  -----------------  -----------------
         N           -1.739385196553     0.685831479525     0.099752803557    14.003074004430
         N           -1.442548196553    -1.523709520475    -0.169061196443    14.003074004430
         N            1.103333803447     1.062166479525    -0.277371196443    14.003074004430
         N            1.357093803447    -1.264126520475     0.292737803557    14.003074004430
         C           -0.823717796553    -0.378062020475    -0.156628196443    12.000000000000
         C            0.622271803447    -0.167453520475     0.007805803557    12.000000000000
         C           -2.985410196553     0.118672479525     0.008142803557    12.000000000000
         C           -2.774969196553    -1.237114520475    -0.158479196443    12.000000000000
         C            2.439816803447     1.192922479525    -0.274065196443    12.000000000000
         C            2.685679803447    -1.100630520475     0.266628803557    12.000000000000
         C            3.291368803447     0.124503479525    -0.014575196443    12.000000000000
         H           -3.883936196553     0.716164479525     0.078518803557     1.007825032230
         H           -3.519644196553    -2.014262520475    -0.273159196443     1.007825032230
         H            2.825030803447     2.186445479525    -0.498666196443     1.007825032230
         H            3.279338803447    -1.986066520475     0.489397803557     1.007825032230
         H            4.370582803447     0.239077479525    -0.025378196443     1.007825032230
         C           -1.504895196553     2.111608479525     0.310485803557    12.000000000000
         H           -0.807834196553     2.258421479525     1.134699803557     1.007825032230
         H           -1.087204196553     2.568080479525    -0.585723196443     1.007825032230
         H           -2.464691196553     2.568565479525     0.557015803557     1.007825032230

  Basis Set: AUG-CC-PVTZ
    Blend: AUG-CC-PVTZ
  Basis Set: (AUG-CC-PVTZ AUX)
    Blend: AUG-CC-PVTZ-JKFIT
	 Reference Energy          =    -525.5499900839092788 [Eh]
	 Singles Energy            =      -0.0000000000000000 [Eh]
	 Same-Spin Energy          =      -0.5777477614803165 [Eh]
	 Opposite-Spin Energy      =      -1.7384649563595391 [Eh]
	 Correlation Energy        =      -2.3162127178398557 [Eh]
	 Total Energy              =    -527.8662028017491821 [Eh]

	 ================> DF-SCS-MP2 Energies <==================
	-----------------------------------------------------------
	 SCS Same-Spin Scale       =       0.3333333333333333 [-]
	 SCS Opposite-Spin Scale   =       1.2000000000000000 [-]
	 SCS Same-Spin Energy      =      -0.1925825871601055 [Eh]
	 SCS Opposite-Spin Energy  =      -2.0861579476314467 [Eh]
	 SCS Correlation Energy    =      -2.2787405347915524 [Eh]
	 SCS Total Energy          =    -527.8287306187007744 [Eh]
	-----------------------------------------------------------

  Dipole Moment: [D]
     X:     1.4384      Y:     3.9950      Z:     0.4203     Total:     4.2668

*** Psi4 exiting successfully. Buy a developer a beer!
