                               Psi4 1.4a2.dev612

  ==> Input File <==

--------------------------------------------------------------------------
#psi4
#
memory 32 gb

molecule  {
0 1
  N       -1.7314010     0.6447010     0.0841650
  N       -1.4345640    -1.5648400    -0.1846490
  N        1.1113180     1.0210360    -0.2929590
  N        1.3650780    -1.3052570     0.2771500
  C       -0.8211750    -0.3840720    -0.0264870
  C        0.6302560    -0.2085840    -0.0077820
  C       -2.9774260     0.0775420    -0.0074450
  C       -2.7669850    -1.2782450    -0.1740670
  C        2.4478010     1.1517920    -0.2896530
  C        2.6936640    -1.1417610     0.2510410
  C        3.2993530     0.0833730    -0.0301630
  H       -3.8747904     0.6877279    -0.0362533
  H       -3.5116600    -2.0553930    -0.2887470
  H        2.8330150     2.1453150    -0.5142540
  H        3.2873230    -2.0271970     0.4738100
  H        4.3785670     0.1979470    -0.0409660
  C       -1.4969110     2.0704780     0.2948980
  H       -0.7998500     2.2172910     1.1191120
  H       -1.0792200     2.5269500    -0.6013110
  H       -2.4567070     2.5274350     0.5414280
units angstrom
no_reorient  #important for SAPT in psi4, default
symmetry c1  #important for SAPT in psi4, default
}

set PROPERTIES_ORIGIN ["COM"]
properties('MP2/aug-cc-pvtz', properties = ['dipole'])
--------------------------------------------------------------------------

    Molecular point group: c1
  Charge       = 0
  Multiplicity = 1
  Basis Set: AUG-CC-PVTZ
    Blend: AUG-CC-PVTZ
  Basis Set: (AUG-CC-PVTZ AUX)
    Blend: AUG-CC-PVTZ-JKFIT

    Orbital Energies [Eh]
    ---------------------

    Doubly Occupied:

       1A    -15.625706     2A    -15.580132     3A    -15.575005
       4A    -15.546496     5A    -11.333418     6A    -11.305900
       7A    -11.303014     8A    -11.295499     9A    -11.273287
      10A    -11.260079    11A    -11.251962    12A    -11.240423
      13A     -1.344788    14A     -1.308132    15A     -1.197996
      16A     -1.177832    17A     -1.089010    18A     -1.007781
      19A     -0.968516    20A     -0.899377    21A     -0.893838
      22A     -0.802087    23A     -0.784311    24A     -0.726898
      25A     -0.702815    26A     -0.685600    27A     -0.646208
      28A     -0.639266    29A     -0.607261    30A     -0.592943
      31A     -0.586954    32A     -0.579315    33A     -0.569889
      34A     -0.556297    35A     -0.542948    36A     -0.481228
      37A     -0.436173    38A     -0.424265    39A     -0.412555
      40A     -0.396375    41A     -0.377866    42A     -0.298676

  @DF-RHF Final Energy:  -525.55745554659688

   => Energetics <=

    Nuclear Repulsion Energy =            654.1003826111826811
    One-Electron Energy =               -2010.6594366004251242
    Two-Electron Energy =                 831.0015984426454452
    Total Energy =                       -525.5574555465968842
  Basis Set: (AUG-CC-PVTZ AUX)
    Blend: AUG-CC-PVTZ-RI
    Molecular point group: c1

    Geometry (in Angstrom), charge = 0, multiplicity = 1:

       Center              X                  Y                   Z               Mass
    ------------   -----------------  -----------------  -----------------  -----------------
         N           -1.738984595885     0.683118754168     0.089452702679    14.003074004430
         N           -1.442147595885    -1.526422245832    -0.179361297321    14.003074004430
         N            1.103734404115     1.059453754168    -0.287671297321    14.003074004430
         N            1.357494404115    -1.266839245832     0.282437702679    14.003074004430
         C           -0.828758595885    -0.345654245832    -0.021199297321    12.000000000000
         C            0.622672404115    -0.170166245832    -0.002494297321    12.000000000000
         C           -2.985009595885     0.115959754168    -0.002157297321    12.000000000000
         C           -2.774568595885    -1.239827245832    -0.168779297321    12.000000000000
         C            2.440217404115     1.190209754168    -0.284365297321    12.000000000000
         C            2.686080404115    -1.103343245832     0.256328702679    12.000000000000
         C            3.291769404115     0.121790754168    -0.024875297321    12.000000000000
         H           -3.882373995885     0.726145654168    -0.030965597321     1.007825032230
         H           -3.519243595885    -2.016975245832    -0.283459297321     1.007825032230
         H            2.825431404115     2.183732754168    -0.508966297321     1.007825032230
         H            3.279739404115    -1.988779245832     0.479097702679     1.007825032230
         H            4.370983404115     0.236364754168    -0.035678297321     1.007825032230
         C           -1.504494595885     2.108895754168     0.300185702679    12.000000000000
         H           -0.807433595885     2.255708754168     1.124399702679     1.007825032230
         H           -1.086803595885     2.565367754168    -0.596023297321     1.007825032230
         H           -2.464290595885     2.565852754168     0.546715702679     1.007825032230

  Basis Set: AUG-CC-PVTZ
    Blend: AUG-CC-PVTZ
  Basis Set: (AUG-CC-PVTZ AUX)
    Blend: AUG-CC-PVTZ-JKFIT
	 Reference Energy          =    -525.5574555465968842 [Eh]
	 Singles Energy            =      -0.0000000000000000 [Eh]
	 Same-Spin Energy          =      -0.5779994804955833 [Eh]
	 Opposite-Spin Energy      =      -1.7384015577731251 [Eh]
	 Correlation Energy        =      -2.3164010382687081 [Eh]
	 Total Energy              =    -527.8738565848656208 [Eh]

	 ================> DF-SCS-MP2 Energies <==================
	-----------------------------------------------------------
	 SCS Same-Spin Scale       =       0.3333333333333333 [-]
	 SCS Opposite-Spin Scale   =       1.2000000000000000 [-]
	 SCS Same-Spin Energy      =      -0.1926664934985277 [Eh]
	 SCS Opposite-Spin Energy  =      -2.0860818693277499 [Eh]
	 SCS Correlation Energy    =      -2.2787483628262777 [Eh]
	 SCS Total Energy          =    -527.8362039094231477 [Eh]
	-----------------------------------------------------------

  Dipole Moment: [D]
     X:     1.4101      Y:     4.1148      Z:     0.3947     Total:     4.3676

*** Psi4 exiting successfully. Buy a developer a beer!
