                               Psi4 1.4a2.dev612

  ==> Input File <==

--------------------------------------------------------------------------
#psi4
#
memory 32 gb

molecule  {
0 1
  N       -1.7314010     0.6447010     0.0841650
  N       -1.4345640    -1.5648400    -0.1846490
  N        1.1113180     1.0210360    -0.2929590
  N        1.3650780    -1.3052570     0.2771500
  C       -0.8211750    -0.3840720    -0.0264870
  C        0.6299940    -0.2146571     0.0418471
  C       -2.9774260     0.0775420    -0.0074450
  C       -2.7669850    -1.2782450    -0.1740670
  C        2.4478010     1.1517920    -0.2896530
  C        2.6936640    -1.1417610     0.2510410
  C        3.2993530     0.0833730    -0.0301630
  H       -3.8759520     0.6750340     0.0629310
  H       -3.5116600    -2.0553930    -0.2887470
  H        2.8330150     2.1453150    -0.5142540
  H        3.2873230    -2.0271970     0.4738100
  H        4.3785670     0.1979470    -0.0409660
  C       -1.4969110     2.0704780     0.2948980
  H       -0.7998500     2.2172910     1.1191120
  H       -1.0792200     2.5269500    -0.6013110
  H       -2.4567070     2.5274350     0.5414280
units angstrom
no_reorient  #important for SAPT in psi4, default
symmetry c1  #important for SAPT in psi4, default
}

set PROPERTIES_ORIGIN ["COM"]
properties('MP2/aug-cc-pvtz', properties = ['dipole'])
--------------------------------------------------------------------------

    Molecular point group: c1
  Charge       = 0
  Multiplicity = 1
  Basis Set: AUG-CC-PVTZ
    Blend: AUG-CC-PVTZ
  Basis Set: (AUG-CC-PVTZ AUX)
    Blend: AUG-CC-PVTZ-JKFIT

    Orbital Energies [Eh]
    ---------------------

    Doubly Occupied:

       1A    -15.625710     2A    -15.580843     3A    -15.574450
       4A    -15.546357     5A    -11.333528     6A    -11.305603
       7A    -11.303487     8A    -11.295519     9A    -11.273238
      10A    -11.259786    11A    -11.252002    12A    -11.240288
      13A     -1.344623    14A     -1.307855    15A     -1.197734
      16A     -1.177749    17A     -1.088862    18A     -1.007793
      19A     -0.968439    20A     -0.899456    21A     -0.893631
      22A     -0.802189    23A     -0.784238    24A     -0.726864
      25A     -0.702356    26A     -0.686021    27A     -0.646214
      28A     -0.639688    29A     -0.607986    30A     -0.593009
      31A     -0.586758    32A     -0.578259    33A     -0.570224
      34A     -0.556258    35A     -0.542821    36A     -0.481372
      37A     -0.436300    38A     -0.423994    39A     -0.412247
      40A     -0.396360    41A     -0.377922    42A     -0.298476

  @DF-RHF Final Energy:  -525.55654215307891

   => Energetics <=

    Nuclear Repulsion Energy =            654.0665136635202543
    One-Electron Energy =               -2010.5930929837809344
    Two-Electron Energy =                 830.9700371671817720
    Total Energy =                       -525.5565421530789081
  Basis Set: (AUG-CC-PVTZ AUX)
    Blend: AUG-CC-PVTZ-RI
    Molecular point group: c1

    Geometry (in Angstrom), charge = 0, multiplicity = 1:

       Center              X                  Y                   Z               Mass
    ------------   -----------------  -----------------  -----------------  -----------------
         N           -1.738957641692     0.683653943833     0.085107801407    14.003074004430
         N           -1.442120641692    -1.525887056167    -0.183706198593    14.003074004430
         N            1.103761358308     1.059988943833    -0.292016198593    14.003074004430
         N            1.357521358308    -1.266304056167     0.278092801407    14.003074004430
         C           -0.828731641692    -0.345119056167    -0.025544198593    12.000000000000
         C            0.622437358308    -0.175704156167     0.042789901407    12.000000000000
         C           -2.984982641692     0.116494943833    -0.006502198593    12.000000000000
         C           -2.774541641692    -1.239292056167    -0.173124198593    12.000000000000
         C            2.440244358308     1.190744943833    -0.288710198593    12.000000000000
         C            2.686107358308    -1.102808056167     0.251983801407    12.000000000000
         C            3.291796358308     0.122325943833    -0.029220198593    12.000000000000
         H           -3.883508641692     0.713986943833     0.063873801407     1.007825032230
         H           -3.519216641692    -2.016440056167    -0.287804198593     1.007825032230
         H            2.825458358308     2.184267943833    -0.513311198593     1.007825032230
         H            3.279766358308    -1.988244056167     0.474752801407     1.007825032230
         H            4.371010358308     0.236899943833    -0.040023198593     1.007825032230
         C           -1.504467641692     2.109430943833     0.295840801407    12.000000000000
         H           -0.807406641692     2.256243943833     1.120054801407     1.007825032230
         H           -1.086776641692     2.565902943833    -0.600368198593     1.007825032230
         H           -2.464263641692     2.566387943833     0.542370801407     1.007825032230

  Basis Set: AUG-CC-PVTZ
    Blend: AUG-CC-PVTZ
  Basis Set: (AUG-CC-PVTZ AUX)
    Blend: AUG-CC-PVTZ-JKFIT
	 Reference Energy          =    -525.5565421530789081 [Eh]
	 Singles Energy            =      -0.0000000000000000 [Eh]
	 Same-Spin Energy          =      -0.5780681008305320 [Eh]
	 Opposite-Spin Energy      =      -1.7385234343443889 [Eh]
	 Correlation Energy        =      -2.3165915351749211 [Eh]
	 Total Energy              =    -527.8731336882538017 [Eh]

	 ================> DF-SCS-MP2 Energies <==================
	-----------------------------------------------------------
	 SCS Same-Spin Scale       =       0.3333333333333333 [-]
	 SCS Opposite-Spin Scale   =       1.2000000000000000 [-]
	 SCS Same-Spin Energy      =      -0.1926893669435106 [Eh]
	 SCS Opposite-Spin Energy  =      -2.0862281212132667 [Eh]
	 SCS Correlation Energy    =      -2.2789174881567775 [Eh]
	 SCS Total Energy          =    -527.8354596412357296 [Eh]
	-----------------------------------------------------------

  Dipole Moment: [D]
     X:     1.4072      Y:     4.0984      Z:     0.5190     Total:     4.3642

*** Psi4 exiting successfully. Buy a developer a beer!
