                               Psi4 1.4a2.dev612

  ==> Input File <==

--------------------------------------------------------------------------
#psi4
#
memory 32 gb

molecule  {
0 1
  N       -1.7314010     0.6447010     0.0841650
  N       -1.4345640    -1.5648400    -0.1846490
  N        1.1113180     1.0210360    -0.2929590
  N        1.3650780    -1.3052570     0.2771500
  C       -0.8211750    -0.3840720    -0.0264870
  C        0.6302560    -0.2085840    -0.0077820
  C       -2.9774260     0.0775420    -0.0074450
  C       -2.7669850    -1.2782450    -0.1740670
  C        2.4478010     1.1517920    -0.2896530
  C        2.6936640    -1.1417610     0.2510410
  C        3.2993530     0.0833730    -0.0301630
  H       -3.8759520     0.6750340     0.0629310
  H       -3.5116600    -2.0553930    -0.2887470
  H        2.8330150     2.1453150    -0.5142540
  H        3.2873230    -2.0271970     0.4738100
  H        4.3779328     0.2093544     0.0077112
  C       -1.4969110     2.0704780     0.2948980
  H       -0.7998500     2.2172910     1.1191120
  H       -1.0792200     2.5269500    -0.6013110
  H       -2.4567070     2.5274350     0.5414280
units angstrom
no_reorient  #important for SAPT in psi4, default
symmetry c1  #important for SAPT in psi4, default
}

set PROPERTIES_ORIGIN ["COM"]
properties('MP2/aug-cc-pvtz', properties = ['dipole'])
--------------------------------------------------------------------------

    Molecular point group: c1
  Charge       = 0
  Multiplicity = 1
  Basis Set: AUG-CC-PVTZ
    Blend: AUG-CC-PVTZ
  Basis Set: (AUG-CC-PVTZ AUX)
    Blend: AUG-CC-PVTZ-JKFIT

    Orbital Energies [Eh]
    ---------------------

    Doubly Occupied:

       1A    -15.625820     2A    -15.579982     3A    -15.574906
       4A    -15.546559     5A    -11.333405     6A    -11.305826
       7A    -11.302988     8A    -11.295434     9A    -11.273408
      10A    -11.259950    11A    -11.251918    12A    -11.240377
      13A     -1.344825    14A     -1.308072    15A     -1.197926
      16A     -1.177869    17A     -1.088918    18A     -1.007903
      19A     -0.968570    20A     -0.899302    21A     -0.893858
      22A     -0.802371    23A     -0.784467    24A     -0.726947
      25A     -0.702701    26A     -0.685642    27A     -0.646271
      28A     -0.639685    29A     -0.607177    30A     -0.592877
      31A     -0.586946    32A     -0.579379    33A     -0.570014
      34A     -0.556330    35A     -0.543322    36A     -0.481093
      37A     -0.436211    38A     -0.424247    39A     -0.412399
      40A     -0.396537    41A     -0.377913    42A     -0.298586

  @DF-RHF Final Energy:  -525.55781131134268

   => Energetics <=

    Nuclear Repulsion Energy =            654.1137856370612553
    One-Electron Energy =               -2010.6853336284930265
    Two-Electron Energy =                 831.0137366800890959
    Total Energy =                       -525.5578113113426753
  Basis Set: (AUG-CC-PVTZ AUX)
    Blend: AUG-CC-PVTZ-RI
    Molecular point group: c1

    Geometry (in Angstrom), charge = 0, multiplicity = 1:

       Center              X                  Y                   Z               Mass
    ------------   -----------------  -----------------  -----------------  -----------------
         N           -1.738973289601     0.683126853920     0.088521772692    14.003074004430
         N           -1.442136289601    -1.526414146080    -0.180292227308    14.003074004430
         N            1.103745710399     1.059461853920    -0.288602227308    14.003074004430
         N            1.357505710399    -1.266831146080     0.281506772692    14.003074004430
         C           -0.828747289601    -0.345646146080    -0.022130227308    12.000000000000
         C            0.622683710399    -0.170158146080    -0.003425227308    12.000000000000
         C           -2.984998289601     0.115967853920    -0.003088227308    12.000000000000
         C           -2.774557289601    -1.239819146080    -0.169710227308    12.000000000000
         C            2.440228710399     1.190217853920    -0.285296227308    12.000000000000
         C            2.686091710399    -1.103335146080     0.255397772692    12.000000000000
         C            3.291780710399     0.121798853920    -0.025806227308    12.000000000000
         H           -3.883524289601     0.713459853920     0.067287772692     1.007825032230
         H           -3.519232289601    -2.016967146080    -0.284390227308     1.007825032230
         H            2.825442710399     2.183740853920    -0.509897227308     1.007825032230
         H            3.279750710399    -1.988771146080     0.478166772692     1.007825032230
         H            4.370360510399     0.247780253920     0.012067972692     1.007825032230
         C           -1.504483289601     2.108903853920     0.299254772692    12.000000000000
         H           -0.807422289601     2.255716853920     1.123468772692     1.007825032230
         H           -1.086792289601     2.565375853920    -0.596954227308     1.007825032230
         H           -2.464279289601     2.565860853920     0.545784772692     1.007825032230

  Basis Set: AUG-CC-PVTZ
    Blend: AUG-CC-PVTZ
  Basis Set: (AUG-CC-PVTZ AUX)
    Blend: AUG-CC-PVTZ-JKFIT
	 Reference Energy          =    -525.5578113113426753 [Eh]
	 Singles Energy            =      -0.0000000000000000 [Eh]
	 Same-Spin Energy          =      -0.5779733581641624 [Eh]
	 Opposite-Spin Energy      =      -1.7383379777880741 [Eh]
	 Correlation Energy        =      -2.3163113359522365 [Eh]
	 Total Energy              =    -527.8741226472949393 [Eh]

	 ================> DF-SCS-MP2 Energies <==================
	-----------------------------------------------------------
	 SCS Same-Spin Scale       =       0.3333333333333333 [-]
	 SCS Opposite-Spin Scale   =       1.2000000000000000 [-]
	 SCS Same-Spin Energy      =      -0.1926577860547208 [Eh]
	 SCS Opposite-Spin Energy  =      -2.0860055733456888 [Eh]
	 SCS Correlation Energy    =      -2.2786633594004098 [Eh]
	 SCS Total Energy          =    -527.8364746707430868 [Eh]
	-----------------------------------------------------------

  Dipole Moment: [D]
     X:     1.3889      Y:     4.1148      Z:     0.5105     Total:     4.3728

*** Psi4 exiting successfully. Buy a developer a beer!
