                               Psi4 1.4a2.dev612

  ==> Input File <==

--------------------------------------------------------------------------
#psi4
#
memory 32 gb

molecule  {
0 1
  N       -1.7314010     0.6447010     0.0841650
  N       -1.4345640    -1.5648400    -0.1846490
  N        1.1113180     1.0210360    -0.2929590
  N        1.3650780    -1.3052570     0.2771500
  C       -0.8211750    -0.3840720    -0.0264870
  C        0.6302560    -0.2085840    -0.0077820
  C       -2.9774260     0.0775420    -0.0074450
  C       -2.7669850    -1.2782450    -0.1740670
  C        2.4478010     1.1517920    -0.2896530
  C        2.6936640    -1.1417610     0.2510410
  C        3.2993530     0.0833730    -0.0301630
  H       -3.8759520     0.6750340     0.0629310
  H       -3.5116600    -2.0553930    -0.2887470
  H        2.8309116     2.1677148    -0.4168177
  H        3.2873230    -2.0271970     0.4738100
  H        4.3785670     0.1979470    -0.0409660
  C       -1.4969110     2.0704780     0.2948980
  H       -0.7998500     2.2172910     1.1191120
  H       -1.0792200     2.5269500    -0.6013110
  H       -2.4567070     2.5274350     0.5414280
units angstrom
no_reorient  #important for SAPT in psi4, default
symmetry c1  #important for SAPT in psi4, default
}

set PROPERTIES_ORIGIN ["COM"]
properties('MP2/aug-cc-pvtz', properties = ['dipole'])
--------------------------------------------------------------------------

    Molecular point group: c1
  Charge       = 0
  Multiplicity = 1
  Basis Set: AUG-CC-PVTZ
    Blend: AUG-CC-PVTZ
  Basis Set: (AUG-CC-PVTZ AUX)
    Blend: AUG-CC-PVTZ-JKFIT

    Orbital Energies [Eh]
    ---------------------

    Doubly Occupied:

       1A    -15.625830     2A    -15.580013     3A    -15.574931
       4A    -15.546560     5A    -11.333435     6A    -11.306288
       7A    -11.303005     8A    -11.295442     9A    -11.273405
      10A    -11.259944    11A    -11.251892    12A    -11.240379
      13A     -1.344832    14A     -1.308093    15A     -1.197929
      16A     -1.177872    17A     -1.088930    18A     -1.007926
      19A     -0.968579    20A     -0.899009    21A     -0.893904
      22A     -0.802347    23A     -0.784255    24A     -0.726821
      25A     -0.702680    26A     -0.685735    27A     -0.646256
      28A     -0.639696    29A     -0.607983    30A     -0.592711
      31A     -0.585883    32A     -0.578881    33A     -0.570641
      34A     -0.556460    35A     -0.543097    36A     -0.481169
      37A     -0.436476    38A     -0.423748    39A     -0.412341
      40A     -0.396694    41A     -0.377840    42A     -0.298627

  @DF-RHF Final Energy:  -525.55729009206652

   => Energetics <=

    Nuclear Repulsion Energy =            654.1064681198204198
    One-Electron Energy =               -2010.6704375061026440
    Two-Electron Energy =                 831.0066792942157008
    Total Energy =                       -525.5572900920665234
  Basis Set: (AUG-CC-PVTZ AUX)
    Blend: AUG-CC-PVTZ-RI
    Molecular point group: c1

    Geometry (in Angstrom), charge = 0, multiplicity = 1:

       Center              X                  Y                   Z               Mass
    ------------   -----------------  -----------------  -----------------  -----------------
         N           -1.738964039578     0.683057646217     0.088214787383    14.003074004430
         N           -1.442127039578    -1.526483353783    -0.180599212617    14.003074004430
         N            1.103754960422     1.059392646217    -0.288909212617    14.003074004430
         N            1.357514960422    -1.266900353783     0.281199787383    14.003074004430
         C           -0.828738039578    -0.345715353783    -0.022437212617    12.000000000000
         C            0.622692960422    -0.170227353783    -0.003732212617    12.000000000000
         C           -2.984989039578     0.115898646217    -0.003395212617    12.000000000000
         C           -2.774548039578    -1.239888353783    -0.170017212617    12.000000000000
         C            2.440237960422     1.190148646217    -0.285603212617    12.000000000000
         C            2.686100960422    -1.103404353783     0.255090787383    12.000000000000
         C            3.291789960422     0.121729646217    -0.026113212617    12.000000000000
         H           -3.883515039578     0.713390646217     0.066980787383     1.007825032230
         H           -3.519223039578    -2.017036353783    -0.284697212617     1.007825032230
         H            2.823348560422     2.206071446217    -0.412767912617     1.007825032230
         H            3.279759960422    -1.988840353783     0.477859787383     1.007825032230
         H            4.371003960422     0.236303646217    -0.036916212617     1.007825032230
         C           -1.504474039578     2.108834646217     0.298947787383    12.000000000000
         H           -0.807413039578     2.255647646217     1.123161787383     1.007825032230
         H           -1.086783039578     2.565306646217    -0.597261212617     1.007825032230
         H           -2.464270039578     2.565791646217     0.545477787383     1.007825032230

  Basis Set: AUG-CC-PVTZ
    Blend: AUG-CC-PVTZ
  Basis Set: (AUG-CC-PVTZ AUX)
    Blend: AUG-CC-PVTZ-JKFIT
	 Reference Energy          =    -525.5572900920665234 [Eh]
	 Singles Energy            =      -0.0000000000000000 [Eh]
	 Same-Spin Energy          =      -0.5780143887214455 [Eh]
	 Opposite-Spin Energy      =      -1.7384217086489073 [Eh]
	 Correlation Energy        =      -2.3164360973703531 [Eh]
	 Total Energy              =    -527.8737261894368658 [Eh]

	 ================> DF-SCS-MP2 Energies <==================
	-----------------------------------------------------------
	 SCS Same-Spin Scale       =       0.3333333333333333 [-]
	 SCS Opposite-Spin Scale   =       1.2000000000000000 [-]
	 SCS Same-Spin Energy      =      -0.1926714629071485 [Eh]
	 SCS Opposite-Spin Energy  =      -2.0861060503786888 [Eh]
	 SCS Correlation Energy    =      -2.2787775132858372 [Eh]
	 SCS Total Energy          =    -527.8360676053523548 [Eh]
	-----------------------------------------------------------

  Dipole Moment: [D]
     X:     1.3873      Y:     4.1127      Z:     0.5270     Total:     4.3723

*** Psi4 exiting successfully. Buy a developer a beer!
