                               Psi4 1.4a2.dev612

  ==> Input File <==

--------------------------------------------------------------------------
#psi4
#
memory 32 gb

molecule  {
0 1
  N       -1.7314010     0.6447010     0.0841650
  N       -1.4345640    -1.5648400    -0.1846490
  N        1.1113180     1.0210360    -0.2929590
  N        1.3650780    -1.3052570     0.2771500
  C       -0.8211750    -0.3840720    -0.0264870
  C        0.6292078    -0.2328764     0.1907344
  C       -2.9774260     0.0775420    -0.0074450
  C       -2.7669850    -1.2782450    -0.1740670
  C        2.4478010     1.1517920    -0.2896530
  C        2.6936640    -1.1417610     0.2510410
  C        3.2993530     0.0833730    -0.0301630
  H       -3.8759520     0.6750340     0.0629310
  H       -3.5116600    -2.0553930    -0.2887470
  H        2.8330150     2.1453150    -0.5142540
  H        3.2873230    -2.0271970     0.4738100
  H        4.3785670     0.1979470    -0.0409660
  C       -1.4969110     2.0704780     0.2948980
  H       -0.7998500     2.2172910     1.1191120
  H       -1.0792200     2.5269500    -0.6013110
  H       -2.4567070     2.5274350     0.5414280
units angstrom
no_reorient  #important for SAPT in psi4, default
symmetry c1  #important for SAPT in psi4, default
}

set PROPERTIES_ORIGIN ["COM"]
properties('MP2/aug-cc-pvtz', properties = ['dipole'])
--------------------------------------------------------------------------

    Molecular point group: c1
  Charge       = 0
  Multiplicity = 1
  Basis Set: AUG-CC-PVTZ
    Blend: AUG-CC-PVTZ
  Basis Set: (AUG-CC-PVTZ AUX)
    Blend: AUG-CC-PVTZ-JKFIT

    Orbital Energies [Eh]
    ---------------------

    Doubly Occupied:

       1A    -15.624681     2A    -15.584545     3A    -15.575359
       4A    -15.545137     5A    -11.335757     6A    -11.304507
       7A    -11.304421     8A    -11.296517     9A    -11.272541
      10A    -11.258874    11A    -11.253869    12A    -11.239690
      13A     -1.343468    14A     -1.307648    15A     -1.195037
      16A     -1.176828    17A     -1.087435    18A     -1.006639
      19A     -0.967460    20A     -0.902312    21A     -0.887625
      22A     -0.801229    23A     -0.781553    24A     -0.726023
      25A     -0.701201    26A     -0.684330    27A     -0.646653
      28A     -0.638520    29A     -0.609798    30A     -0.593314
      31A     -0.585917    32A     -0.575012    33A     -0.569229
      34A     -0.555656    35A     -0.539423    36A     -0.482250
      37A     -0.437599    38A     -0.427325    39A     -0.406564
      40A     -0.392506    41A     -0.377572    42A     -0.297664

  @DF-RHF Final Energy:  -525.53715462699154

   => Energetics <=

    Nuclear Repulsion Energy =            653.5040198020184334
    One-Electron Energy =               -2009.4829739082440483
    Two-Electron Energy =                 830.4417994792339641
    Total Energy =                       -525.5371546269915370
  Basis Set: (AUG-CC-PVTZ AUX)
    Blend: AUG-CC-PVTZ-RI
    Molecular point group: c1

    Geometry (in Angstrom), charge = 0, multiplicity = 1:

       Center              X                  Y                   Z               Mass
    ------------   -----------------  -----------------  -----------------  -----------------
         N           -1.738898704281     0.685019751996     0.073946478542    14.003074004430
         N           -1.442061704281    -1.524521248004    -0.194867521458    14.003074004430
         N            1.103820295719     1.061354751996    -0.303177521458    14.003074004430
         N            1.357580295719    -1.264938248004     0.266931478542    14.003074004430
         C           -0.828672704281    -0.343753248004    -0.036705521458    12.000000000000
         C            0.621710095719    -0.192557648004     0.180515878542    12.000000000000
         C           -2.984923704281     0.117860751996    -0.017663521458    12.000000000000
         C           -2.774482704281    -1.237926248004    -0.184285521458    12.000000000000
         C            2.440303295719     1.192110751996    -0.299871521458    12.000000000000
         C            2.686166295719    -1.101442248004     0.240822478542    12.000000000000
         C            3.291855295719     0.123691751996    -0.040381521458    12.000000000000
         H           -3.883449704281     0.715352751996     0.052712478542     1.007825032230
         H           -3.519157704281    -2.015074248004    -0.298965521458     1.007825032230
         H            2.825517295719     2.185633751996    -0.524472521458     1.007825032230
         H            3.279825295719    -1.986878248004     0.463591478542     1.007825032230
         H            4.371069295719     0.238265751996    -0.051184521458     1.007825032230
         C           -1.504408704281     2.110796751996     0.284679478542    12.000000000000
         H           -0.807347704281     2.257609751996     1.108893478542     1.007825032230
         H           -1.086717704281     2.567268751996    -0.611529521458     1.007825032230
         H           -2.464204704281     2.567753751996     0.531209478542     1.007825032230

  Basis Set: AUG-CC-PVTZ
    Blend: AUG-CC-PVTZ
  Basis Set: (AUG-CC-PVTZ AUX)
    Blend: AUG-CC-PVTZ-JKFIT
	 Reference Energy          =    -525.5371546269915370 [Eh]
	 Singles Energy            =      -0.0000000000000000 [Eh]
	 Same-Spin Energy          =      -0.5789467586439907 [Eh]
	 Opposite-Spin Energy      =      -1.7411227480402685 [Eh]
	 Correlation Energy        =      -2.3200695066842592 [Eh]
	 Total Energy              =    -527.8572241336757997 [Eh]

	 ================> DF-SCS-MP2 Energies <==================
	-----------------------------------------------------------
	 SCS Same-Spin Scale       =       0.3333333333333333 [-]
	 SCS Opposite-Spin Scale   =       1.2000000000000000 [-]
	 SCS Same-Spin Energy      =      -0.1929822528813302 [Eh]
	 SCS Opposite-Spin Energy  =      -2.0893472976483221 [Eh]
	 SCS Correlation Energy    =      -2.2823295505296524 [Eh]
	 SCS Total Energy          =    -527.8194841775211898 [Eh]
	-----------------------------------------------------------

  Dipole Moment: [D]
     X:     1.4965      Y:     4.0622      Z:     0.6328     Total:     4.3751

*** Psi4 exiting successfully. Buy a developer a beer!
