                               Psi4 1.4a2.dev612

  ==> Input File <==

--------------------------------------------------------------------------
#psi4
#
memory 32 gb

molecule  {
0 1
  N       -1.7314010     0.6447010     0.0841650
  N       -1.4345640    -1.5648400    -0.1846490
  N        1.1113180     1.0210360    -0.2929590
  N        1.3650780    -1.3052570     0.2771500
  C       -0.8193612    -0.3957788    -0.0750633
  C        0.6302560    -0.2085840    -0.0077820
  C       -2.9774260     0.0775420    -0.0074450
  C       -2.7669850    -1.2782450    -0.1740670
  C        2.4478010     1.1517920    -0.2896530
  C        2.6936640    -1.1417610     0.2510410
  C        3.2993530     0.0833730    -0.0301630
  H       -3.8759520     0.6750340     0.0629310
  H       -3.5116600    -2.0553930    -0.2887470
  H        2.8330150     2.1453150    -0.5142540
  H        3.2873230    -2.0271970     0.4738100
  H        4.3785670     0.1979470    -0.0409660
  C       -1.4969110     2.0704780     0.2948980
  H       -0.7998500     2.2172910     1.1191120
  H       -1.0792200     2.5269500    -0.6013110
  H       -2.4567070     2.5274350     0.5414280
units angstrom
no_reorient  #important for SAPT in psi4, default
symmetry c1  #important for SAPT in psi4, default
}

set PROPERTIES_ORIGIN ["COM"]
properties('MP2/aug-cc-pvtz', properties = ['dipole'])
--------------------------------------------------------------------------

    Molecular point group: c1
  Charge       = 0
  Multiplicity = 1
  Basis Set: AUG-CC-PVTZ
    Blend: AUG-CC-PVTZ
  Basis Set: (AUG-CC-PVTZ AUX)
    Blend: AUG-CC-PVTZ-JKFIT

    Orbital Energies [Eh]
    ---------------------

    Doubly Occupied:

       1A    -15.623816     2A    -15.580117     3A    -15.574995
       4A    -15.546629     5A    -11.333250     6A    -11.305901
       7A    -11.303027     8A    -11.295497     9A    -11.272598
      10A    -11.260825    11A    -11.251961    12A    -11.239844
      13A     -1.343291    14A     -1.307808    15A     -1.198292
      16A     -1.179589    17A     -1.088835    18A     -1.008111
      19A     -0.966740    20A     -0.899382    21A     -0.893335
      22A     -0.801785    23A     -0.784556    24A     -0.726233
      25A     -0.702688    26A     -0.685802    27A     -0.644670
      28A     -0.639767    29A     -0.607516    30A     -0.593065
      31A     -0.587168    32A     -0.577534    33A     -0.570935
      34A     -0.556524    35A     -0.542967    36A     -0.481104
      37A     -0.436712    38A     -0.424247    39A     -0.412499
      40A     -0.397302    41A     -0.377850    42A     -0.298889

  @DF-RHF Final Energy:  -525.55747119252715

   => Energetics <=

    Nuclear Repulsion Energy =            654.0490243556913583
    One-Electron Energy =               -2010.5656804228162855
    Two-Electron Energy =                 830.9591848745978950
    Total Energy =                       -525.5574711925271458
  Basis Set: (AUG-CC-PVTZ AUX)
    Blend: AUG-CC-PVTZ-RI
    Molecular point group: c1

    Geometry (in Angstrom), charge = 0, multiplicity = 1:

       Center              X                  Y                   Z               Mass
    ------------   -----------------  -----------------  -----------------  -----------------
         N           -1.739113253850     0.684076273640     0.092469760262    14.003074004430
         N           -1.442276253850    -1.525464726360    -0.176344239738    14.003074004430
         N            1.103605746150     1.060411273640    -0.284654239738    14.003074004430
         N            1.357365746150    -1.265881726360     0.285454760262    14.003074004430
         C           -0.827073453850    -0.356403526360    -0.066758539738    12.000000000000
         C            0.622543746150    -0.169208726360     0.000522760262    12.000000000000
         C           -2.985138253850     0.116917273640     0.000859760262    12.000000000000
         C           -2.774697253850    -1.238869726360    -0.165762239738    12.000000000000
         C            2.440088746150     1.191167273640    -0.281348239738    12.000000000000
         C            2.685951746150    -1.102385726360     0.259345760262    12.000000000000
         C            3.291640746150     0.122748273640    -0.021858239738    12.000000000000
         H           -3.883664253850     0.714409273640     0.071235760262     1.007825032230
         H           -3.519372253850    -2.016017726360    -0.280442239738     1.007825032230
         H            2.825302746150     2.184690273640    -0.505949239738     1.007825032230
         H            3.279610746150    -1.987821726360     0.482114760262     1.007825032230
         H            4.370854746150     0.237322273640    -0.032661239738     1.007825032230
         C           -1.504623253850     2.109853273640     0.303202760262    12.000000000000
         H           -0.807562253850     2.256666273640     1.127416760262     1.007825032230
         H           -1.086932253850     2.566325273640    -0.593006239738     1.007825032230
         H           -2.464419253850     2.566810273640     0.549732760262     1.007825032230

  Basis Set: AUG-CC-PVTZ
    Blend: AUG-CC-PVTZ
  Basis Set: (AUG-CC-PVTZ AUX)
    Blend: AUG-CC-PVTZ-JKFIT
	 Reference Energy          =    -525.5574711925271458 [Eh]
	 Singles Energy            =      -0.0000000000000000 [Eh]
	 Same-Spin Energy          =      -0.5777823593249856 [Eh]
	 Opposite-Spin Energy      =      -1.7381088534216536 [Eh]
	 Correlation Energy        =      -2.3158912127466391 [Eh]
	 Total Energy              =    -527.8733624052738378 [Eh]

	 ================> DF-SCS-MP2 Energies <==================
	-----------------------------------------------------------
	 SCS Same-Spin Scale       =       0.3333333333333333 [-]
	 SCS Opposite-Spin Scale   =       1.2000000000000000 [-]
	 SCS Same-Spin Energy      =      -0.1925941197749952 [Eh]
	 SCS Opposite-Spin Energy  =      -2.0857306241059841 [Eh]
	 SCS Correlation Energy    =      -2.2783247438809795 [Eh]
	 SCS Total Energy          =    -527.8357959364080898 [Eh]
	-----------------------------------------------------------

  Dipole Moment: [D]
     X:     1.4210      Y:     4.0761      Z:     0.4621     Total:     4.3414

*** Psi4 exiting successfully. Buy a developer a beer!
