                               Psi4 1.4a2.dev612

  ==> Input File <==

--------------------------------------------------------------------------
#psi4
#
memory 32 gb

molecule  {
0 1
  N       -1.7314010     0.6447010     0.0841650
  N       -1.4345640    -1.5648400    -0.1846490
  N        1.1113180     1.0210360    -0.2929590
  N        1.3650780    -1.3052570     0.2771500
  C       -0.8211750    -0.3840720    -0.0264870
  C        0.6289458    -0.2389495     0.2403636
  C       -2.9774260     0.0775420    -0.0074450
  C       -2.7669850    -1.2782450    -0.1740670
  C        2.4478010     1.1517920    -0.2896530
  C        2.6936640    -1.1417610     0.2510410
  C        3.2993530     0.0833730    -0.0301630
  H       -3.8759520     0.6750340     0.0629310
  H       -3.5116600    -2.0553930    -0.2887470
  H        2.8330150     2.1453150    -0.5142540
  H        3.2873230    -2.0271970     0.4738100
  H        4.3785670     0.1979470    -0.0409660
  C       -1.4969110     2.0704780     0.2948980
  H       -0.7998500     2.2172910     1.1191120
  H       -1.0792200     2.5269500    -0.6013110
  H       -2.4567070     2.5274350     0.5414280
units angstrom
no_reorient  #important for SAPT in psi4, default
symmetry c1  #important for SAPT in psi4, default
}

set PROPERTIES_ORIGIN ["COM"]
properties('MP2/aug-cc-pvtz', properties = ['dipole'])
--------------------------------------------------------------------------

    Molecular point group: c1
  Charge       = 0
  Multiplicity = 1
  Basis Set: AUG-CC-PVTZ
    Blend: AUG-CC-PVTZ
  Basis Set: (AUG-CC-PVTZ AUX)
    Blend: AUG-CC-PVTZ-JKFIT

    Orbital Energies [Eh]
    ---------------------

    Doubly Occupied:

       1A    -15.624096     2A    -15.586024     3A    -15.576511
       4A    -15.544516     5A    -11.337009     6A    -11.304684
       7A    -11.303897     8A    -11.297041     9A    -11.272219
      10A    -11.258411    11A    -11.254953    12A    -11.239368
      13A     -1.342874    14A     -1.307583    15A     -1.193597
      16A     -1.176321    17A     -1.086595    18A     -1.005991
      19A     -0.966926    20A     -0.903208    21A     -0.884815
      22A     -0.800766    23A     -0.780043    24A     -0.725556
      25A     -0.700810    26A     -0.682979    27A     -0.646888
      28A     -0.637934    29A     -0.610278    30A     -0.593430
      31A     -0.585505    32A     -0.574287    33A     -0.568049
      34A     -0.555317    35A     -0.537581    36A     -0.482595
      37A     -0.438459    38A     -0.428058    39A     -0.404761
      40A     -0.390090    41A     -0.377228    42A     -0.297231

  @DF-RHF Final Energy:  -525.52600181552850

   => Energetics <=

    Nuclear Repulsion Energy =            653.1831927074873647
    One-Electron Energy =               -2008.8494175308067042
    Two-Electron Energy =                 830.1402230077907234
    Total Energy =                       -525.5260018155285024
  Basis Set: (AUG-CC-PVTZ AUX)
    Blend: AUG-CC-PVTZ-RI
    Molecular point group: c1

    Geometry (in Angstrom), charge = 0, multiplicity = 1:

       Center              X                  Y                   Z               Mass
    ------------   -----------------  -----------------  -----------------  -----------------
         N           -1.738879063475     0.685475021384     0.070226030090    14.003074004430
         N           -1.442042063475    -1.524065978616    -0.198587969910    14.003074004430
         N            1.103839936525     1.061810021384    -0.306897969910    14.003074004430
         N            1.357599936525    -1.264482978616     0.263211030090    14.003074004430
         C           -0.828653063475    -0.343297978616    -0.040425969910    12.000000000000
         C            0.621467736525    -0.198175478616     0.226424630090    12.000000000000
         C           -2.984904063475     0.118316021384    -0.021383969910    12.000000000000
         C           -2.774463063475    -1.237470978616    -0.188005969910    12.000000000000
         C            2.440322936525     1.192566021384    -0.303591969910    12.000000000000
         C            2.686185936525    -1.100986978616     0.237102030090    12.000000000000
         C            3.291874936525     0.124147021384    -0.044101969910    12.000000000000
         H           -3.883430063475     0.715808021384     0.048992030090     1.007825032230
         H           -3.519138063475    -2.014618978616    -0.302685969910     1.007825032230
         H            2.825536936525     2.186089021384    -0.528192969910     1.007825032230
         H            3.279844936525    -1.986422978616     0.459871030090     1.007825032230
         H            4.371088936525     0.238721021384    -0.054904969910     1.007825032230
         C           -1.504389063475     2.111252021384     0.280959030090    12.000000000000
         H           -0.807328063475     2.258065021384     1.105173030090     1.007825032230
         H           -1.086698063475     2.567724021384    -0.615249969910     1.007825032230
         H           -2.464185063475     2.568209021384     0.527489030090     1.007825032230

  Basis Set: AUG-CC-PVTZ
    Blend: AUG-CC-PVTZ
  Basis Set: (AUG-CC-PVTZ AUX)
    Blend: AUG-CC-PVTZ-JKFIT
	 Reference Energy          =    -525.5260018155285024 [Eh]
	 Singles Energy            =      -0.0000000000000000 [Eh]
	 Same-Spin Energy          =      -0.5794327586120454 [Eh]
	 Opposite-Spin Energy      =      -1.7426777013761203 [Eh]
	 Correlation Energy        =      -2.3221104599881657 [Eh]
	 Total Energy              =    -527.8481122755166552 [Eh]

	 ================> DF-SCS-MP2 Energies <==================
	-----------------------------------------------------------
	 SCS Same-Spin Scale       =       0.3333333333333333 [-]
	 SCS Opposite-Spin Scale   =       1.2000000000000000 [-]
	 SCS Same-Spin Energy      =      -0.1931442528706818 [Eh]
	 SCS Opposite-Spin Energy  =      -2.0912132416513445 [Eh]
	 SCS Correlation Energy    =      -2.2843574945220264 [Eh]
	 SCS Total Energy          =    -527.8103593100505577 [Eh]
	-----------------------------------------------------------

  Dipole Moment: [D]
     X:     1.5408      Y:     4.0469      Z:     0.6689     Total:     4.3817

*** Psi4 exiting successfully. Buy a developer a beer!
