                               Psi4 1.4a2.dev612

  ==> Input File <==

--------------------------------------------------------------------------
#psi4
#
memory 32 gb

molecule  {
0 1
  N       -1.7314010     0.6447010     0.0841650
  N       -1.4345640    -1.5648400    -0.1846490
  N        1.1113180     1.0210360    -0.2929590
  N        1.3650780    -1.3052570     0.2771500
  C       -0.8211750    -0.3840720    -0.0264870
  C        0.6297319    -0.2207302     0.0914762
  C       -2.9774260     0.0775420    -0.0074450
  C       -2.7669850    -1.2782450    -0.1740670
  C        2.4478010     1.1517920    -0.2896530
  C        2.6936640    -1.1417610     0.2510410
  C        3.2993530     0.0833730    -0.0301630
  H       -3.8759520     0.6750340     0.0629310
  H       -3.5116600    -2.0553930    -0.2887470
  H        2.8330150     2.1453150    -0.5142540
  H        3.2873230    -2.0271970     0.4738100
  H        4.3785670     0.1979470    -0.0409660
  C       -1.4969110     2.0704780     0.2948980
  H       -0.7998500     2.2172910     1.1191120
  H       -1.0792200     2.5269500    -0.6013110
  H       -2.4567070     2.5274350     0.5414280
units angstrom
no_reorient  #important for SAPT in psi4, default
symmetry c1  #important for SAPT in psi4, default
}

set PROPERTIES_ORIGIN ["COM"]
properties('MP2/aug-cc-pvtz', properties = ['dipole'])
--------------------------------------------------------------------------

    Molecular point group: c1
  Charge       = 0
  Multiplicity = 1
  Basis Set: AUG-CC-PVTZ
    Blend: AUG-CC-PVTZ
  Basis Set: (AUG-CC-PVTZ AUX)
    Blend: AUG-CC-PVTZ-JKFIT

    Orbital Energies [Eh]
    ---------------------

    Doubly Occupied:

       1A    -15.625487     2A    -15.581914     3A    -15.574358
       4A    -15.546062     5A    -11.333986     6A    -11.305290
       7A    -11.303920     8A    -11.295741     9A    -11.273048
      10A    -11.259562    11A    -11.252402    12A    -11.240148
      13A     -1.344337    14A     -1.307739    15A     -1.197167
      16A     -1.177543    17A     -1.088582    18A     -1.007543
      19A     -0.968215    20A     -0.900301    21A     -0.892199
      22A     -0.801942    23A     -0.783674    24A     -0.726682
      25A     -0.701982    26A     -0.685858    27A     -0.646286
      28A     -0.639424    29A     -0.608633    30A     -0.593102
      31A     -0.586540    32A     -0.577077    33A     -0.570272
      34A     -0.556120    35A     -0.542039    36A     -0.481637
      37A     -0.436531    38A     -0.424917    39A     -0.410724
      40A     -0.395631    41A     -0.377897    42A     -0.298291

  @DF-RHF Final Energy:  -525.55254813737088

   => Energetics <=

    Nuclear Repulsion Energy =            653.9466619675029051
    One-Electron Energy =               -2010.3568118408859391
    Two-Electron Energy =                 830.8576017360121568
    Total Energy =                       -525.5525481373708772
  Basis Set: (AUG-CC-PVTZ AUX)
    Blend: AUG-CC-PVTZ-RI
    Molecular point group: c1

    Geometry (in Angstrom), charge = 0, multiplicity = 1:

       Center              X                  Y                   Z               Mass
    ------------   -----------------  -----------------  -----------------  -----------------
         N           -1.738937993390     0.684109213221     0.081387360452    14.003074004430
         N           -1.442100993390    -1.525431786779    -0.187426639548    14.003074004430
         N            1.103781006610     1.060444213221    -0.295736639548    14.003074004430
         N            1.357541006610    -1.265848786779     0.274372360452    14.003074004430
         C           -0.828711993390    -0.344663786779    -0.029264639548    12.000000000000
         C            0.622194906610    -0.181321986779     0.088698560452    12.000000000000
         C           -2.984962993390     0.116950213221    -0.010222639548    12.000000000000
         C           -2.774521993390    -1.238836786779    -0.176844639548    12.000000000000
         C            2.440264006610     1.191200213221    -0.292430639548    12.000000000000
         C            2.686127006610    -1.102352786779     0.248263360452    12.000000000000
         C            3.291816006610     0.122781213221    -0.032940639548    12.000000000000
         H           -3.883488993390     0.714442213221     0.060153360452     1.007825032230
         H           -3.519196993390    -2.015984786779    -0.291524639548     1.007825032230
         H            2.825478006610     2.184723213221    -0.517031639548     1.007825032230
         H            3.279786006610    -1.987788786779     0.471032360452     1.007825032230
         H            4.371030006610     0.237355213221    -0.043743639548     1.007825032230
         C           -1.504447993390     2.109886213221     0.292120360452    12.000000000000
         H           -0.807386993390     2.256699213221     1.116334360452     1.007825032230
         H           -1.086756993390     2.566358213221    -0.604088639548     1.007825032230
         H           -2.464243993390     2.566843213221     0.538650360452     1.007825032230

  Basis Set: AUG-CC-PVTZ
    Blend: AUG-CC-PVTZ
  Basis Set: (AUG-CC-PVTZ AUX)
    Blend: AUG-CC-PVTZ-JKFIT
	 Reference Energy          =    -525.5525481373708772 [Eh]
	 Singles Energy            =      -0.0000000000000000 [Eh]
	 Same-Spin Energy          =      -0.5782640331841155 [Eh]
	 Opposite-Spin Energy      =      -1.7390502516434834 [Eh]
	 Correlation Energy        =      -2.3173142848275989 [Eh]
	 Total Energy              =    -527.8698624221984801 [Eh]

	 ================> DF-SCS-MP2 Energies <==================
	-----------------------------------------------------------
	 SCS Same-Spin Scale       =       0.3333333333333333 [-]
	 SCS Opposite-Spin Scale   =       1.2000000000000000 [-]
	 SCS Same-Spin Energy      =      -0.1927546777280385 [Eh]
	 SCS Opposite-Spin Energy  =      -2.0868603019721799 [Eh]
	 SCS Correlation Energy    =      -2.2796149797002183 [Eh]
	 SCS Total Energy          =    -527.8321631170711044 [Eh]
	-----------------------------------------------------------

  Dipole Moment: [D]
     X:     1.4297      Y:     4.0876      Z:     0.5577     Total:     4.3662

*** Psi4 exiting successfully. Buy a developer a beer!
