                               Psi4 1.4a2.dev612

  ==> Input File <==

--------------------------------------------------------------------------
#psi4
#
memory 32 gb

molecule  {
0 1
  N       -1.7314010     0.6447010     0.0841650
  N       -1.4345640    -1.5648400    -0.1846490
  N        1.1113180     1.0210360    -0.2929590
  N        1.3650780    -1.3052570     0.2771500
  C       -0.8211750    -0.3840720    -0.0264870
  C        0.6302560    -0.2085840    -0.0077820
  C       -2.9774260     0.0775420    -0.0074450
  C       -2.7669850    -1.2782450    -0.1740670
  C        2.4478010     1.1517920    -0.2896530
  C        2.6936640    -1.1417610     0.2510410
  C        3.2993530     0.0833730    -0.0301630
  H       -3.8742096     0.6940748    -0.0858454
  H       -3.5116600    -2.0553930    -0.2887470
  H        2.8330150     2.1453150    -0.5142540
  H        3.2873230    -2.0271970     0.4738100
  H        4.3785670     0.1979470    -0.0409660
  C       -1.4969110     2.0704780     0.2948980
  H       -0.7998500     2.2172910     1.1191120
  H       -1.0792200     2.5269500    -0.6013110
  H       -2.4567070     2.5274350     0.5414280
units angstrom
no_reorient  #important for SAPT in psi4, default
symmetry c1  #important for SAPT in psi4, default
}

set PROPERTIES_ORIGIN ["COM"]
properties('MP2/aug-cc-pvtz', properties = ['dipole'])
--------------------------------------------------------------------------

    Molecular point group: c1
  Charge       = 0
  Multiplicity = 1
  Basis Set: AUG-CC-PVTZ
    Blend: AUG-CC-PVTZ
  Basis Set: (AUG-CC-PVTZ AUX)
    Blend: AUG-CC-PVTZ-JKFIT

    Orbital Energies [Eh]
    ---------------------

    Doubly Occupied:

       1A    -15.625643     2A    -15.580250     3A    -15.575112
       4A    -15.546518     5A    -11.333477     6A    -11.305972
       7A    -11.303080     8A    -11.295647     9A    -11.273202
      10A    -11.260354    11A    -11.252079    12A    -11.240556
      13A     -1.344805    14A     -1.308207    15A     -1.198078
      16A     -1.177849    17A     -1.089085    18A     -1.007653
      19A     -0.968496    20A     -0.899457    21A     -0.893776
      22A     -0.801799    23A     -0.784131    24A     -0.726864
      25A     -0.702893    26A     -0.685344    27A     -0.646389
      28A     -0.638591    29A     -0.607075    30A     -0.592977
      31A     -0.586825    32A     -0.579134    33A     -0.569896
      34A     -0.556306    35A     -0.542684    36A     -0.481314
      37A     -0.436181    38A     -0.424324    39A     -0.412675
      40A     -0.396254    41A     -0.377895    42A     -0.298769

  @DF-RHF Final Energy:  -525.55679014885231

   => Energetics <=

    Nuclear Repulsion Energy =            654.0779974092911289
    One-Electron Energy =               -2010.6143459865386376
    Two-Electron Energy =                 830.9795584283951939
    Total Energy =                       -525.5567901488523148
  Basis Set: (AUG-CC-PVTZ AUX)
    Blend: AUG-CC-PVTZ-RI
    Molecular point group: c1

    Geometry (in Angstrom), charge = 0, multiplicity = 1:

       Center              X                  Y                   Z               Mass
    ------------   -----------------  -----------------  -----------------  -----------------
         N           -1.738988252578     0.683078794344     0.089764932522    14.003074004430
         N           -1.442151252578    -1.526462205656    -0.179049067478    14.003074004430
         N            1.103730747422     1.059413794344    -0.287359067478    14.003074004430
         N            1.357490747422    -1.266879205656     0.282749932522    14.003074004430
         C           -0.828762252578    -0.345694205656    -0.020887067478    12.000000000000
         C            0.622668747422    -0.170206205656    -0.002182067478    12.000000000000
         C           -2.985013252578     0.115919794344    -0.001845067478    12.000000000000
         C           -2.774572252578    -1.239867205656    -0.168467067478    12.000000000000
         C            2.440213747422     1.190169794344    -0.284053067478    12.000000000000
         C            2.686076747422    -1.103383205656     0.256640932522    12.000000000000
         C            3.291765747422     0.121750794344    -0.024563067478    12.000000000000
         H           -3.881796852578     0.732452594344    -0.080245467478     1.007825032230
         H           -3.519247252578    -2.017015205656    -0.283147067478     1.007825032230
         H            2.825427747422     2.183692794344    -0.508654067478     1.007825032230
         H            3.279735747422    -1.988819205656     0.479409932522     1.007825032230
         H            4.370979747422     0.236324794344    -0.035366067478     1.007825032230
         C           -1.504498252578     2.108855794344     0.300497932522    12.000000000000
         H           -0.807437252578     2.255668794344     1.124711932522     1.007825032230
         H           -1.086807252578     2.565327794344    -0.595711067478     1.007825032230
         H           -2.464294252578     2.565812794344     0.547027932522     1.007825032230

  Basis Set: AUG-CC-PVTZ
    Blend: AUG-CC-PVTZ
  Basis Set: (AUG-CC-PVTZ AUX)
    Blend: AUG-CC-PVTZ-JKFIT
	 Reference Energy          =    -525.5567901488523148 [Eh]
	 Singles Energy            =      -0.0000000000000000 [Eh]
	 Same-Spin Energy          =      -0.5780425975507661 [Eh]
	 Opposite-Spin Energy      =      -1.7385002195595851 [Eh]
	 Correlation Energy        =      -2.3165428171103510 [Eh]
	 Total Energy              =    -527.8733329659626179 [Eh]

	 ================> DF-SCS-MP2 Energies <==================
	-----------------------------------------------------------
	 SCS Same-Spin Scale       =       0.3333333333333333 [-]
	 SCS Opposite-Spin Scale   =       1.2000000000000000 [-]
	 SCS Same-Spin Energy      =      -0.1926808658502554 [Eh]
	 SCS Opposite-Spin Energy  =      -2.0862002634715022 [Eh]
	 SCS Correlation Energy    =      -2.2788811293217575 [Eh]
	 SCS Total Energy          =    -527.8356712781741180 [Eh]
	-----------------------------------------------------------

  Dipole Moment: [D]
     X:     1.4266      Y:     4.1137      Z:     0.3522     Total:     4.3682

*** Psi4 exiting successfully. Buy a developer a beer!
