                               Psi4 1.4a2.dev612

  ==> Input File <==

--------------------------------------------------------------------------
#psi4
#
memory 32 gb

molecule  {
0 1
  N       -1.7314010     0.6447010     0.0841650
  N       -1.4345640    -1.5648400    -0.1846490
  N        1.1113180     1.0210360    -0.2929590
  N        1.3650780    -1.3052570     0.2771500
  C       -0.8102922    -0.4543130    -0.3179450
  C        0.6302560    -0.2085840    -0.0077820
  C       -2.9774260     0.0775420    -0.0074450
  C       -2.7669850    -1.2782450    -0.1740670
  C        2.4478010     1.1517920    -0.2896530
  C        2.6936640    -1.1417610     0.2510410
  C        3.2993530     0.0833730    -0.0301630
  H       -3.8759520     0.6750340     0.0629310
  H       -3.5116600    -2.0553930    -0.2887470
  H        2.8330150     2.1453150    -0.5142540
  H        3.2873230    -2.0271970     0.4738100
  H        4.3785670     0.1979470    -0.0409660
  C       -1.4969110     2.0704780     0.2948980
  H       -0.7998500     2.2172910     1.1191120
  H       -1.0792200     2.5269500    -0.6013110
  H       -2.4567070     2.5274350     0.5414280
units angstrom
no_reorient  #important for SAPT in psi4, default
symmetry c1  #important for SAPT in psi4, default
}

set PROPERTIES_ORIGIN ["COM"]
properties('MP2/aug-cc-pvtz', properties = ['dipole'])
--------------------------------------------------------------------------

    Molecular point group: c1
  Charge       = 0
  Multiplicity = 1
  Basis Set: AUG-CC-PVTZ
    Blend: AUG-CC-PVTZ
  Basis Set: (AUG-CC-PVTZ AUX)
    Blend: AUG-CC-PVTZ-JKFIT

    Orbital Energies [Eh]
    ---------------------

    Doubly Occupied:

       1A    -15.615454     2A    -15.578385     3A    -15.573544
       4A    -15.554547     5A    -11.333260     6A    -11.304892
       7A    -11.302077     8A    -11.298381     9A    -11.269144
      10A    -11.267629    11A    -11.250749    12A    -11.239919
      13A     -1.335180    14A     -1.304804    15A     -1.198157
      16A     -1.183888    17A     -1.085120    18A     -1.008947
      19A     -0.955607    20A     -0.897859    21A     -0.887524
      22A     -0.795432    23A     -0.782101    24A     -0.721144
      25A     -0.700932    26A     -0.684840    27A     -0.639573
      28A     -0.634863    29A     -0.607930    30A     -0.593230
      31A     -0.586552    32A     -0.577333    33A     -0.561801
      34A     -0.555880    35A     -0.536213    36A     -0.478767
      37A     -0.438834    38A     -0.423185    39A     -0.411608
      40A     -0.397495    41A     -0.375199    42A     -0.300852

  @DF-RHF Final Energy:  -525.52408910515419

   => Energetics <=

    Nuclear Repulsion Energy =            652.6570243655942249
    One-Electron Energy =               -2007.8645755541874678
    Two-Electron Energy =                 829.6834620834390535
    Total Energy =                       -525.5240891051541894
  Basis Set: (AUG-CC-PVTZ AUX)
    Blend: AUG-CC-PVTZ-RI
    Molecular point group: c1

    Geometry (in Angstrom), charge = 0, multiplicity = 1:

       Center              X                  Y                   Z               Mass
    ------------   -----------------  -----------------  -----------------  -----------------
         N           -1.739793110608     0.688464284605     0.110677364751    14.003074004430
         N           -1.442956110608    -1.521076715395    -0.158136635249    14.003074004430
         N            1.102925889392     1.064799284605    -0.266446635249    14.003074004430
         N            1.356685889392    -1.261493715395     0.303662364751    14.003074004430
         C           -0.818684310608    -0.410549715395    -0.291432635249    12.000000000000
         C            0.621863889392    -0.164820715395     0.018730364751    12.000000000000
         C           -2.985818110608     0.121305284605     0.019067364751    12.000000000000
         C           -2.775377110608    -1.234481715395    -0.147554635249    12.000000000000
         C            2.439408889392     1.195555284605    -0.263140635249    12.000000000000
         C            2.685271889392    -1.097997715395     0.277553364751    12.000000000000
         C            3.290960889392     0.127136284605    -0.003650635249    12.000000000000
         H           -3.884344110608     0.718797284605     0.089443364751     1.007825032230
         H           -3.520052110608    -2.011629715395    -0.262234635249     1.007825032230
         H            2.824622889392     2.189078284605    -0.487741635249     1.007825032230
         H            3.278930889392    -1.983433715395     0.500322364751     1.007825032230
         H            4.370174889392     0.241710284605    -0.014453635249     1.007825032230
         C           -1.505303110608     2.114241284605     0.321410364751    12.000000000000
         H           -0.808242110608     2.261054284605     1.145624364751     1.007825032230
         H           -1.087612110608     2.570713284605    -0.574798635249     1.007825032230
         H           -2.465099110608     2.571198284605     0.567940364751     1.007825032230

  Basis Set: AUG-CC-PVTZ
    Blend: AUG-CC-PVTZ
  Basis Set: (AUG-CC-PVTZ AUX)
    Blend: AUG-CC-PVTZ-JKFIT
	 Reference Energy          =    -525.5240891051541894 [Eh]
	 Singles Energy            =      -0.0000000000000000 [Eh]
	 Same-Spin Energy          =      -0.5785323934970351 [Eh]
	 Opposite-Spin Energy      =      -1.7410484435157829 [Eh]
	 Correlation Energy        =      -2.3195808370128179 [Eh]
	 Total Energy              =    -527.8436699421670255 [Eh]

	 ================> DF-SCS-MP2 Energies <==================
	-----------------------------------------------------------
	 SCS Same-Spin Scale       =       0.3333333333333333 [-]
	 SCS Opposite-Spin Scale   =       1.2000000000000000 [-]
	 SCS Same-Spin Energy      =      -0.1928441311656784 [Eh]
	 SCS Opposite-Spin Energy  =      -2.0892581322189394 [Eh]
	 SCS Correlation Energy    =      -2.2821022633846177 [Eh]
	 SCS Total Energy          =    -527.8061913685388618 [Eh]
	-----------------------------------------------------------

  Dipole Moment: [D]
     X:     1.3625      Y:     3.8397      Z:     0.3548     Total:     4.0896

*** Psi4 exiting successfully. Buy a developer a beer!
