                               Psi4 1.4a2.dev612

  ==> Input File <==

--------------------------------------------------------------------------
#psi4
#
memory 32 gb

molecule  {
0 1
  N       -1.7314010     0.6447010     0.0841650
  N       -1.4345640    -1.5648400    -0.1846490
  N        1.1113180     1.0210360    -0.2929590
  N        1.3650780    -1.3052570     0.2771500
  C       -0.8211750    -0.3840720    -0.0264870
  C        0.6302560    -0.2085840    -0.0077820
  C       -2.9774260     0.0775420    -0.0074450
  C       -2.7669850    -1.2782450    -0.1740670
  C        2.4478010     1.1517920    -0.2896530
  C        2.6936640    -1.1417610     0.2510410
  C        3.2993530     0.0833730    -0.0301630
  H       -3.8759520     0.6750340     0.0629310
  H       -3.5146597    -2.0742633    -0.1399689
  H        2.8330150     2.1453150    -0.5142540
  H        3.2873230    -2.0271970     0.4738100
  H        4.3785670     0.1979470    -0.0409660
  C       -1.4969110     2.0704780     0.2948980
  H       -0.7998500     2.2172910     1.1191120
  H       -1.0792200     2.5269500    -0.6013110
  H       -2.4567070     2.5274350     0.5414280
units angstrom
no_reorient  #important for SAPT in psi4, default
symmetry c1  #important for SAPT in psi4, default
}

set PROPERTIES_ORIGIN ["COM"]
properties('MP2/aug-cc-pvtz', properties = ['dipole'])
--------------------------------------------------------------------------

    Molecular point group: c1
  Charge       = 0
  Multiplicity = 1
  Basis Set: AUG-CC-PVTZ
    Blend: AUG-CC-PVTZ
  Basis Set: (AUG-CC-PVTZ AUX)
    Blend: AUG-CC-PVTZ-JKFIT

    Orbital Energies [Eh]
    ---------------------

    Doubly Occupied:

       1A    -15.625916     2A    -15.580113     3A    -15.575037
       4A    -15.546582     5A    -11.333462     6A    -11.305901
       7A    -11.303054     8A    -11.295526     9A    -11.273486
      10A    -11.260122    11A    -11.251961    12A    -11.241119
      13A     -1.344919    14A     -1.308173    15A     -1.198020
      16A     -1.177902    17A     -1.089031    18A     -1.007888
      19A     -0.968565    20A     -0.899372    21A     -0.893826
      22A     -0.801546    23A     -0.784539    24A     -0.726642
      25A     -0.702782    26A     -0.685668    27A     -0.646189
      28A     -0.639912    29A     -0.606973    30A     -0.592774
      31A     -0.587003    32A     -0.579354    33A     -0.569975
      34A     -0.555896    35A     -0.542275    36A     -0.481217
      37A     -0.436207    38A     -0.424307    39A     -0.412505
      40A     -0.396700    41A     -0.377531    42A     -0.298710

  @DF-RHF Final Energy:  -525.55659062359211

   => Energetics <=

    Nuclear Repulsion Energy =            654.0781324628642324
    One-Electron Energy =               -2010.6120890816762312
    Two-Electron Energy =                 830.9773659952198841
    Total Energy =                       -525.5565906235921148
  Basis Set: (AUG-CC-PVTZ AUX)
    Blend: AUG-CC-PVTZ-RI
    Molecular point group: c1

    Geometry (in Angstrom), charge = 0, multiplicity = 1:

       Center              X                  Y                   Z               Mass
    ------------   -----------------  -----------------  -----------------  -----------------
         N           -1.738958396509     0.683317481087     0.087891541500    14.003074004430
         N           -1.442121396509    -1.526223518913    -0.180922458500    14.003074004430
         N            1.103760603491     1.059652481087    -0.289232458500    14.003074004430
         N            1.357520603491    -1.266640518913     0.280876541500    14.003074004430
         C           -0.828732396509    -0.345455518913    -0.022760458500    12.000000000000
         C            0.622698603491    -0.169967518913    -0.004055458500    12.000000000000
         C           -2.984983396509     0.116158481087    -0.003718458500    12.000000000000
         C           -2.774542396509    -1.239628518913    -0.170340458500    12.000000000000
         C            2.440243603491     1.190408481087    -0.285926458500    12.000000000000
         C            2.686106603491    -1.103144518913     0.254767541500    12.000000000000
         C            3.291795603491     0.121989481087    -0.026436458500    12.000000000000
         H           -3.883509396509     0.713650481087     0.066657541500     1.007825032230
         H           -3.522217096509    -2.035646818913    -0.136242358500     1.007825032230
         H            2.825457603491     2.183931481087    -0.510527458500     1.007825032230
         H            3.279765603491    -1.988580518913     0.477536541500     1.007825032230
         H            4.371009603491     0.236563481087    -0.037239458500     1.007825032230
         C           -1.504468396509     2.109094481087     0.298624541500    12.000000000000
         H           -0.807407396509     2.255907481087     1.122838541500     1.007825032230
         H           -1.086777396509     2.565566481087    -0.597584458500     1.007825032230
         H           -2.464264396509     2.566051481087     0.545154541500     1.007825032230

  Basis Set: AUG-CC-PVTZ
    Blend: AUG-CC-PVTZ
  Basis Set: (AUG-CC-PVTZ AUX)
    Blend: AUG-CC-PVTZ-JKFIT
	 Reference Energy          =    -525.5565906235921148 [Eh]
	 Singles Energy            =      -0.0000000000000000 [Eh]
	 Same-Spin Energy          =      -0.5780301278318407 [Eh]
	 Opposite-Spin Energy      =      -1.7384715887246731 [Eh]
	 Correlation Energy        =      -2.3165017165565138 [Eh]
	 Total Energy              =    -527.8730923401486734 [Eh]

	 ================> DF-SCS-MP2 Energies <==================
	-----------------------------------------------------------
	 SCS Same-Spin Scale       =       0.3333333333333333 [-]
	 SCS Opposite-Spin Scale   =       1.2000000000000000 [-]
	 SCS Same-Spin Energy      =      -0.1926767092772802 [Eh]
	 SCS Opposite-Spin Energy  =      -2.0861659064696076 [Eh]
	 SCS Correlation Energy    =      -2.2788426157468877 [Eh]
	 SCS Total Energy          =    -527.8354332393389541 [Eh]
	-----------------------------------------------------------

  Dipole Moment: [D]
     X:     1.4200      Y:     4.1097      Z:     0.5878     Total:     4.3877

*** Psi4 exiting successfully. Buy a developer a beer!
