                               Psi4 1.4a2.dev612

  ==> Input File <==

--------------------------------------------------------------------------
#psi4
#
memory 32 gb

molecule  {
0 1
  N       -1.7314010     0.6447010     0.0841650
  N       -1.4345640    -1.5648400    -0.1846490
  N        1.1113180     1.0210360    -0.2929590
  N        1.3650780    -1.3052570     0.2771500
  C       -0.8211750    -0.3840720    -0.0264870
  C        0.6302560    -0.2085840    -0.0077820
  C       -2.9774260     0.0775420    -0.0074450
  C       -2.7669850    -1.2782450    -0.1740670
  C        2.4478010     1.1517920    -0.2896530
  C        2.6936640    -1.1417610     0.2510410
  C        3.2993530     0.0833730    -0.0301630
  H       -3.8759520     0.6750340     0.0629310
  H       -3.5116600    -2.0553930    -0.2887470
  H        2.8277564     2.2013145    -0.2706634
  H        3.2873230    -2.0271970     0.4738100
  H        4.3785670     0.1979470    -0.0409660
  C       -1.4969110     2.0704780     0.2948980
  H       -0.7998500     2.2172910     1.1191120
  H       -1.0792200     2.5269500    -0.6013110
  H       -2.4567070     2.5274350     0.5414280
units angstrom
no_reorient  #important for SAPT in psi4, default
symmetry c1  #important for SAPT in psi4, default
}

set PROPERTIES_ORIGIN ["COM"]
properties('MP2/aug-cc-pvtz', properties = ['dipole'])
--------------------------------------------------------------------------

    Molecular point group: c1
  Charge       = 0
  Multiplicity = 1
  Basis Set: AUG-CC-PVTZ
    Blend: AUG-CC-PVTZ
  Basis Set: (AUG-CC-PVTZ AUX)
    Blend: AUG-CC-PVTZ-JKFIT

    Orbital Energies [Eh]
    ---------------------

    Doubly Occupied:

       1A    -15.625922     2A    -15.580291     3A    -15.575202
       4A    -15.546674     5A    -11.333711     6A    -11.308620
       7A    -11.303225     8A    -11.295559     9A    -11.273478
      10A    -11.260030    11A    -11.252279    12A    -11.240456
      13A     -1.344948    14A     -1.308298    15A     -1.198034
      16A     -1.177971    17A     -1.088898    18A     -1.008032
      19A     -0.968674    20A     -0.897586    21A     -0.893944
      22A     -0.802239    23A     -0.783182    24A     -0.726237
      25A     -0.702646    26A     -0.685299    27A     -0.646378
      28A     -0.639311    29A     -0.608083    30A     -0.592587
      31A     -0.584657    32A     -0.577481    33A     -0.570396
      34A     -0.556613    35A     -0.542664    36A     -0.481394
      37A     -0.437052    38A     -0.423368    39A     -0.412065
      40A     -0.396364    41A     -0.377793    42A     -0.298782

  @DF-RHF Final Energy:  -525.55347024632442

   => Energetics <=

    Nuclear Repulsion Energy =            654.0239643152158351
    One-Electron Energy =               -2010.5020257177659460
    Two-Electron Energy =                 830.9245911562256879
    Total Energy =                       -525.5534702463244230
  Basis Set: (AUG-CC-PVTZ AUX)
    Blend: AUG-CC-PVTZ-RI
    Molecular point group: c1

    Geometry (in Angstrom), charge = 0, multiplicity = 1:

       Center              X                  Y                   Z               Mass
    ------------   -----------------  -----------------  -----------------  -----------------
         N           -1.738944174567     0.682846103873     0.087294605859    14.003074004430
         N           -1.442107174567    -1.526694896127    -0.181519394141    14.003074004430
         N            1.103774825433     1.059181103873    -0.289829394141    14.003074004430
         N            1.357534825433    -1.267111896127     0.280279605859    14.003074004430
         C           -0.828718174567    -0.345926896127    -0.023357394141    12.000000000000
         C            0.622712825433    -0.170438896127    -0.004652394141    12.000000000000
         C           -2.984969174567     0.115687103873    -0.004315394141    12.000000000000
         C           -2.774528174567    -1.240099896127    -0.170937394141    12.000000000000
         C            2.440257825433     1.189937103873    -0.286523394141    12.000000000000
         C            2.686120825433    -1.103615896127     0.254170605859    12.000000000000
         C            3.291809825433     0.121518103873    -0.027033394141    12.000000000000
         H           -3.883495174567     0.713179103873     0.066060605859     1.007825032230
         H           -3.519203174567    -2.017247896127    -0.285617394141     1.007825032230
         H            2.820213225433     2.239459603873    -0.267533794141     1.007825032230
         H            3.279779825433    -1.989051896127     0.476939605859     1.007825032230
         H            4.371023825433     0.236092103873    -0.037836394141     1.007825032230
         C           -1.504454174567     2.108623103873     0.298027605859    12.000000000000
         H           -0.807393174567     2.255436103873     1.122241605859     1.007825032230
         H           -1.086763174567     2.565095103873    -0.598181394141     1.007825032230
         H           -2.464250174567     2.565580103873     0.544557605859     1.007825032230

  Basis Set: AUG-CC-PVTZ
    Blend: AUG-CC-PVTZ
  Basis Set: (AUG-CC-PVTZ AUX)
    Blend: AUG-CC-PVTZ-JKFIT
	 Reference Energy          =    -525.5534702463244230 [Eh]
	 Singles Energy            =      -0.0000000000000000 [Eh]
	 Same-Spin Energy          =      -0.5782528433323177 [Eh]
	 Opposite-Spin Energy      =      -1.7389335093847778 [Eh]
	 Correlation Energy        =      -2.3171863527170955 [Eh]
	 Total Energy              =    -527.8706565990414674 [Eh]

	 ================> DF-SCS-MP2 Energies <==================
	-----------------------------------------------------------
	 SCS Same-Spin Scale       =       0.3333333333333333 [-]
	 SCS Opposite-Spin Scale   =       1.2000000000000000 [-]
	 SCS Same-Spin Energy      =      -0.1927509477774392 [Eh]
	 SCS Opposite-Spin Energy  =      -2.0867202112617331 [Eh]
	 SCS Correlation Energy    =      -2.2794711590391725 [Eh]
	 SCS Total Energy          =    -527.8329414053636128 [Eh]
	-----------------------------------------------------------

  Dipole Moment: [D]
     X:     1.3633      Y:     4.0949      Z:     0.6015     Total:     4.3576

*** Psi4 exiting successfully. Buy a developer a beer!
