                               Psi4 1.4a2.dev612

  ==> Input File <==

--------------------------------------------------------------------------
#psi4
#
memory 32 gb

molecule  {
0 1
  N       -1.7314010     0.6447010     0.0841650
  N       -1.4345640    -1.5648400    -0.1846490
  N        1.1113180     1.0210360    -0.2929590
  N        1.3650780    -1.3052570     0.2771500
  C       -0.8211750    -0.3840720    -0.0264870
  C        0.6302560    -0.2085840    -0.0077820
  C       -2.9774260     0.0775420    -0.0074450
  C       -2.7669850    -1.2782450    -0.1740670
  C        2.4478010     1.1517920    -0.2896530
  C        2.6936640    -1.1417610     0.2510410
  C        3.2993530     0.0833730    -0.0301630
  H       -3.8759520     0.6750340     0.0629310
  H       -3.5126599    -2.0616831    -0.2391543
  H        2.8330150     2.1453150    -0.5142540
  H        3.2873230    -2.0271970     0.4738100
  H        4.3785670     0.1979470    -0.0409660
  C       -1.4969110     2.0704780     0.2948980
  H       -0.7998500     2.2172910     1.1191120
  H       -1.0792200     2.5269500    -0.6013110
  H       -2.4567070     2.5274350     0.5414280
units angstrom
no_reorient  #important for SAPT in psi4, default
symmetry c1  #important for SAPT in psi4, default
}

set PROPERTIES_ORIGIN ["COM"]
properties('MP2/aug-cc-pvtz', properties = ['dipole'])
--------------------------------------------------------------------------

    Molecular point group: c1
  Charge       = 0
  Multiplicity = 1
  Basis Set: AUG-CC-PVTZ
    Blend: AUG-CC-PVTZ
  Basis Set: (AUG-CC-PVTZ AUX)
    Blend: AUG-CC-PVTZ-JKFIT

    Orbital Energies [Eh]
    ---------------------

    Doubly Occupied:

       1A    -15.625806     2A    -15.580013     3A    -15.574924
       4A    -15.546527     5A    -11.333390     6A    -11.305835
       7A    -11.302975     8A    -11.295423     9A    -11.273398
      10A    -11.259930    11A    -11.251851    12A    -11.240437
      13A     -1.344813    14A     -1.308078    15A     -1.197933
      16A     -1.177850    17A     -1.088953    18A     -1.007897
      19A     -0.968555    20A     -0.899310    21A     -0.893884
      22A     -0.802259    23A     -0.784462    24A     -0.726905
      25A     -0.702727    26A     -0.685794    27A     -0.646181
      28A     -0.639815    29A     -0.607288    30A     -0.592914
      31A     -0.586932    32A     -0.579355    33A     -0.569938
      34A     -0.556274    35A     -0.543198    36A     -0.481147
      37A     -0.436193    38A     -0.424231    39A     -0.412410
      40A     -0.396624    41A     -0.377787    42A     -0.298608

  @DF-RHF Final Energy:  -525.55781399907323

   => Energetics <=

    Nuclear Repulsion Energy =            654.1134523622645247
    One-Electron Energy =               -2010.6848795076841725
    Two-Electron Energy =                 831.0136131463464153
    Total Energy =                       -525.5578139990732325
  Basis Set: (AUG-CC-PVTZ AUX)
    Blend: AUG-CC-PVTZ-RI
    Molecular point group: c1

    Geometry (in Angstrom), charge = 0, multiplicity = 1:

       Center              X                  Y                   Z               Mass
    ------------   -----------------  -----------------  -----------------  -----------------
         N           -1.738970987169     0.683238276659     0.088516008742    14.003074004430
         N           -1.442133987169    -1.526302723341    -0.180297991258    14.003074004430
         N            1.103748012831     1.059573276659    -0.288607991258    14.003074004430
         N            1.357508012831    -1.266719723341     0.281501008742    14.003074004430
         C           -0.828744987169    -0.345534723341    -0.022135991258    12.000000000000
         C            0.622686012831    -0.170046723341    -0.003430991258    12.000000000000
         C           -2.984995987169     0.116079276659    -0.003093991258    12.000000000000
         C           -2.774554987169    -1.239707723341    -0.169715991258    12.000000000000
         C            2.440231012831     1.190329276659    -0.285301991258    12.000000000000
         C            2.686094012831    -1.103223723341     0.255392008742    12.000000000000
         C            3.291783012831     0.121910276659    -0.025811991258    12.000000000000
         H           -3.883521987169     0.713571276659     0.067282008742     1.007825032230
         H           -3.520229887169    -2.023145823341    -0.234803291258     1.007825032230
         H            2.825445012831     2.183852276659    -0.509902991258     1.007825032230
         H            3.279753012831    -1.988659723341     0.478161008742     1.007825032230
         H            4.370997012831     0.236484276659    -0.036614991258     1.007825032230
         C           -1.504480987169     2.109015276659     0.299249008742    12.000000000000
         H           -0.807419987169     2.255828276659     1.123463008742     1.007825032230
         H           -1.086789987169     2.565487276659    -0.596959991258     1.007825032230
         H           -2.464276987169     2.565972276659     0.545779008742     1.007825032230

  Basis Set: AUG-CC-PVTZ
    Blend: AUG-CC-PVTZ
  Basis Set: (AUG-CC-PVTZ AUX)
    Blend: AUG-CC-PVTZ-JKFIT
	 Reference Energy          =    -525.5578139990732325 [Eh]
	 Singles Energy            =      -0.0000000000000000 [Eh]
	 Same-Spin Energy          =      -0.5779731410440685 [Eh]
	 Opposite-Spin Energy      =      -1.7383388356577580 [Eh]
	 Correlation Energy        =      -2.3163119767018268 [Eh]
	 Total Energy              =    -527.8741259757750868 [Eh]

	 ================> DF-SCS-MP2 Energies <==================
	-----------------------------------------------------------
	 SCS Same-Spin Scale       =       0.3333333333333333 [-]
	 SCS Opposite-Spin Scale   =       1.2000000000000000 [-]
	 SCS Same-Spin Energy      =      -0.1926577136813561 [Eh]
	 SCS Opposite-Spin Energy  =      -2.0860066027893094 [Eh]
	 SCS Correlation Energy    =      -2.2786643164706657 [Eh]
	 SCS Total Energy          =    -527.8364783155439000 [Eh]
	-----------------------------------------------------------

  Dipole Moment: [D]
     X:     1.3969      Y:     4.1056      Z:     0.5154     Total:     4.3672

*** Psi4 exiting successfully. Buy a developer a beer!
