                               Psi4 1.4a2.dev612

  ==> Input File <==

--------------------------------------------------------------------------
#psi4
#
memory 32 gb

molecule  {
0 1
  N       -1.7314010     0.6447010     0.0841650
  N       -1.4345640    -1.5648400    -0.1846490
  N        1.1113180     1.0210360    -0.2929590
  N        1.3650780    -1.3052570     0.2771500
  C       -0.8211750    -0.3840720    -0.0264870
  C        0.6294699    -0.2268033     0.1411053
  C       -2.9774260     0.0775420    -0.0074450
  C       -2.7669850    -1.2782450    -0.1740670
  C        2.4478010     1.1517920    -0.2896530
  C        2.6936640    -1.1417610     0.2510410
  C        3.2993530     0.0833730    -0.0301630
  H       -3.8759520     0.6750340     0.0629310
  H       -3.5116600    -2.0553930    -0.2887470
  H        2.8330150     2.1453150    -0.5142540
  H        3.2873230    -2.0271970     0.4738100
  H        4.3785670     0.1979470    -0.0409660
  C       -1.4969110     2.0704780     0.2948980
  H       -0.7998500     2.2172910     1.1191120
  H       -1.0792200     2.5269500    -0.6013110
  H       -2.4567070     2.5274350     0.5414280
units angstrom
no_reorient  #important for SAPT in psi4, default
symmetry c1  #important for SAPT in psi4, default
}

set PROPERTIES_ORIGIN ["COM"]
properties('MP2/aug-cc-pvtz', properties = ['dipole'])
--------------------------------------------------------------------------

    Molecular point group: c1
  Charge       = 0
  Multiplicity = 1
  Basis Set: AUG-CC-PVTZ
    Blend: AUG-CC-PVTZ
  Basis Set: (AUG-CC-PVTZ AUX)
    Blend: AUG-CC-PVTZ-JKFIT

    Orbital Energies [Eh]
    ---------------------

    Doubly Occupied:

       1A    -15.625144     2A    -15.583161     3A    -15.574650
       4A    -15.545654     5A    -11.334737     6A    -11.304891
       7A    -11.304257     8A    -11.296078     9A    -11.272816
      10A    -11.259258    11A    -11.253022    12A    -11.239950
      13A     -1.343954    14A     -1.307683    15A     -1.196250
      16A     -1.177235    17A     -1.088102    18A     -1.007158
      19A     -0.967890    20A     -0.901324    21A     -0.890118
      22A     -0.801621    23A     -0.782772    24A     -0.726400
      25A     -0.701593    26A     -0.685295    27A     -0.646442
      28A     -0.639027    29A     -0.609243    30A     -0.593204
      31A     -0.586261    32A     -0.575955    33A     -0.569968
      34A     -0.555922    35A     -0.540907    36A     -0.481930
      37A     -0.436950    38A     -0.426207    39A     -0.408634
      40A     -0.394366    41A     -0.377785    42A     -0.298019

  @DF-RHF Final Energy:  -525.54604965396254

   => Energetics <=

    Nuclear Repulsion Energy =            653.7588896779302559
    One-Electron Energy =               -2009.9862090429994623
    Two-Electron Energy =                 830.6812697111066655
    Total Energy =                       -525.5460496539625410
  Basis Set: (AUG-CC-PVTZ AUX)
    Blend: AUG-CC-PVTZ-RI
    Molecular point group: c1

    Geometry (in Angstrom), charge = 0, multiplicity = 1:

       Center              X                  Y                   Z               Mass
    ------------   -----------------  -----------------  -----------------  -----------------
         N           -1.738918352584     0.684564482609     0.077666919497    14.003074004430
         N           -1.442081352584    -1.524976517391    -0.191147080503    14.003074004430
         N            1.103800647416     1.060899482609    -0.299457080503    14.003074004430
         N            1.357560647416    -1.265393517391     0.270651919497    14.003074004430
         C           -0.828692352584    -0.344208517391    -0.032985080503    12.000000000000
         C            0.621952547416    -0.186939817391     0.134607219497    12.000000000000
         C           -2.984943352584     0.117405482609    -0.013943080503    12.000000000000
         C           -2.774502352584    -1.238381517391    -0.180565080503    12.000000000000
         C            2.440283647416     1.191655482609    -0.296151080503    12.000000000000
         C            2.686146647416    -1.101897517391     0.244542919497    12.000000000000
         C            3.291835647416     0.123236482609    -0.036661080503    12.000000000000
         H           -3.883469352584     0.714897482609     0.056432919497     1.007825032230
         H           -3.519177352584    -2.015529517391    -0.295245080503     1.007825032230
         H            2.825497647416     2.185178482609    -0.520752080503     1.007825032230
         H            3.279805647416    -1.987333517391     0.467311919497     1.007825032230
         H            4.371049647416     0.237810482609    -0.047464080503     1.007825032230
         C           -1.504428352584     2.110341482609     0.288399919497    12.000000000000
         H           -0.807367352584     2.257154482609     1.112613919497     1.007825032230
         H           -1.086737352584     2.566813482609    -0.607809080503     1.007825032230
         H           -2.464224352584     2.567298482609     0.534929919497     1.007825032230

  Basis Set: AUG-CC-PVTZ
    Blend: AUG-CC-PVTZ
  Basis Set: (AUG-CC-PVTZ AUX)
    Blend: AUG-CC-PVTZ-JKFIT
	 Reference Energy          =    -525.5460496539625410 [Eh]
	 Singles Energy            =      -0.0000000000000000 [Eh]
	 Same-Spin Energy          =      -0.5785569469623739 [Eh]
	 Opposite-Spin Energy      =      -1.7399144577188548 [Eh]
	 Correlation Energy        =      -2.3184714046812287 [Eh]
	 Total Energy              =    -527.8645210586437315 [Eh]

	 ================> DF-SCS-MP2 Energies <==================
	-----------------------------------------------------------
	 SCS Same-Spin Scale       =       0.3333333333333333 [-]
	 SCS Opposite-Spin Scale   =       1.2000000000000000 [-]
	 SCS Same-Spin Energy      =      -0.1928523156541246 [Eh]
	 SCS Opposite-Spin Energy  =      -2.0878973492626258 [Eh]
	 SCS Correlation Energy    =      -2.2807496649167502 [Eh]
	 SCS Total Energy          =    -527.8267993188792389 [Eh]
	-----------------------------------------------------------

  Dipole Moment: [D]
     X:     1.4594      Y:     4.0757      Z:     0.5957     Total:     4.3699

*** Psi4 exiting successfully. Buy a developer a beer!
