                               Psi4 1.4a2.dev612

  ==> Input File <==

--------------------------------------------------------------------------
#psi4
#
memory 32 gb

molecule  {
0 1
  N       -1.7314010     0.6447010     0.0841650
  N       -1.4345640    -1.5648400    -0.1846490
  N        1.1113180     1.0210360    -0.2929590
  N        1.3650780    -1.3052570     0.2771500
  C       -0.8211750    -0.3840720    -0.0264870
  C        0.6302560    -0.2085840    -0.0077820
  C       -2.9774260     0.0775420    -0.0074450
  C       -2.7669850    -1.2782450    -0.1740670
  C        2.4478010     1.1517920    -0.2896530
  C        2.6936640    -1.1417610     0.2510410
  C        3.2993530     0.0833730    -0.0301630
  H       -3.8759520     0.6750340     0.0629310
  H       -3.5116600    -2.0553930    -0.2887470
  H        2.8288081     2.1901146    -0.3193815
  H        3.2873230    -2.0271970     0.4738100
  H        4.3785670     0.1979470    -0.0409660
  C       -1.4969110     2.0704780     0.2948980
  H       -0.7998500     2.2172910     1.1191120
  H       -1.0792200     2.5269500    -0.6013110
  H       -2.4567070     2.5274350     0.5414280
units angstrom
no_reorient  #important for SAPT in psi4, default
symmetry c1  #important for SAPT in psi4, default
}

set PROPERTIES_ORIGIN ["COM"]
properties('MP2/aug-cc-pvtz', properties = ['dipole'])
--------------------------------------------------------------------------

    Molecular point group: c1
  Charge       = 0
  Multiplicity = 1
  Basis Set: AUG-CC-PVTZ
    Blend: AUG-CC-PVTZ
  Basis Set: (AUG-CC-PVTZ AUX)
    Blend: AUG-CC-PVTZ-JKFIT

    Orbital Energies [Eh]
    ---------------------

    Doubly Occupied:

       1A    -15.625882     2A    -15.580165     3A    -15.575083
       4A    -15.546626     5A    -11.333593     6A    -11.307633
       7A    -11.303131     8A    -11.295509     9A    -11.273447
      10A    -11.259992    11A    -11.252112    12A    -11.240422
      13A     -1.344898    14A     -1.308208    15A     -1.197986
      16A     -1.177928    17A     -1.088909    18A     -1.007986
      19A     -0.968633    20A     -0.898163    21A     -0.893937
      22A     -0.802282    23A     -0.783631    24A     -0.726476
      25A     -0.702656    26A     -0.685485    27A     -0.646325
      28A     -0.639464    29A     -0.608165    30A     -0.592605
      31A     -0.584986    32A     -0.577998    33A     -0.570726
      34A     -0.556565    35A     -0.542840    36A     -0.481296
      37A     -0.436841    38A     -0.423448    39A     -0.412181
      40A     -0.396535    41A     -0.377809    42A     -0.298720

  @DF-RHF Final Energy:  -525.55515955436886

   => Energetics <=

    Nuclear Repulsion Energy =            654.0597560913839743
    One-Electron Energy =               -2010.5752740194873240
    Two-Electron Energy =                 830.9603583737343797
    Total Energy =                       -525.5551595543688563
  Basis Set: (AUG-CC-PVTZ AUX)
    Blend: AUG-CC-PVTZ-RI
    Molecular point group: c1

    Geometry (in Angstrom), charge = 0, multiplicity = 1:

       Center              X                  Y                   Z               Mass
    ------------   -----------------  -----------------  -----------------  -----------------
         N           -1.738950796027     0.682916617987     0.087601333033    14.003074004430
         N           -1.442113796027    -1.526624382013    -0.181212666967    14.003074004430
         N            1.103768203973     1.059251617987    -0.289522666967    14.003074004430
         N            1.357528203973    -1.267041382013     0.280586333033    14.003074004430
         C           -0.828724796027    -0.345856382013    -0.023050666967    12.000000000000
         C            0.622706203973    -0.170368382013    -0.004345666967    12.000000000000
         C           -2.984975796027     0.115757617987    -0.004008666967    12.000000000000
         C           -2.774534796027    -1.240029382013    -0.170630666967    12.000000000000
         C            2.440251203973     1.190007617987    -0.286216666967    12.000000000000
         C            2.686114203973    -1.103545382013     0.254477333033    12.000000000000
         C            3.291803203973     0.121588617987    -0.026726666967    12.000000000000
         H           -3.883501796027     0.713249617987     0.066367333033     1.007825032230
         H           -3.519209796027    -2.017177382013    -0.285310666967     1.007825032230
         H            2.821258303973     2.228330217987    -0.315945166967     1.007825032230
         H            3.279773203973    -1.988981382013     0.477246333033     1.007825032230
         H            4.371017203973     0.236162617987    -0.037529666967     1.007825032230
         C           -1.504460796027     2.108693617987     0.298334333033    12.000000000000
         H           -0.807399796027     2.255506617987     1.122548333033     1.007825032230
         H           -1.086769796027     2.565165617987    -0.597874666967     1.007825032230
         H           -2.464256796027     2.565650617987     0.544864333033     1.007825032230

  Basis Set: AUG-CC-PVTZ
    Blend: AUG-CC-PVTZ
  Basis Set: (AUG-CC-PVTZ AUX)
    Blend: AUG-CC-PVTZ-JKFIT
	 Reference Energy          =    -525.5551595543688563 [Eh]
	 Singles Energy            =      -0.0000000000000000 [Eh]
	 Same-Spin Energy          =      -0.5781509791852195 [Eh]
	 Opposite-Spin Energy      =      -1.7387073672978175 [Eh]
	 Correlation Energy        =      -2.3168583464830368 [Eh]
	 Total Energy              =    -527.8720179008519153 [Eh]

	 ================> DF-SCS-MP2 Energies <==================
	-----------------------------------------------------------
	 SCS Same-Spin Scale       =       0.3333333333333333 [-]
	 SCS Opposite-Spin Scale   =       1.2000000000000000 [-]
	 SCS Same-Spin Energy      =      -0.1927169930617398 [Eh]
	 SCS Opposite-Spin Energy  =      -2.0864488407573809 [Eh]
	 SCS Correlation Energy    =      -2.2791658338191207 [Eh]
	 SCS Total Energy          =    -527.8343253881879491 [Eh]
	-----------------------------------------------------------

  Dipole Moment: [D]
     X:     1.3736      Y:     4.1041      Z:     0.5763     Total:     4.3660

*** Psi4 exiting successfully. Buy a developer a beer!
