                               Psi4 1.4a2.dev612

  ==> Input File <==

--------------------------------------------------------------------------
#psi4
#
memory 32 gb

molecule  {
0 1
  N       -1.7314010     0.6447010     0.0841650
  N       -1.4345640    -1.5648400    -0.1846490
  N        1.1113180     1.0210360    -0.2929590
  N        1.3650780    -1.3052570     0.2771500
  C       -0.8211750    -0.3840720    -0.0264870
  C        0.6302560    -0.2085840    -0.0077820
  C       -2.9774260     0.0775420    -0.0074450
  C       -2.7669850    -1.2782450    -0.1740670
  C        2.4478010     1.1517920    -0.2896530
  C        2.6936640    -1.1417610     0.2510410
  C        3.2993530     0.0833730    -0.0301630
  H       -3.8753712     0.6813809     0.0133389
  H       -3.5116600    -2.0553930    -0.2887470
  H        2.8330150     2.1453150    -0.5142540
  H        3.2873230    -2.0271970     0.4738100
  H        4.3785670     0.1979470    -0.0409660
  C       -1.4969110     2.0704780     0.2948980
  H       -0.7998500     2.2172910     1.1191120
  H       -1.0792200     2.5269500    -0.6013110
  H       -2.4567070     2.5274350     0.5414280
units angstrom
no_reorient  #important for SAPT in psi4, default
symmetry c1  #important for SAPT in psi4, default
}

set PROPERTIES_ORIGIN ["COM"]
properties('MP2/aug-cc-pvtz', properties = ['dipole'])
--------------------------------------------------------------------------

    Molecular point group: c1
  Charge       = 0
  Multiplicity = 1
  Basis Set: AUG-CC-PVTZ
    Blend: AUG-CC-PVTZ
  Basis Set: (AUG-CC-PVTZ AUX)
    Blend: AUG-CC-PVTZ-JKFIT

    Orbital Energies [Eh]
    ---------------------

    Doubly Occupied:

       1A    -15.625763     2A    -15.580044     3A    -15.574931
       4A    -15.546502     5A    -11.333385     6A    -11.305850
       7A    -11.302973     8A    -11.295423     9A    -11.273350
      10A    -11.259937    11A    -11.251875    12A    -11.240361
      13A     -1.344790    14A     -1.308083    15A     -1.197941
      16A     -1.177834    17A     -1.088960    18A     -1.007866
      19A     -0.968537    20A     -0.899322    21A     -0.893877
      22A     -0.802278    23A     -0.784418    24A     -0.726926
      25A     -0.702748    26A     -0.685756    27A     -0.646146
      28A     -0.639687    29A     -0.607342    30A     -0.592926
      31A     -0.586986    32A     -0.579394    33A     -0.569893
      34A     -0.556308    35A     -0.543137    36A     -0.481168
      37A     -0.436181    38A     -0.424228    39A     -0.412459
      40A     -0.396496    41A     -0.377857    42A     -0.298611

  @DF-RHF Final Energy:  -525.55783827195387

   => Energetics <=

    Nuclear Repulsion Energy =            654.1137551627537050
    One-Electron Energy =               -2010.6860798488557975
    Two-Electron Energy =                 831.0144864141482230
    Total Energy =                       -525.5578382719538695
  Basis Set: (AUG-CC-PVTZ AUX)
    Blend: AUG-CC-PVTZ-RI
    Molecular point group: c1

    Geometry (in Angstrom), charge = 0, multiplicity = 1:

       Center              X                  Y                   Z               Mass
    ------------   -----------------  -----------------  -----------------  -----------------
         N           -1.738980939191     0.683158714622     0.089140472206    14.003074004430
         N           -1.442143939191    -1.526382285378    -0.179673527794    14.003074004430
         N            1.103738060809     1.059493714622    -0.287983527794    14.003074004430
         N            1.357498060809    -1.266799285378     0.282125472206    14.003074004430
         C           -0.828754939191    -0.345614285378    -0.021511527794    12.000000000000
         C            0.622676060809    -0.170126285378    -0.002806527794    12.000000000000
         C           -2.985005939191     0.115999714622    -0.002469527794    12.000000000000
         C           -2.774564939191    -1.239787285378    -0.169091527794    12.000000000000
         C            2.440221060809     1.190249714622    -0.284677527794    12.000000000000
         C            2.686084060809    -1.103303285378     0.256016472206    12.000000000000
         C            3.291773060809     0.121830714622    -0.025187527794    12.000000000000
         H           -3.882951139191     0.719838614622     0.018314372206     1.007825032230
         H           -3.519239939191    -2.016935285378    -0.283771527794     1.007825032230
         H            2.825435060809     2.183772714622    -0.509278527794     1.007825032230
         H            3.279743060809    -1.988739285378     0.478785472206     1.007825032230
         H            4.370987060809     0.236404714622    -0.035990527794     1.007825032230
         C           -1.504490939191     2.108935714622     0.299873472206    12.000000000000
         H           -0.807429939191     2.255748714622     1.124087472206     1.007825032230
         H           -1.086799939191     2.565407714622    -0.596335527794     1.007825032230
         H           -2.464286939191     2.565892714622     0.546403472206     1.007825032230

  Basis Set: AUG-CC-PVTZ
    Blend: AUG-CC-PVTZ
  Basis Set: (AUG-CC-PVTZ AUX)
    Blend: AUG-CC-PVTZ-JKFIT
	 Reference Energy          =    -525.5578382719538695 [Eh]
	 Singles Energy            =      -0.0000000000000000 [Eh]
	 Same-Spin Energy          =      -0.5779749204254385 [Eh]
	 Opposite-Spin Energy      =      -1.7383453294550317 [Eh]
	 Correlation Energy        =      -2.3163202498804703 [Eh]
	 Total Energy              =    -527.8741585218343744 [Eh]

	 ================> DF-SCS-MP2 Energies <==================
	-----------------------------------------------------------
	 SCS Same-Spin Scale       =       0.3333333333333333 [-]
	 SCS Opposite-Spin Scale   =       1.2000000000000000 [-]
	 SCS Same-Spin Energy      =      -0.1926583068084795 [Eh]
	 SCS Opposite-Spin Energy  =      -2.0860143953460382 [Eh]
	 SCS Correlation Energy    =      -2.2786727021545179 [Eh]
	 SCS Total Energy          =    -527.8365109741083643 [Eh]
	-----------------------------------------------------------

  Dipole Moment: [D]
     X:     1.3986      Y:     4.1131      Z:     0.4373     Total:     4.3663

*** Psi4 exiting successfully. Buy a developer a beer!
