                               Psi4 1.4a2.dev612

  ==> Input File <==

--------------------------------------------------------------------------
#psi4
#
memory 32 gb

molecule  {
0 1
  N       -1.7314010     0.6447010     0.0841650
  N       -1.4345640    -1.5648400    -0.1846490
  N        1.1113180     1.0210360    -0.2929590
  N        1.3650780    -1.3052570     0.2771500
  C       -0.8211750    -0.3840720    -0.0264870
  C        0.6302560    -0.2085840    -0.0077820
  C       -2.9774260     0.0775420    -0.0074450
  C       -2.7669850    -1.2782450    -0.1740670
  C        2.4478010     1.1517920    -0.2896530
  C        2.6936640    -1.1417610     0.2510410
  C        3.2993530     0.0833730    -0.0301630
  H       -3.8759520     0.6750340     0.0629310
  H       -3.5176594    -2.0931335     0.0088091
  H        2.8330150     2.1453150    -0.5142540
  H        3.2873230    -2.0271970     0.4738100
  H        4.3785670     0.1979470    -0.0409660
  C       -1.4969110     2.0704780     0.2948980
  H       -0.7998500     2.2172910     1.1191120
  H       -1.0792200     2.5269500    -0.6013110
  H       -2.4567070     2.5274350     0.5414280
units angstrom
no_reorient  #important for SAPT in psi4, default
symmetry c1  #important for SAPT in psi4, default
}

set PROPERTIES_ORIGIN ["COM"]
properties('MP2/aug-cc-pvtz', properties = ['dipole'])
--------------------------------------------------------------------------

    Molecular point group: c1
  Charge       = 0
  Multiplicity = 1
  Basis Set: AUG-CC-PVTZ
    Blend: AUG-CC-PVTZ
  Basis Set: (AUG-CC-PVTZ AUX)
    Blend: AUG-CC-PVTZ-JKFIT

    Orbital Energies [Eh]
    ---------------------

    Doubly Occupied:

       1A    -15.626390     2A    -15.580392     3A    -15.575322
       4A    -15.546852     5A    -11.333695     6A    -11.306103
       7A    -11.303271     8A    -11.295913     9A    -11.273798
      10A    -11.260878    11A    -11.252233    12A    -11.243443
      13A     -1.345336    14A     -1.308456    15A     -1.198272
      16A     -1.178138    17A     -1.089254    18A     -1.007925
      19A     -0.968654    20A     -0.899551    21A     -0.893659
      22A     -0.799452    23A     -0.784800    24A     -0.725886
      25A     -0.702842    26A     -0.685249    27A     -0.646525
      28A     -0.640230    29A     -0.606104    30A     -0.592334
      31A     -0.587197    32A     -0.579524    33A     -0.570020
      34A     -0.554850    35A     -0.538473    36A     -0.481426
      37A     -0.436302    38A     -0.424527    39A     -0.412774
      40A     -0.396961    41A     -0.376948    42A     -0.298944

  @DF-RHF Final Energy:  -525.55194724184310

   => Energetics <=

    Nuclear Repulsion Energy =            653.9637175222550241
    One-Electron Energy =               -2010.3735217526800625
    Two-Electron Energy =                 830.8578569885818297
    Total Energy =                       -525.5519472418430951
  Basis Set: (AUG-CC-PVTZ AUX)
    Blend: AUG-CC-PVTZ-RI
    Molecular point group: c1

    Geometry (in Angstrom), charge = 0, multiplicity = 1:

       Center              X                  Y                   Z               Mass
    ------------   -----------------  -----------------  -----------------  -----------------
         N           -1.738939510520     0.683436287098     0.086954841267    14.003074004430
         N           -1.442102510520    -1.526104712902    -0.181859158733    14.003074004430
         N            1.103779489480     1.059771287098    -0.290169158733    14.003074004430
         N            1.357539489480    -1.266521712902     0.279939841267    14.003074004430
         C           -0.828713510520    -0.345336712902    -0.023697158733    12.000000000000
         C            0.622717489480    -0.169848712902    -0.004992158733    12.000000000000
         C           -2.984964510520     0.116277287098    -0.004655158733    12.000000000000
         C           -2.774523510520    -1.239509712902    -0.171277158733    12.000000000000
         C            2.440262489480     1.190527287098    -0.286863158733    12.000000000000
         C            2.686125489480    -1.103025712902     0.253830841267    12.000000000000
         C            3.291814489480     0.122108287098    -0.027373158733    12.000000000000
         H           -3.883490510520     0.713769287098     0.065720841267     1.007825032230
         H           -3.525197910520    -2.054398212902     0.011598941267     1.007825032230
         H            2.825476489480     2.184050287098    -0.511464158733     1.007825032230
         H            3.279784489480    -1.988461712902     0.476599841267     1.007825032230
         H            4.371028489480     0.236682287098    -0.038176158733     1.007825032230
         C           -1.504449510520     2.109213287098     0.297687841267    12.000000000000
         H           -0.807388510520     2.256026287098     1.121901841267     1.007825032230
         H           -1.086758510520     2.565685287098    -0.598521158733     1.007825032230
         H           -2.464245510520     2.566170287098     0.544217841267     1.007825032230

  Basis Set: AUG-CC-PVTZ
    Blend: AUG-CC-PVTZ
  Basis Set: (AUG-CC-PVTZ AUX)
    Blend: AUG-CC-PVTZ-JKFIT
	 Reference Energy          =    -525.5519472418430951 [Eh]
	 Singles Energy            =      -0.0000000000000000 [Eh]
	 Same-Spin Energy          =      -0.5782332381169710 [Eh]
	 Opposite-Spin Energy      =      -1.7390029667706968 [Eh]
	 Correlation Energy        =      -2.3172362048876680 [Eh]
	 Total Energy              =    -527.8691834467307444 [Eh]

	 ================> DF-SCS-MP2 Energies <==================
	-----------------------------------------------------------
	 SCS Same-Spin Scale       =       0.3333333333333333 [-]
	 SCS Opposite-Spin Scale   =       1.2000000000000000 [-]
	 SCS Same-Spin Energy      =      -0.1927444127056570 [Eh]
	 SCS Opposite-Spin Energy  =      -2.0868035601248360 [Eh]
	 SCS Correlation Energy    =      -2.2795479728304930 [Eh]
	 SCS Total Energy          =    -527.8314952146736232 [Eh]
	-----------------------------------------------------------

  Dipole Moment: [D]
     X:     1.4861      Y:     4.1397      Z:     0.6964     Total:     4.4532

*** Psi4 exiting successfully. Buy a developer a beer!
