                               Psi4 1.4a2.dev612

  ==> Input File <==

--------------------------------------------------------------------------
#psi4
#
memory 32 gb

molecule  {
0 1
  N       -1.7314010     0.6447010     0.0841650
  N       -1.4345640    -1.5648400    -0.1846490
  N        1.1113180     1.0210360    -0.2929590
  N        1.3650780    -1.3052570     0.2771500
  C       -0.8211750    -0.3840720    -0.0264870
  C        0.6302560    -0.2085840    -0.0077820
  C       -2.9774260     0.0775420    -0.0074450
  C       -2.7669850    -1.2782450    -0.1740670
  C        2.4478010     1.1517920    -0.2896530
  C        2.6936640    -1.1417610     0.2510410
  C        3.2993530     0.0833730    -0.0301630
  H       -3.8724672     0.7131156    -0.2346218
  H       -3.5116600    -2.0553930    -0.2887470
  H        2.8330150     2.1453150    -0.5142540
  H        3.2873230    -2.0271970     0.4738100
  H        4.3785670     0.1979470    -0.0409660
  C       -1.4969110     2.0704780     0.2948980
  H       -0.7998500     2.2172910     1.1191120
  H       -1.0792200     2.5269500    -0.6013110
  H       -2.4567070     2.5274350     0.5414280
units angstrom
no_reorient  #important for SAPT in psi4, default
symmetry c1  #important for SAPT in psi4, default
}

set PROPERTIES_ORIGIN ["COM"]
properties('MP2/aug-cc-pvtz', properties = ['dipole'])
--------------------------------------------------------------------------

    Molecular point group: c1
  Charge       = 0
  Multiplicity = 1
  Basis Set: AUG-CC-PVTZ
    Blend: AUG-CC-PVTZ
  Basis Set: (AUG-CC-PVTZ AUX)
    Blend: AUG-CC-PVTZ-JKFIT

    Orbital Energies [Eh]
    ---------------------

    Doubly Occupied:

       1A    -15.625447     2A    -15.580780     3A    -15.575628
       4A    -15.546752     5A    -11.333809     6A    -11.306320
       7A    -11.303415     8A    -11.296498     9A    -11.272830
      10A    -11.261947    11A    -11.252598    12A    -11.241364
      13A     -1.344977    14A     -1.308578    15A     -1.198482
      16A     -1.178016    17A     -1.089455    18A     -1.007069
      19A     -0.968456    20A     -0.899846    21A     -0.893500
      22A     -0.800574    23A     -0.783164    24A     -0.726753
      25A     -0.703208    26A     -0.684115    27A     -0.647157
      28A     -0.635764    29A     -0.605928    30A     -0.593186
      31A     -0.586029    32A     -0.577600    33A     -0.569984
      34A     -0.556434    35A     -0.541369    36A     -0.481711
      37A     -0.436288    38A     -0.424636    39A     -0.413180
      40A     -0.395895    41A     -0.378110    42A     -0.299206

  @DF-RHF Final Energy:  -525.55271047187068

   => Energetics <=

    Nuclear Repulsion Energy =            653.9602961880968905
    One-Electron Energy =               -2010.3738974573232099
    Two-Electron Energy =                 830.8608907973556370
    Total Energy =                       -525.5527104718706823
  Basis Set: (AUG-CC-PVTZ AUX)
    Blend: AUG-CC-PVTZ-RI
    Molecular point group: c1

    Geometry (in Angstrom), charge = 0, multiplicity = 1:

       Center              X                  Y                   Z               Mass
    ------------   -----------------  -----------------  -----------------  -----------------
         N           -1.738999222657     0.682958914242     0.090701622682    14.003074004430
         N           -1.442162222657    -1.526582085758    -0.178112377318    14.003074004430
         N            1.103719777343     1.059293914242    -0.286422377318    14.003074004430
         N            1.357479777343    -1.266999085758     0.283686622682    14.003074004430
         C           -0.828773222657    -0.345814085758    -0.019950377318    12.000000000000
         C            0.622657777343    -0.170326085758    -0.001245377318    12.000000000000
         C           -2.985024222657     0.115799914242    -0.000908377318    12.000000000000
         C           -2.774583222657    -1.239987085758    -0.167530377318    12.000000000000
         C            2.440202777343     1.190049914242    -0.283116377318    12.000000000000
         C            2.686065777343    -1.103503085758     0.257577622682    12.000000000000
         C            3.291754777343     0.121630914242    -0.023626377318    12.000000000000
         H           -3.880065422657     0.751373514242    -0.228085177318     1.007825032230
         H           -3.519258222657    -2.017135085758    -0.282210377318     1.007825032230
         H            2.825416777343     2.183572914242    -0.507717377318     1.007825032230
         H            3.279724777343    -1.988939085758     0.480346622682     1.007825032230
         H            4.370968777343     0.236204914242    -0.034429377318     1.007825032230
         C           -1.504509222657     2.108735914242     0.301434622682    12.000000000000
         H           -0.807448222657     2.255548914242     1.125648622682     1.007825032230
         H           -1.086818222657     2.565207914242    -0.594774377318     1.007825032230
         H           -2.464305222657     2.565692914242     0.547964622682     1.007825032230

  Basis Set: AUG-CC-PVTZ
    Blend: AUG-CC-PVTZ
  Basis Set: (AUG-CC-PVTZ AUX)
    Blend: AUG-CC-PVTZ-JKFIT
	 Reference Energy          =    -525.5527104718706823 [Eh]
	 Singles Energy            =      -0.0000000000000000 [Eh]
	 Same-Spin Energy          =      -0.5782767534141078 [Eh]
	 Opposite-Spin Energy      =      -1.7390714051540495 [Eh]
	 Correlation Energy        =      -2.3173481585681572 [Eh]
	 Total Energy              =    -527.8700586304388480 [Eh]

	 ================> DF-SCS-MP2 Energies <==================
	-----------------------------------------------------------
	 SCS Same-Spin Scale       =       0.3333333333333333 [-]
	 SCS Opposite-Spin Scale   =       1.2000000000000000 [-]
	 SCS Same-Spin Energy      =      -0.1927589178047026 [Eh]
	 SCS Opposite-Spin Energy  =      -2.0868856861848593 [Eh]
	 SCS Correlation Energy    =      -2.2796446039895617 [Eh]
	 SCS Total Energy          =    -527.8323550758602778 [Eh]
	-----------------------------------------------------------

  Dipole Moment: [D]
     X:     1.5036      Y:     4.0938      Z:     0.2269     Total:     4.3671

*** Psi4 exiting successfully. Buy a developer a beer!
