                               Psi4 1.4a2.dev612

  ==> Input File <==

--------------------------------------------------------------------------
#psi4
#
memory 32 gb

molecule  {
0 1
  N       -1.7314010     0.6447010     0.0841650
  N       -1.4345640    -1.5648400    -0.1846490
  N        1.1113180     1.0210360    -0.2929590
  N        1.3650780    -1.3052570     0.2771500
  C       -0.8211750    -0.3840720    -0.0264870
  C        0.6302560    -0.2085840    -0.0077820
  C       -2.9774260     0.0775420    -0.0074450
  C       -2.7669850    -1.2782450    -0.1740670
  C        2.4478010     1.1517920    -0.2896530
  C        2.6936640    -1.1417610     0.2510410
  C        3.2993530     0.0833730    -0.0301630
  H       -3.8759520     0.6750340     0.0629310
  H       -3.5116600    -2.0553930    -0.2887470
  H        2.8330150     2.1453150    -0.5142540
  H        3.2873230    -2.0271970     0.4738100
  H        4.3747619     0.2663916     0.2510971
  C       -1.4969110     2.0704780     0.2948980
  H       -0.7998500     2.2172910     1.1191120
  H       -1.0792200     2.5269500    -0.6013110
  H       -2.4567070     2.5274350     0.5414280
units angstrom
no_reorient  #important for SAPT in psi4, default
symmetry c1  #important for SAPT in psi4, default
}

set PROPERTIES_ORIGIN ["COM"]
properties('MP2/aug-cc-pvtz', properties = ['dipole'])
--------------------------------------------------------------------------

    Molecular point group: c1
  Charge       = 0
  Multiplicity = 1
  Basis Set: AUG-CC-PVTZ
    Blend: AUG-CC-PVTZ
  Basis Set: (AUG-CC-PVTZ AUX)
    Blend: AUG-CC-PVTZ-JKFIT

    Orbital Energies [Eh]
    ---------------------

    Doubly Occupied:

       1A    -15.626223     2A    -15.580173     3A    -15.575178
       4A    -15.547109     5A    -11.334201     6A    -11.306334
       7A    -11.303583     8A    -11.295841     9A    -11.273748
      10A    -11.260456    11A    -11.254956    12A    -11.240757
      13A     -1.345261    14A     -1.308497    15A     -1.198335
      16A     -1.178299    17A     -1.088348    18A     -1.007760
      19A     -0.968762    20A     -0.899576    21A     -0.892911
      22A     -0.802767    23A     -0.784859    24A     -0.727049
      25A     -0.702929    26A     -0.680915    27A     -0.646716
      28A     -0.634883    29A     -0.606015    30A     -0.592810
      31A     -0.587119    32A     -0.579091    33A     -0.570707
      34A     -0.556538    35A     -0.543874    36A     -0.480145
      37A     -0.436602    38A     -0.424753    39A     -0.412651
      40A     -0.395441    41A     -0.378235    42A     -0.298943

  @DF-RHF Final Energy:  -525.55192137346592

   => Energetics <=

    Nuclear Repulsion Energy =            653.9679806897312346
    One-Electron Energy =               -2010.3811029346595660
    Two-Electron Energy =                 830.8612008714623016
    Total Energy =                       -525.5519213734659161
  Basis Set: (AUG-CC-PVTZ AUX)
    Blend: AUG-CC-PVTZ-RI
    Molecular point group: c1

    Geometry (in Angstrom), charge = 0, multiplicity = 1:

       Center              X                  Y                   Z               Mass
    ------------   -----------------  -----------------  -----------------  -----------------
         N           -1.738953325744     0.682767750030     0.086989424971    14.003074004430
         N           -1.442116325744    -1.526773249970    -0.181824575029    14.003074004430
         N            1.103765674256     1.059102750030    -0.290134575029    14.003074004430
         N            1.357525674256    -1.267190249970     0.279974424971    14.003074004430
         C           -0.828727325744    -0.346005249970    -0.023662575029    12.000000000000
         C            0.622703674256    -0.170517249970    -0.004957575029    12.000000000000
         C           -2.984978325744     0.115608750030    -0.004620575029    12.000000000000
         C           -2.774537325744    -1.240178249970    -0.171242575029    12.000000000000
         C            2.440248674256     1.189858750030    -0.286828575029    12.000000000000
         C            2.686111674256    -1.103694249970     0.253865424971    12.000000000000
         C            3.291800674256     0.121439750030    -0.027338575029    12.000000000000
         H           -3.883504325744     0.713100750030     0.065755424971     1.007825032230
         H           -3.519212325744    -2.017326249970    -0.285922575029     1.007825032230
         H            2.825462674256     2.183381750030    -0.511429575029     1.007825032230
         H            3.279770674256    -1.989130249970     0.476634424971     1.007825032230
         H            4.367209574256     0.304458350030     0.253921524971     1.007825032230
         C           -1.504463325744     2.108544750030     0.297722424971    12.000000000000
         H           -0.807402325744     2.255357750030     1.121936424971     1.007825032230
         H           -1.086772325744     2.565016750030    -0.598486575029     1.007825032230
         H           -2.464259325744     2.565501750030     0.544252424971     1.007825032230

  Basis Set: AUG-CC-PVTZ
    Blend: AUG-CC-PVTZ
  Basis Set: (AUG-CC-PVTZ AUX)
    Blend: AUG-CC-PVTZ-JKFIT
	 Reference Energy          =    -525.5519213734659161 [Eh]
	 Singles Energy            =      -0.0000000000000000 [Eh]
	 Same-Spin Energy          =      -0.5781583804023394 [Eh]
	 Opposite-Spin Energy      =      -1.7388387426693499 [Eh]
	 Correlation Energy        =      -2.3169971230716895 [Eh]
	 Total Energy              =    -527.8689184965376171 [Eh]

	 ================> DF-SCS-MP2 Energies <==================
	-----------------------------------------------------------
	 SCS Same-Spin Scale       =       0.3333333333333333 [-]
	 SCS Opposite-Spin Scale   =       1.2000000000000000 [-]
	 SCS Same-Spin Energy      =      -0.1927194601341131 [Eh]
	 SCS Opposite-Spin Energy  =      -2.0866064912032196 [Eh]
	 SCS Correlation Energy    =      -2.2793259513373325 [Eh]
	 SCS Total Energy          =    -527.8312473248032575 [Eh]
	-----------------------------------------------------------

  Dipole Moment: [D]
     X:     1.3010      Y:     4.1399      Z:     0.6621     Total:     4.3897

*** Psi4 exiting successfully. Buy a developer a beer!
