                               Psi4 1.4a2.dev612

  ==> Input File <==

--------------------------------------------------------------------------
#psi4
#
memory 32 gb

molecule  {
0 1
  N       -1.7314010     0.6447010     0.0841650
  N       -1.4345640    -1.5648400    -0.1846490
  N        1.1113180     1.0210360    -0.2929590
  N        1.3650780    -1.3052570     0.2771500
  C       -0.8211750    -0.3840720    -0.0264870
  C        0.6302560    -0.2085840    -0.0077820
  C       -2.9774260     0.0775420    -0.0074450
  C       -2.7669850    -1.2782450    -0.1740670
  C        2.4478010     1.1517920    -0.2896530
  C        2.6936640    -1.1417610     0.2510410
  C        3.2993530     0.0833730    -0.0301630
  H       -3.8759520     0.6750340     0.0629310
  H       -3.5116600    -2.0553930    -0.2887470
  H        2.8330150     2.1453150    -0.5142540
  H        3.2873230    -2.0271970     0.4738100
  H        4.3760303     0.2435767     0.1537427
  C       -1.4969110     2.0704780     0.2948980
  H       -0.7998500     2.2172910     1.1191120
  H       -1.0792200     2.5269500    -0.6013110
  H       -2.4567070     2.5274350     0.5414280
units angstrom
no_reorient  #important for SAPT in psi4, default
symmetry c1  #important for SAPT in psi4, default
}

set PROPERTIES_ORIGIN ["COM"]
properties('MP2/aug-cc-pvtz', properties = ['dipole'])
--------------------------------------------------------------------------

    Molecular point group: c1
  Charge       = 0
  Multiplicity = 1
  Basis Set: AUG-CC-PVTZ
    Blend: AUG-CC-PVTZ
  Basis Set: (AUG-CC-PVTZ AUX)
    Blend: AUG-CC-PVTZ-JKFIT

    Orbital Energies [Eh]
    ---------------------

    Doubly Occupied:

       1A    -15.625987     2A    -15.580049     3A    -15.575028
       4A    -15.546805     5A    -11.333753     6A    -11.306030
       7A    -11.303257     8A    -11.295614     9A    -11.273561
      10A    -11.260175    11A    -11.253251    12A    -11.240538
      13A     -1.345014    14A     -1.308254    15A     -1.198101
      16A     -1.178057    17A     -1.088657    18A     -1.007834
      19A     -0.968653    20A     -0.899418    21A     -0.893425
      22A     -0.802543    23A     -0.784637    24A     -0.726975
      25A     -0.702794    26A     -0.683394    27A     -0.646484
      28A     -0.637663    29A     -0.606605    30A     -0.592809
      31A     -0.587050    32A     -0.579276    33A     -0.570392
      34A     -0.556407    35A     -0.543613    36A     -0.480686
      37A     -0.436375    38A     -0.424483    39A     -0.412507
      40A     -0.396007    41A     -0.378086    42A     -0.298742

  @DF-RHF Final Energy:  -525.55544110842743

   => Energetics <=

    Nuclear Repulsion Energy =            654.0500180473350156
    One-Electron Energy =               -2010.5529384161782218
    Two-Electron Energy =                 830.9474792604157756
    Total Energy =                       -525.5554411084274307
  Basis Set: (AUG-CC-PVTZ AUX)
    Blend: AUG-CC-PVTZ-RI
    Molecular point group: c1

    Geometry (in Angstrom), charge = 0, multiplicity = 1:

       Center              X                  Y                   Z               Mass
    ------------   -----------------  -----------------  -----------------  -----------------
         N           -1.738961311538     0.682911391712     0.087602364312    14.003074004430
         N           -1.442124311538    -1.526629608288    -0.181211635688    14.003074004430
         N            1.103757688462     1.059246391712    -0.289521635688    14.003074004430
         N            1.357517688462    -1.267046608288     0.280587364312    14.003074004430
         C           -0.828735311538    -0.345861608288    -0.023049635688    12.000000000000
         C            0.622695688462    -0.170373608288    -0.004344635688    12.000000000000
         C           -2.984986311538     0.115752391712    -0.004007635688    12.000000000000
         C           -2.774545311538    -1.240034608288    -0.170629635688    12.000000000000
         C            2.440240688462     1.190002391712    -0.286215635688    12.000000000000
         C            2.686103688462    -1.103550608288     0.254478364312    12.000000000000
         C            3.291792688462     0.121583391712    -0.026725635688    12.000000000000
         H           -3.883512311538     0.713244391712     0.066368364312     1.007825032230
         H           -3.519220311538    -2.017182608288    -0.285309635688     1.007825032230
         H            2.825454688462     2.183525391712    -0.510816635688     1.007825032230
         H            3.279762688462    -1.988986608288     0.477247364312     1.007825032230
         H            4.368469988462     0.281787091712     0.157180064312     1.007825032230
         C           -1.504471311538     2.108688391712     0.298335364312    12.000000000000
         H           -0.807410311538     2.255501391712     1.122549364312     1.007825032230
         H           -1.086780311538     2.565160391712    -0.597873635688     1.007825032230
         H           -2.464267311538     2.565645391712     0.544865364312     1.007825032230

  Basis Set: AUG-CC-PVTZ
    Blend: AUG-CC-PVTZ
  Basis Set: (AUG-CC-PVTZ AUX)
    Blend: AUG-CC-PVTZ-JKFIT
	 Reference Energy          =    -525.5554411084274307 [Eh]
	 Singles Energy            =      -0.0000000000000000 [Eh]
	 Same-Spin Energy          =      -0.5780523355002767 [Eh]
	 Opposite-Spin Energy      =      -1.7385322947563071 [Eh]
	 Correlation Energy        =      -2.3165846302565836 [Eh]
	 Total Energy              =    -527.8720257386839876 [Eh]

	 ================> DF-SCS-MP2 Energies <==================
	-----------------------------------------------------------
	 SCS Same-Spin Scale       =       0.3333333333333333 [-]
	 SCS Opposite-Spin Scale   =       1.2000000000000000 [-]
	 SCS Same-Spin Energy      =      -0.1926841118334255 [Eh]
	 SCS Opposite-Spin Energy  =      -2.0862387537075686 [Eh]
	 SCS Correlation Energy    =      -2.2789228655409941 [Eh]
	 SCS Total Energy          =    -527.8343639739683795 [Eh]
	-----------------------------------------------------------

  Dipole Moment: [D]
     X:     1.3502      Y:     4.1313      Z:     0.6024     Total:     4.3879

*** Psi4 exiting successfully. Buy a developer a beer!
