                               Psi4 1.4a2.dev612

  ==> Input File <==

--------------------------------------------------------------------------
#psi4
#
memory 32 gb

molecule  {
0 1
  N       -1.7314010     0.6447010     0.0841650
  N       -1.4345640    -1.5648400    -0.1846490
  N        1.1113180     1.0210360    -0.2929590
  N        1.3650780    -1.3052570     0.2771500
  C       -0.8211750    -0.3840720    -0.0264870
  C        0.6302560    -0.2085840    -0.0077820
  C       -2.9774260     0.0775420    -0.0074450
  C       -2.7669850    -1.2782450    -0.1740670
  C        2.4478010     1.1517920    -0.2896530
  C        2.6936640    -1.1417610     0.2510410
  C        3.2993530     0.0833730    -0.0301630
  H       -3.8759520     0.6750340     0.0629310
  H       -3.5116600    -2.0553930    -0.2887470
  H        2.8330150     2.1453150    -0.5142540
  H        3.2873230    -2.0271970     0.4738100
  H        4.3772986     0.2207619     0.0563884
  C       -1.4969110     2.0704780     0.2948980
  H       -0.7998500     2.2172910     1.1191120
  H       -1.0792200     2.5269500    -0.6013110
  H       -2.4567070     2.5274350     0.5414280
units angstrom
no_reorient  #important for SAPT in psi4, default
symmetry c1  #important for SAPT in psi4, default
}

set PROPERTIES_ORIGIN ["COM"]
properties('MP2/aug-cc-pvtz', properties = ['dipole'])
--------------------------------------------------------------------------

    Molecular point group: c1
  Charge       = 0
  Multiplicity = 1
  Basis Set: AUG-CC-PVTZ
    Blend: AUG-CC-PVTZ
  Basis Set: (AUG-CC-PVTZ AUX)
    Blend: AUG-CC-PVTZ-JKFIT

    Orbital Energies [Eh]
    ---------------------

    Doubly Occupied:

       1A    -15.625850     2A    -15.579989     3A    -15.574934
       4A    -15.546612     5A    -11.333477     6A    -11.305861
       7A    -11.303048     8A    -11.295472     9A    -11.273442
      10A    -11.259998    11A    -11.252191    12A    -11.240407
      13A     -1.344864    14A     -1.308109    15A     -1.197961
      16A     -1.177908    17A     -1.088864    18A     -1.007889
      19A     -0.968588    20A     -0.899325    21A     -0.893768
      22A     -0.802406    23A     -0.784501    24A     -0.726950
      25A     -0.702719    26A     -0.685164    27A     -0.646321
      28A     -0.639292    29A     -0.607014    30A     -0.592842
      31A     -0.586979    32A     -0.579361    33A     -0.570128
      34A     -0.556338    35A     -0.543406    36A     -0.481006
      37A     -0.436242    38A     -0.424303    39A     -0.412421
      40A     -0.396408    41A     -0.377963    42A     -0.298618

  @DF-RHF Final Energy:  -525.55735830634774

   => Energetics <=

    Nuclear Repulsion Energy =            654.1009386904941039
    One-Electron Energy =               -2010.6587121559098250
    Two-Electron Energy =                 831.0004151590679840
    Total Energy =                       -525.5573583063477372
  Basis Set: (AUG-CC-PVTZ AUX)
    Blend: AUG-CC-PVTZ-RI
    Molecular point group: c1

    Geometry (in Angstrom), charge = 0, multiplicity = 1:

       Center              X                  Y                   Z               Mass
    ------------   -----------------  -----------------  -----------------  -----------------
         N           -1.738969296704     0.683055032764     0.088215303022    14.003074004430
         N           -1.442132296704    -1.526485967236    -0.180598696978    14.003074004430
         N            1.103749703296     1.059390032764    -0.288908696978    14.003074004430
         N            1.357509703296    -1.266902967236     0.281200303022    14.003074004430
         C           -0.828743296704    -0.345717967236    -0.022436696978    12.000000000000
         C            0.622687703296    -0.170229967236    -0.003731696978    12.000000000000
         C           -2.984994296704     0.115896032764    -0.003394696978    12.000000000000
         C           -2.774553296704    -1.239890967236    -0.170016696978    12.000000000000
         C            2.440232703296     1.190146032764    -0.285602696978    12.000000000000
         C            2.686095703296    -1.103406967236     0.255091303022    12.000000000000
         C            3.291784703296     0.121727032764    -0.026112696978    12.000000000000
         H           -3.883520296704     0.713388032764     0.066981303022     1.007825032230
         H           -3.519228296704    -2.017038967236    -0.284696696978     1.007825032230
         H            2.825446703296     2.183669032764    -0.510203696978     1.007825032230
         H            3.279754703296    -1.988842967236     0.477860303022     1.007825032230
         H            4.369730303296     0.259115932764     0.060438703022     1.007825032230
         C           -1.504479296704     2.108832032764     0.298948303022    12.000000000000
         H           -0.807418296704     2.255645032764     1.123162303022     1.007825032230
         H           -1.086788296704     2.565304032764    -0.597260696978     1.007825032230
         H           -2.464275296704     2.565789032764     0.545478303022     1.007825032230

  Basis Set: AUG-CC-PVTZ
    Blend: AUG-CC-PVTZ
  Basis Set: (AUG-CC-PVTZ AUX)
    Blend: AUG-CC-PVTZ-JKFIT
	 Reference Energy          =    -525.5573583063477372 [Eh]
	 Singles Energy            =      -0.0000000000000000 [Eh]
	 Same-Spin Energy          =      -0.5779886442061314 [Eh]
	 Opposite-Spin Energy      =      -1.7383723065857226 [Eh]
	 Correlation Energy        =      -2.3163609507918541 [Eh]
	 Total Energy              =    -527.8737192571395553 [Eh]

	 ================> DF-SCS-MP2 Energies <==================
	-----------------------------------------------------------
	 SCS Same-Spin Scale       =       0.3333333333333333 [-]
	 SCS Opposite-Spin Scale   =       1.2000000000000000 [-]
	 SCS Same-Spin Energy      =      -0.1926628814020438 [Eh]
	 SCS Opposite-Spin Energy  =      -2.0860467679028671 [Eh]
	 SCS Correlation Energy    =      -2.2787096493049108 [Eh]
	 SCS Total Energy          =    -527.8360679556526520 [Eh]
	-----------------------------------------------------------

  Dipole Moment: [D]
     X:     1.3809      Y:     4.1208      Z:     0.5413     Total:     4.3796

*** Psi4 exiting successfully. Buy a developer a beer!
