                               Psi4 1.4a2.dev612

  ==> Input File <==

--------------------------------------------------------------------------
#psi4
#
memory 32 gb

molecule  {
0 1
  N       -1.7314010     0.6447010     0.0841650
  N       -1.4345640    -1.5648400    -0.1846490
  N        1.1113180     1.0210360    -0.2929590
  N        1.3650780    -1.3052570     0.2771500
  C       -0.8211750    -0.3840720    -0.0264870
  C        0.6302560    -0.2085840    -0.0077820
  C       -2.9774260     0.0775420    -0.0074450
  C       -2.7669850    -1.2782450    -0.1740670
  C        2.4478010     1.1517920    -0.2896530
  C        2.6936640    -1.1417610     0.2510410
  C        3.2993530     0.0833730    -0.0301630
  H       -3.8736288     0.7004217    -0.1354375
  H       -3.5116600    -2.0553930    -0.2887470
  H        2.8330150     2.1453150    -0.5142540
  H        3.2873230    -2.0271970     0.4738100
  H        4.3785670     0.1979470    -0.0409660
  C       -1.4969110     2.0704780     0.2948980
  H       -0.7998500     2.2172910     1.1191120
  H       -1.0792200     2.5269500    -0.6013110
  H       -2.4567070     2.5274350     0.5414280
units angstrom
no_reorient  #important for SAPT in psi4, default
symmetry c1  #important for SAPT in psi4, default
}

set PROPERTIES_ORIGIN ["COM"]
properties('MP2/aug-cc-pvtz', properties = ['dipole'])
--------------------------------------------------------------------------

    Molecular point group: c1
  Charge       = 0
  Multiplicity = 1
  Basis Set: AUG-CC-PVTZ
    Blend: AUG-CC-PVTZ
  Basis Set: (AUG-CC-PVTZ AUX)
    Blend: AUG-CC-PVTZ-JKFIT

    Orbital Energies [Eh]
    ---------------------

    Doubly Occupied:

       1A    -15.625577     2A    -15.580398     3A    -15.575253
       4A    -15.546568     5A    -11.333562     6A    -11.306067
       7A    -11.303169     8A    -11.295864     9A    -11.273097
      10A    -11.260759    11A    -11.252225    12A    -11.240758
      13A     -1.344841    14A     -1.308306    15A     -1.198187
      16A     -1.177885    17A     -1.089184    18A     -1.007487
      19A     -0.968479    20A     -0.899563    21A     -0.893695
      22A     -0.801435    23A     -0.783880    24A     -0.726826
      25A     -0.702984    26A     -0.685000    27A     -0.646634
      28A     -0.637737    29A     -0.606786    30A     -0.593030
      31A     -0.586610    32A     -0.578821    33A     -0.569915
      34A     -0.556334    35A     -0.542338    36A     -0.481423
      37A     -0.436203    38A     -0.424407    39A     -0.412821
      40A     -0.396132    41A     -0.377946    42A     -0.298888

  @DF-RHF Final Energy:  -525.55580746930332

   => Energetics <=

    Nuclear Repulsion Energy =            654.0469020102352715
    One-Electron Energy =               -2010.5512762997248046
    Two-Electron Energy =                 830.9485668201862154
    Total Energy =                       -525.5558074693033177
  Basis Set: (AUG-CC-PVTZ AUX)
    Blend: AUG-CC-PVTZ-RI
    Molecular point group: c1

    Geometry (in Angstrom), charge = 0, multiplicity = 1:

       Center              X                  Y                   Z               Mass
    ------------   -----------------  -----------------  -----------------  -----------------
         N           -1.738991909271     0.683038834520     0.090077162365    14.003074004430
         N           -1.442154909271    -1.526502165480    -0.178736837635    14.003074004430
         N            1.103727090729     1.059373834520    -0.287046837635    14.003074004430
         N            1.357487090729    -1.266919165480     0.283062162365    14.003074004430
         C           -0.828765909271    -0.345734165480    -0.020574837635    12.000000000000
         C            0.622665090729    -0.170246165480    -0.001869837635    12.000000000000
         C           -2.985016909271     0.115879834520    -0.001532837635    12.000000000000
         C           -2.774575909271    -1.239907165480    -0.168154837635    12.000000000000
         C            2.440210090729     1.190129834520    -0.283740837635    12.000000000000
         C            2.686073090729    -1.103423165480     0.256953162365    12.000000000000
         C            3.291762090729     0.121710834520    -0.024250837635    12.000000000000
         H           -3.881219709271     0.738759534520    -0.129525337635     1.007825032230
         H           -3.519250909271    -2.017055165480    -0.282834837635     1.007825032230
         H            2.825424090729     2.183652834520    -0.508341837635     1.007825032230
         H            3.279732090729    -1.988859165480     0.479722162365     1.007825032230
         H            4.370976090729     0.236284834520    -0.035053837635     1.007825032230
         C           -1.504501909271     2.108815834520     0.300810162365    12.000000000000
         H           -0.807440909271     2.255628834520     1.125024162365     1.007825032230
         H           -1.086810909271     2.565287834520    -0.595398837635     1.007825032230
         H           -2.464297909271     2.565772834520     0.547340162365     1.007825032230

  Basis Set: AUG-CC-PVTZ
    Blend: AUG-CC-PVTZ
  Basis Set: (AUG-CC-PVTZ AUX)
    Blend: AUG-CC-PVTZ-JKFIT
	 Reference Energy          =    -525.5558074693033177 [Eh]
	 Singles Energy            =      -0.0000000000000000 [Eh]
	 Same-Spin Energy          =      -0.5781037562728077 [Eh]
	 Opposite-Spin Energy      =      -1.7386438512170748 [Eh]
	 Correlation Energy        =      -2.3167476074898827 [Eh]
	 Total Energy              =    -527.8725550767932191 [Eh]

	 ================> DF-SCS-MP2 Energies <==================
	-----------------------------------------------------------
	 SCS Same-Spin Scale       =       0.3333333333333333 [-]
	 SCS Opposite-Spin Scale   =       1.2000000000000000 [-]
	 SCS Same-Spin Energy      =      -0.1927012520909359 [Eh]
	 SCS Opposite-Spin Energy  =      -2.0863726214604896 [Eh]
	 SCS Correlation Energy    =      -2.2790738735514253 [Eh]
	 SCS Total Energy          =    -527.8348813428547146 [Eh]
	-----------------------------------------------------------

  Dipole Moment: [D]
     X:     1.4478      Y:     4.1097      Z:     0.3099     Total:     4.3683

*** Psi4 exiting successfully. Buy a developer a beer!
