                               Psi4 1.4a2.dev612

  ==> Input File <==

--------------------------------------------------------------------------
#psi4
#
memory 32 gb

molecule  {
0 1
  N       -1.7314010     0.6447010     0.0841650
  N       -1.4345640    -1.5648400    -0.1846490
  N        1.1113180     1.0210360    -0.2929590
  N        1.3650780    -1.3052570     0.2771500
  C       -0.8211750    -0.3840720    -0.0264870
  C        0.6302560    -0.2085840    -0.0077820
  C       -2.9774260     0.0775420    -0.0074450
  C       -2.7669850    -1.2782450    -0.1740670
  C        2.4478010     1.1517920    -0.2896530
  C        2.6936640    -1.1417610     0.2510410
  C        3.2993530     0.0833730    -0.0301630
  H       -3.8759520     0.6750340     0.0629310
  H       -3.5156596    -2.0805533    -0.0903762
  H        2.8330150     2.1453150    -0.5142540
  H        3.2873230    -2.0271970     0.4738100
  H        4.3785670     0.1979470    -0.0409660
  C       -1.4969110     2.0704780     0.2948980
  H       -0.7998500     2.2172910     1.1191120
  H       -1.0792200     2.5269500    -0.6013110
  H       -2.4567070     2.5274350     0.5414280
units angstrom
no_reorient  #important for SAPT in psi4, default
symmetry c1  #important for SAPT in psi4, default
}

set PROPERTIES_ORIGIN ["COM"]
properties('MP2/aug-cc-pvtz', properties = ['dipole'])
--------------------------------------------------------------------------

    Molecular point group: c1
  Charge       = 0
  Multiplicity = 1
  Basis Set: AUG-CC-PVTZ
    Blend: AUG-CC-PVTZ
  Basis Set: (AUG-CC-PVTZ AUX)
    Blend: AUG-CC-PVTZ-JKFIT

    Orbital Energies [Eh]
    ---------------------

    Doubly Occupied:

       1A    -15.626034     2A    -15.580189     3A    -15.575117
       4A    -15.546646     5A    -11.333523     6A    -11.305955
       7A    -11.303113     8A    -11.295624     9A    -11.273566
      10A    -11.260313    11A    -11.252037    12A    -11.241726
      13A     -1.345024    14A     -1.308248    15A     -1.198088
      16A     -1.177960    17A     -1.089091    18A     -1.007891
      19A     -0.968584    20A     -0.899419    21A     -0.893777
      22A     -0.800963    23A     -0.784606    24A     -0.726430
      25A     -0.702803    26A     -0.685556    27A     -0.646259
      28A     -0.639995    29A     -0.606716    30A     -0.592653
      31A     -0.587057    32A     -0.579387    33A     -0.569987
      34A     -0.555597    35A     -0.541363    36A     -0.481274
      37A     -0.436231    38A     -0.424366    39A     -0.412578
      40A     -0.396768    41A     -0.377361    42A     -0.298776

  @DF-RHF Final Energy:  -525.55545814115874

   => Energetics <=

    Nuclear Repulsion Energy =            654.0477829109556751
    One-Electron Energy =               -2010.5491799652513691
    Two-Electron Energy =                 830.9459389131369562
    Total Energy =                       -525.5554581411587378
  Basis Set: (AUG-CC-PVTZ AUX)
    Blend: AUG-CC-PVTZ-RI
    Molecular point group: c1

    Geometry (in Angstrom), charge = 0, multiplicity = 1:

       Center              X                  Y                   Z               Mass
    ------------   -----------------  -----------------  -----------------  -----------------
         N           -1.738952101180     0.683357082671     0.087579307879    14.003074004430
         N           -1.442115101180    -1.526183917329    -0.181234692121    14.003074004430
         N            1.103766898820     1.059692082671    -0.289544692121    14.003074004430
         N            1.357526898820    -1.266600917329     0.280564307879    14.003074004430
         C           -0.828726101180    -0.345415917329    -0.023072692121    12.000000000000
         C            0.622704898820    -0.169927917329    -0.004367692121    12.000000000000
         C           -2.984977101180     0.116198082671    -0.004030692121    12.000000000000
         C           -2.774536101180    -1.239588917329    -0.170652692121    12.000000000000
         C            2.440249898820     1.190448082671    -0.286238692121    12.000000000000
         C            2.686112898820    -1.103104917329     0.254455307879    12.000000000000
         C            3.291801898820     0.122029082671    -0.026748692121    12.000000000000
         H           -3.883503101180     0.713690082671     0.066345307879     1.007825032230
         H           -3.523210701180    -2.041897217329    -0.086961892121     1.007825032230
         H            2.825463898820     2.183971082671    -0.510839692121     1.007825032230
         H            3.279771898820    -1.988540917329     0.477224307879     1.007825032230
         H            4.371015898820     0.236603082671    -0.037551692121     1.007825032230
         C           -1.504462101180     2.109134082671     0.298312307879    12.000000000000
         H           -0.807401101180     2.255947082671     1.122526307879     1.007825032230
         H           -1.086771101180     2.565606082671    -0.597896692121     1.007825032230
         H           -2.464258101180     2.566091082671     0.544842307879     1.007825032230

  Basis Set: AUG-CC-PVTZ
    Blend: AUG-CC-PVTZ
  Basis Set: (AUG-CC-PVTZ AUX)
    Blend: AUG-CC-PVTZ-JKFIT
	 Reference Energy          =    -525.5554581411587378 [Eh]
	 Singles Energy            =      -0.0000000000000000 [Eh]
	 Same-Spin Energy          =      -0.5780826818194746 [Eh]
	 Opposite-Spin Energy      =      -1.7386015928187661 [Eh]
	 Correlation Energy        =      -2.3166842746382406 [Eh]
	 Total Energy              =    -527.8721424157969295 [Eh]

	 ================> DF-SCS-MP2 Energies <==================
	-----------------------------------------------------------
	 SCS Same-Spin Scale       =       0.3333333333333333 [-]
	 SCS Opposite-Spin Scale   =       1.2000000000000000 [-]
	 SCS Same-Spin Energy      =      -0.1926942272731582 [Eh]
	 SCS Opposite-Spin Energy  =      -2.0863219113825191 [Eh]
	 SCS Correlation Energy    =      -2.2790161386556775 [Eh]
	 SCS Total Energy          =    -527.8344742798144580 [Eh]
	-----------------------------------------------------------

  Dipole Moment: [D]
     X:     1.4380      Y:     4.1166      Z:     0.6241     Total:     4.4050

*** Psi4 exiting successfully. Buy a developer a beer!
