                               Psi4 1.4a2.dev612

  ==> Input File <==

--------------------------------------------------------------------------
#psi4
#
memory 32 gb

molecule  {
0 1
  N       -1.7314010     0.6447010     0.0841650
  N       -1.4345640    -1.5648400    -0.1846490
  N        1.1113180     1.0210360    -0.2929590
  N        1.3650780    -1.3052570     0.2771500
  C       -0.8175474    -0.4074857    -0.1236397
  C        0.6302560    -0.2085840    -0.0077820
  C       -2.9774260     0.0775420    -0.0074450
  C       -2.7669850    -1.2782450    -0.1740670
  C        2.4478010     1.1517920    -0.2896530
  C        2.6936640    -1.1417610     0.2510410
  C        3.2993530     0.0833730    -0.0301630
  H       -3.8759520     0.6750340     0.0629310
  H       -3.5116600    -2.0553930    -0.2887470
  H        2.8330150     2.1453150    -0.5142540
  H        3.2873230    -2.0271970     0.4738100
  H        4.3785670     0.1979470    -0.0409660
  C       -1.4969110     2.0704780     0.2948980
  H       -0.7998500     2.2172910     1.1191120
  H       -1.0792200     2.5269500    -0.6013110
  H       -2.4567070     2.5274350     0.5414280
units angstrom
no_reorient  #important for SAPT in psi4, default
symmetry c1  #important for SAPT in psi4, default
}

set PROPERTIES_ORIGIN ["COM"]
properties('MP2/aug-cc-pvtz', properties = ['dipole'])
--------------------------------------------------------------------------

    Molecular point group: c1
  Charge       = 0
  Multiplicity = 1
  Basis Set: AUG-CC-PVTZ
    Blend: AUG-CC-PVTZ
  Basis Set: (AUG-CC-PVTZ AUX)
    Blend: AUG-CC-PVTZ-JKFIT

    Orbital Energies [Eh]
    ---------------------

    Doubly Occupied:

       1A    -15.621920     2A    -15.580084     3A    -15.574962
       4A    -15.547208     5A    -11.333173     6A    -11.305884
       7A    -11.303010     8A    -11.295747     9A    -11.271726
      10A    -11.261999    11A    -11.251973    12A    -11.239478
      13A     -1.341728    14A     -1.307425    15A     -1.198550
      16A     -1.181035    17A     -1.088507    18A     -1.008292
      19A     -0.964763    20A     -0.899341    21A     -0.892538
      22A     -0.800931    23A     -0.784473    24A     -0.725398
      25A     -0.702562    26A     -0.685730    27A     -0.643120
      28A     -0.639564    29A     -0.607676    30A     -0.593190
      31A     -0.587247    32A     -0.576536    33A     -0.570767
      34A     -0.556528    35A     -0.542360    36A     -0.480927
      37A     -0.437239    38A     -0.424197    39A     -0.412521
      40A     -0.397778    41A     -0.377650    42A     -0.299215

  @DF-RHF Final Energy:  -525.55479050369797

   => Energetics <=

    Nuclear Repulsion Energy =            653.9094273543651070
    One-Electron Energy =               -2010.2985293285923944
    Two-Electron Energy =                 830.8343114705293146
    Total Energy =                       -525.5547905036979728
  Basis Set: (AUG-CC-PVTZ AUX)
    Blend: AUG-CC-PVTZ-RI
    Molecular point group: c1

    Geometry (in Angstrom), charge = 0, multiplicity = 1:

       Center              X                  Y                   Z               Mass
    ------------   -----------------  -----------------  -----------------  -----------------
         N           -1.739249225201     0.684953880331     0.096111285657    14.003074004430
         N           -1.442412225201    -1.524587119669    -0.172702714343    14.003074004430
         N            1.103469774799     1.061288880331    -0.281012714343    14.003074004430
         N            1.357229774799    -1.265004119669     0.289096285657    14.003074004430
         C           -0.825395625201    -0.367232819669    -0.111693414343    12.000000000000
         C            0.622407774799    -0.168331119669     0.004164285657    12.000000000000
         C           -2.985274225201     0.117794880331     0.004501285657    12.000000000000
         C           -2.774833225201    -1.237992119669    -0.162120714343    12.000000000000
         C            2.439952774799     1.192044880331    -0.277706714343    12.000000000000
         C            2.685815774799    -1.101508119669     0.262987285657    12.000000000000
         C            3.291504774799     0.123625880331    -0.018216714343    12.000000000000
         H           -3.883800225201     0.715286880331     0.074877285657     1.007825032230
         H           -3.519508225201    -2.015140119669    -0.276800714343     1.007825032230
         H            2.825166774799     2.185567880331    -0.502307714343     1.007825032230
         H            3.279474774799    -1.986944119669     0.485756285657     1.007825032230
         H            4.370718774799     0.238199880331    -0.029019714343     1.007825032230
         C           -1.504759225201     2.110730880331     0.306844285657    12.000000000000
         H           -0.807698225201     2.257543880331     1.131058285657     1.007825032230
         H           -1.087068225201     2.567202880331    -0.589364714343     1.007825032230
         H           -2.464555225201     2.567687880331     0.553374285657     1.007825032230

  Basis Set: AUG-CC-PVTZ
    Blend: AUG-CC-PVTZ
  Basis Set: (AUG-CC-PVTZ AUX)
    Blend: AUG-CC-PVTZ-JKFIT
	 Reference Energy          =    -525.5547905036979728 [Eh]
	 Singles Energy            =      -0.0000000000000000 [Eh]
	 Same-Spin Energy          =      -0.5777086445583952 [Eh]
	 Opposite-Spin Energy      =      -1.7381540206357662 [Eh]
	 Correlation Energy        =      -2.3158626651941612 [Eh]
	 Total Energy              =    -527.8706531688920904 [Eh]

	 ================> DF-SCS-MP2 Energies <==================
	-----------------------------------------------------------
	 SCS Same-Spin Scale       =       0.3333333333333333 [-]
	 SCS Opposite-Spin Scale   =       1.2000000000000000 [-]
	 SCS Same-Spin Energy      =      -0.1925695481861317 [Eh]
	 SCS Opposite-Spin Energy  =      -2.0857848247629192 [Eh]
	 SCS Correlation Energy    =      -2.2783543729490510 [Eh]
	 SCS Total Energy          =    -527.8331448766469975 [Eh]
	-----------------------------------------------------------

  Dipole Moment: [D]
     X:     1.4365      Y:     4.0382      Z:     0.4419     Total:     4.3088

*** Psi4 exiting successfully. Buy a developer a beer!
