                               Psi4 1.4a2.dev612

  ==> Input File <==

--------------------------------------------------------------------------
#psi4
#
memory 32 gb

molecule  {
0 1
  N       -1.7314010     0.6447010     0.0841650
  N       -1.4345640    -1.5648400    -0.1846490
  N        1.1113180     1.0210360    -0.2929590
  N        1.3650780    -1.3052570     0.2771500
  C       -0.8211750    -0.3840720    -0.0264870
  C        0.6302560    -0.2085840    -0.0077820
  C       -2.9774260     0.0775420    -0.0074450
  C       -2.7669850    -1.2782450    -0.1740670
  C        2.4478010     1.1517920    -0.2896530
  C        2.6936640    -1.1417610     0.2510410
  C        3.2993530     0.0833730    -0.0301630
  H       -3.8759520     0.6750340     0.0629310
  H       -3.5116600    -2.0553930    -0.2887470
  H        2.8319633     2.1565149    -0.4655359
  H        3.2873230    -2.0271970     0.4738100
  H        4.3785670     0.1979470    -0.0409660
  C       -1.4969110     2.0704780     0.2948980
  H       -0.7998500     2.2172910     1.1191120
  H       -1.0792200     2.5269500    -0.6013110
  H       -2.4567070     2.5274350     0.5414280
units angstrom
no_reorient  #important for SAPT in psi4, default
symmetry c1  #important for SAPT in psi4, default
}

set PROPERTIES_ORIGIN ["COM"]
properties('MP2/aug-cc-pvtz', properties = ['dipole'])
--------------------------------------------------------------------------

    Molecular point group: c1
  Charge       = 0
  Multiplicity = 1
  Basis Set: AUG-CC-PVTZ
    Blend: AUG-CC-PVTZ
  Basis Set: (AUG-CC-PVTZ AUX)
    Blend: AUG-CC-PVTZ-JKFIT

    Orbital Energies [Eh]
    ---------------------

    Doubly Occupied:

       1A    -15.625818     2A    -15.579985     3A    -15.574897
       4A    -15.546543     5A    -11.333395     6A    -11.305943
       7A    -11.302971     8A    -11.295425     9A    -11.273395
      10A    -11.259933    11A    -11.251837    12A    -11.240370
      13A     -1.344817    14A     -1.308066    15A     -1.197917
      16A     -1.177858    17A     -1.088935    18A     -1.007912
      19A     -0.968565    20A     -0.899229    21A     -0.893893
      22A     -0.802361    23A     -0.784411    24A     -0.726912
      25A     -0.702689    26A     -0.685793    27A     -0.646243
      28A     -0.639766    29A     -0.607713    30A     -0.592804
      31A     -0.586399    32A     -0.579179    33A     -0.570341
      34A     -0.556403    35A     -0.543186    36A     -0.481140
      37A     -0.436328    38A     -0.423963    39A     -0.412380
      40A     -0.396684    41A     -0.377855    42A     -0.298595

  @DF-RHF Final Energy:  -525.55779707682973

   => Energetics <=

    Nuclear Repulsion Energy =            654.1167070438938254
    One-Electron Energy =               -2010.6913168638334355
    Two-Electron Energy =                 831.0168127431099947
    Total Energy =                       -525.5577970768297291
  Basis Set: (AUG-CC-PVTZ AUX)
    Blend: AUG-CC-PVTZ-RI
    Molecular point group: c1

    Geometry (in Angstrom), charge = 0, multiplicity = 1:

       Center              X                  Y                   Z               Mass
    ------------   -----------------  -----------------  -----------------  -----------------
         N           -1.738970661038     0.683128160331     0.088521515188    14.003074004430
         N           -1.442133661038    -1.526412839669    -0.180292484812    14.003074004430
         N            1.103748338962     1.059463160331    -0.288602484812    14.003074004430
         N            1.357508338962    -1.266829839669     0.281506515188    14.003074004430
         C           -0.828744661038    -0.345644839669    -0.022130484812    12.000000000000
         C            0.622686338962    -0.170156839669    -0.003425484812    12.000000000000
         C           -2.984995661038     0.115969160331    -0.003088484812    12.000000000000
         C           -2.774554661038    -1.239817839669    -0.169710484812    12.000000000000
         C            2.440231338962     1.190219160331    -0.285296484812    12.000000000000
         C            2.686094338962    -1.103333839669     0.255397515188    12.000000000000
         C            3.291783338962     0.121800160331    -0.025806484812    12.000000000000
         H           -3.883521661038     0.713461160331     0.067287515188     1.007825032230
         H           -3.519229661038    -2.016965839669    -0.284390484812     1.007825032230
         H            2.824393638962     2.194942060331    -0.461179384812     1.007825032230
         H            3.279753338962    -1.988769839669     0.478166515188     1.007825032230
         H            4.370997338962     0.236374160331    -0.036609484812     1.007825032230
         C           -1.504480661038     2.108905160331     0.299254515188    12.000000000000
         H           -0.807419661038     2.255718160331     1.123468515188     1.007825032230
         H           -1.086789661038     2.565377160331    -0.596954484812     1.007825032230
         H           -2.464276661038     2.565862160331     0.545784515188     1.007825032230

  Basis Set: AUG-CC-PVTZ
    Blend: AUG-CC-PVTZ
  Basis Set: (AUG-CC-PVTZ AUX)
    Blend: AUG-CC-PVTZ-JKFIT
	 Reference Energy          =    -525.5577970768297291 [Eh]
	 Singles Energy            =      -0.0000000000000000 [Eh]
	 Same-Spin Energy          =      -0.5779803200445390 [Eh]
	 Opposite-Spin Energy      =      -1.7383534874569371 [Eh]
	 Correlation Energy        =      -2.3163338075014761 [Eh]
	 Total Energy              =    -527.8741308843311799 [Eh]

	 ================> DF-SCS-MP2 Energies <==================
	-----------------------------------------------------------
	 SCS Same-Spin Scale       =       0.3333333333333333 [-]
	 SCS Opposite-Spin Scale   =       1.2000000000000000 [-]
	 SCS Same-Spin Energy      =      -0.1926601066815130 [Eh]
	 SCS Opposite-Spin Energy  =      -2.0860241849483243 [Eh]
	 SCS Correlation Energy    =      -2.2786842916298373 [Eh]
	 SCS Total Energy          =    -527.8364813684595447 [Eh]
	-----------------------------------------------------------

  Dipole Moment: [D]
     X:     1.3908      Y:     4.1122      Z:     0.5030     Total:     4.3701

*** Psi4 exiting successfully. Buy a developer a beer!
