                               Psi4 1.4a3.dev225

  ==> Input File <==

--------------------------------------------------------------------------
#psi4
#
memory 32 gb

molecule  {
0 1
  C       -1.1166550    -0.8391130    -0.0000170
  H       -2.0259592    -1.5224091     0.0000154
  C        0.1683650    -1.3866060     0.0000150
  H        0.2994420    -2.4661000     0.0000130
  C        1.2850220    -0.5474960    -0.0000180
  H        2.2854270    -0.9737280     0.0000080
  C        1.1166540     0.8391130     0.0000160
  H        1.9859870     1.4923730    -0.0000260
  C       -0.1683650     1.3866070    -0.0000140
  H       -0.2994410     2.4661010     0.0000400
  C       -1.2850210     0.5474950     0.0000150
  H       -2.2854280     0.9737260    -0.0000310
units angstrom
no_reorient  #important for SAPT in psi4, default
symmetry c1  #important for SAPT in psi4, default
}

set PROPERTIES_ORIGIN ["COM"]
properties('MP2/aug-cc-pvtz', properties = ['dipole'])
--------------------------------------------------------------------------

    Molecular point group: c1
  Charge       = 0
  Multiplicity = 1
  Basis Set: AUG-CC-PVTZ
    Blend: AUG-CC-PVTZ
  Basis Set: (AUG-CC-PVTZ AUX)
    Blend: AUG-CC-PVTZ-JKFIT

    Orbital Energies [Eh]
    ---------------------

    Doubly Occupied:

       1A    -11.243005     2A    -11.238432     3A    -11.238140
       4A    -11.237403     5A    -11.236906     6A    -11.236353
       7A     -1.148754     8A     -1.013940     9A     -1.012133
      10A     -0.823147    11A     -0.819977    12A     -0.705281
      13A     -0.639535    14A     -0.618654    15A     -0.587105
      16A     -0.582858    17A     -0.501807    18A     -0.494695
      19A     -0.491257    20A     -0.336888    21A     -0.336825

  @DF-RHF Final Energy:  -230.77780573063279

   => Energetics <=

    Nuclear Repulsion Energy =            202.9258802030701645
    One-Electron Energy =                -712.3211837698630688
    Two-Electron Energy =                 278.6174978361601120
    Total Energy =                       -230.7778057306327923
  Basis Set: (AUG-CC-PVTZ AUX)
    Blend: AUG-CC-PVTZ-RI
    Molecular point group: c1

    Geometry (in Angstrom), charge = 0, multiplicity = 1:

       Center              X                  Y                   Z               Mass
    ------------   -----------------  -----------------  -----------------  -----------------
         C           -1.116138836541    -0.838725129094    -0.000016789253    12.000000000000
         H           -2.025443036541    -1.522021229094     0.000015610747     1.007825032230
         C            0.168881163459    -1.386218129094     0.000015210747    12.000000000000
         H            0.299958163459    -2.465712129094     0.000013210747     1.007825032230
         C            1.285538163459    -0.547108129094    -0.000017789253    12.000000000000
         H            2.285943163459    -0.973340129094     0.000008210747     1.007825032230
         C            1.117170163459     0.839500870906     0.000016210747    12.000000000000
         H            1.986503163459     1.492760870906    -0.000025789253     1.007825032230
         C           -0.167848836541     1.386994870906    -0.000013789253    12.000000000000
         H           -0.298924836541     2.466488870906     0.000040210747     1.007825032230
         C           -1.284504836541     0.547882870906     0.000015210747    12.000000000000
         H           -2.284911836541     0.974113870906    -0.000030789253     1.007825032230

  Basis Set: AUG-CC-PVTZ
    Blend: AUG-CC-PVTZ
  Basis Set: (AUG-CC-PVTZ AUX)
    Blend: AUG-CC-PVTZ-JKFIT
	 Reference Energy          =    -230.7778057306327923 [Eh]
	 Singles Energy            =      -0.0000000000000000 [Eh]
	 Same-Spin Energy          =      -0.2555313705123077 [Eh]
	 Opposite-Spin Energy      =      -0.8191565470225834 [Eh]
	 Correlation Energy        =      -1.0746879175348911 [Eh]
	 Total Energy              =    -231.8524936481676946 [Eh]

	 ================> DF-SCS-MP2 Energies <==================
	-----------------------------------------------------------
	 SCS Same-Spin Scale       =       0.3333333333333333 [-]
	 SCS Opposite-Spin Scale   =       1.2000000000000000 [-]
	 SCS Same-Spin Energy      =      -0.0851771235041026 [Eh]
	 SCS Opposite-Spin Energy  =      -0.9829878564271001 [Eh]
	 SCS Correlation Energy    =      -1.0681649799312025 [Eh]
	 SCS Total Energy          =    -231.8459707105639893 [Eh]
	-----------------------------------------------------------

  Dipole Moment: [D]
     X:     0.0182      Y:     0.0137      Z:     0.0000     Total:     0.0228

*** Psi4 exiting successfully. Buy a developer a beer!
