                               Psi4 1.3.2 release

  ==> Input File <==

--------------------------------------------------------------------------
#psi4
#
memory 32 gb

molecule  {
0 1
  C       -0.7579540    -1.1732300     0.0000560
  H       -1.3480580    -2.0866370    -0.0000820
  C       -1.4862774     0.2477654    -0.0001086
  H       -2.4811350     0.1241100     0.0004410
  C       -0.6370740     1.2430170     0.0000510
  H       -1.1330860     2.2107530    -0.0001410
  C        0.7579480     1.1732410    -0.0000900
  H        1.3480720     2.0866270     0.0000520
  C        1.3950430    -0.0697940     0.0000920
  H        2.4811300    -0.1240910     0.0001910
  C        0.6370900    -1.2430170    -0.0000980
  H        1.1330780    -2.2107570     0.0000050
units angstrom
no_reorient  #important for SAPT in psi4, default
symmetry c1  #important for SAPT in psi4, default
}

set PROPERTIES_ORIGIN ["COM"]
properties('MP2/aug-cc-pvtz', properties = ['dipole'])
--------------------------------------------------------------------------

    Molecular point group: c1
  Charge       = 0
  Multiplicity = 1
  Basis Set: AUG-CC-PVTZ
    Blend: AUG-CC-PVTZ
  Basis Set: (AUG-CC-PVTZ AUX)
    Blend: AUG-CC-PVTZ-JKFIT

    Orbital Energies [Eh]
    ---------------------

    Doubly Occupied:

       1A    -11.252677     2A    -11.240411     3A    -11.239358
       4A    -11.237484     5A    -11.235937     6A    -11.229282
       7A     -1.142987     8A     -1.030760     9A     -0.994947
      10A     -0.837078    11A     -0.811260    12A     -0.708657
      13A     -0.662627    14A     -0.619465    15A     -0.595964
      16A     -0.569825    17A     -0.516353    18A     -0.496975
      19A     -0.455178    20A     -0.355762    21A     -0.317731

  @DF-RHF Final Energy:  -230.73877260133889

   => Energetics <=

    Nuclear Repulsion Energy =            201.7530294597783609
    One-Electron Energy =                -709.8821660183833728
    Two-Electron Energy =                 277.3903639572661177
    Total Energy =                       -230.7387726013388942
  Basis Set: (AUG-CC-PVTZ AUX)
    Blend: AUG-CC-PVTZ-RI
    Molecular point group: c1

    Geometry (in Angstrom), charge = 0, multiplicity = 1:

       Center              X                  Y                   Z               Mass
    ------------   -----------------  -----------------  -----------------  -----------------
         C           -0.743927932492    -1.200595500302     0.000064988865    12.000000000000
         H           -1.334031932492    -2.114002500302    -0.000073011135     1.007825032230
         C           -1.472251332492     0.220399899698    -0.000099611135    12.000000000000
         H           -2.467108932492     0.096744499698     0.000449988865     1.007825032230
         C           -0.623047932492     1.215651499698     0.000059988865    12.000000000000
         H           -1.119059932492     2.183387499698    -0.000132011135     1.007825032230
         C            0.771974067508     1.145875499698    -0.000081011135    12.000000000000
         H            1.362098067508     2.059261499698     0.000060988865     1.007825032230
         C            1.409069067508    -0.097159500302     0.000100988865    12.000000000000
         H            2.495156067508    -0.151456500302     0.000199988865     1.007825032230
         C            0.651116067508    -1.270382500302    -0.000089011135    12.000000000000
         H            1.147104067508    -2.238122500302     0.000013988865     1.007825032230

  Basis Set: AUG-CC-PVTZ
    Blend: AUG-CC-PVTZ
  Basis Set: (AUG-CC-PVTZ AUX)
    Blend: AUG-CC-PVTZ-JKFIT
	 Reference Energy          =    -230.7387726013388942 [Eh]
	 Singles Energy            =      -0.0000000000000000 [Eh]
	 Same-Spin Energy          =      -0.2550217482209522 [Eh]
	 Opposite-Spin Energy      =      -0.8214731947072866 [Eh]
	 Correlation Energy        =      -1.0764949429282389 [Eh]
	 Total Energy              =    -231.8152675442671296 [Eh]

	 ================> DF-SCS-MP2 Energies <==================
	-----------------------------------------------------------
	 SCS Same-Spin Scale       =       0.3333333333333333 [-]
	 SCS Opposite-Spin Scale   =       1.2000000000000000 [-]
	 SCS Same-Spin Energy      =      -0.0850072494069841 [Eh]
	 SCS Opposite-Spin Energy  =      -0.9857678336487439 [Eh]
	 SCS Correlation Energy    =      -1.0707750830557279 [Eh]
	 SCS Total Energy          =    -231.8095476843946301 [Eh]
	-----------------------------------------------------------

  Dipole Moment: [D]
     X:    -0.0171      Y:    -0.0247      Z:     0.0004     Total:     0.0300

*** Psi4 exiting successfully. Buy a developer a beer!
