                               Psi4 1.3.2 release

  ==> Input File <==

--------------------------------------------------------------------------
#psi4
#
memory 32 gb

molecule  {
0 1
  C       -0.7363575    -1.1619218     0.0000408
  H       -1.3480580    -2.0866370    -0.0000820
  C       -1.3950530     0.0697820    -0.0000880
  H       -2.4811350     0.1241100     0.0004410
  C       -0.6370740     1.2430170     0.0000510
  H       -1.1330860     2.2107530    -0.0001410
  C        0.7579480     1.1732410    -0.0000900
  H        1.3480720     2.0866270     0.0000520
  C        1.3950430    -0.0697940     0.0000920
  H        2.4811300    -0.1240910     0.0001910
  C        0.6370900    -1.2430170    -0.0000980
  H        1.1330780    -2.2107570     0.0000050
units angstrom
no_reorient  #important for SAPT in psi4, default
symmetry c1  #important for SAPT in psi4, default
}

set PROPERTIES_ORIGIN ["COM"]
properties('MP2/aug-cc-pvtz', properties = ['dipole'])
--------------------------------------------------------------------------

    Molecular point group: c1
  Charge       = 0
  Multiplicity = 1
  Basis Set: AUG-CC-PVTZ
    Blend: AUG-CC-PVTZ
  Basis Set: (AUG-CC-PVTZ AUX)
    Blend: AUG-CC-PVTZ-JKFIT

    Orbital Energies [Eh]
    ---------------------

    Doubly Occupied:

       1A    -11.237939     2A    -11.237484     3A    -11.237037
       4A    -11.236106     5A    -11.235845     6A    -11.234222
       7A     -1.150866     8A     -1.015912     9A     -1.012839
      10A     -0.824639    11A     -0.820744    12A     -0.707346
      13A     -0.640357    14A     -0.619944    15A     -0.588229
      16A     -0.584207    17A     -0.503111    18A     -0.497197
      19A     -0.489639    20A     -0.338861    21A     -0.335754

  @DF-RHF Final Energy:  -230.77962558889735

   => Energetics <=

    Nuclear Repulsion Energy =            203.4942408562108938
    One-Electron Energy =                -713.4511799288300153
    Two-Electron Energy =                 279.1773134837217185
    Total Energy =                       -230.7796255888973747
  Basis Set: (AUG-CC-PVTZ AUX)
    Blend: AUG-CC-PVTZ-RI
    Molecular point group: c1

    Geometry (in Angstrom), charge = 0, multiplicity = 1:

       Center              X                  Y                   Z               Mass
    ------------   -----------------  -----------------  -----------------  -----------------
         C           -0.739678052657    -1.163660387335     0.000048958596    12.000000000000
         H           -1.351378552657    -2.088375587335    -0.000073841404     1.007825032230
         C           -1.398373552657     0.068043412665    -0.000079841404    12.000000000000
         H           -2.484455552657     0.122371412665     0.000449158596     1.007825032230
         C           -0.640394552657     1.241278412665     0.000059158596    12.000000000000
         H           -1.136406552657     2.209014412665    -0.000132841404     1.007825032230
         C            0.754627447343     1.171502412665    -0.000081841404    12.000000000000
         H            1.344751447343     2.084888412665     0.000060158596     1.007825032230
         C            1.391722447343    -0.071532587335     0.000100158596    12.000000000000
         H            2.477809447343    -0.125829587335     0.000199158596     1.007825032230
         C            0.633769447343    -1.244755587335    -0.000089841404    12.000000000000
         H            1.129757447343    -2.212495587335     0.000013158596     1.007825032230

  Basis Set: AUG-CC-PVTZ
    Blend: AUG-CC-PVTZ
  Basis Set: (AUG-CC-PVTZ AUX)
    Blend: AUG-CC-PVTZ-JKFIT
	 Reference Energy          =    -230.7796255888973462 [Eh]
	 Singles Energy            =      -0.0000000000000000 [Eh]
	 Same-Spin Energy          =      -0.2554755995275095 [Eh]
	 Opposite-Spin Energy      =      -0.8186990491669304 [Eh]
	 Correlation Energy        =      -1.0741746486944399 [Eh]
	 Total Energy              =    -231.8538002375917983 [Eh]

	 ================> DF-SCS-MP2 Energies <==================
	-----------------------------------------------------------
	 SCS Same-Spin Scale       =       0.3333333333333333 [-]
	 SCS Opposite-Spin Scale   =       1.2000000000000000 [-]
	 SCS Same-Spin Energy      =      -0.0851585331758365 [Eh]
	 SCS Opposite-Spin Energy  =      -0.9824388590003164 [Eh]
	 SCS Correlation Energy    =      -1.0675973921761528 [Eh]
	 SCS Total Energy          =    -231.8472229810734859 [Eh]
	-----------------------------------------------------------

  Dipole Moment: [D]
     X:     0.0025      Y:     0.0096      Z:     0.0004     Total:     0.0099

*** Psi4 exiting successfully. Buy a developer a beer!
