                               Psi4 1.3.2 release

  ==> Input File <==

--------------------------------------------------------------------------
#psi4
#
memory 32 gb

molecule  {
0 1
  C       -0.7579540    -1.1732300     0.0000560
  H       -1.4023232    -2.1706328    -0.0000947
  C       -1.3950530     0.0697820    -0.0000880
  H       -2.4811350     0.1241100     0.0004410
  C       -0.6370740     1.2430170     0.0000510
  H       -1.1330860     2.2107530    -0.0001410
  C        0.7579480     1.1732410    -0.0000900
  H        1.3480720     2.0866270     0.0000520
  C        1.3950430    -0.0697940     0.0000920
  H        2.4811300    -0.1240910     0.0001910
  C        0.6370900    -1.2430170    -0.0000980
  H        1.1330780    -2.2107570     0.0000050
units angstrom
no_reorient  #important for SAPT in psi4, default
symmetry c1  #important for SAPT in psi4, default
}

set PROPERTIES_ORIGIN ["COM"]
properties('MP2/aug-cc-pvtz', properties = ['dipole'])
--------------------------------------------------------------------------

    Molecular point group: c1
  Charge       = 0
  Multiplicity = 1
  Basis Set: AUG-CC-PVTZ
    Blend: AUG-CC-PVTZ
  Basis Set: (AUG-CC-PVTZ AUX)
    Blend: AUG-CC-PVTZ-JKFIT

    Orbital Energies [Eh]
    ---------------------

    Doubly Occupied:

       1A    -11.248535     2A    -11.238888     3A    -11.238672
       4A    -11.237940     5A    -11.237412     6A    -11.236750
       7A     -1.148966     8A     -1.014399     9A     -1.011077
      10A     -0.823532    11A     -0.817726    12A     -0.703646
      13A     -0.636917    14A     -0.619093    15A     -0.587508
      16A     -0.578664    17A     -0.502268    18A     -0.495187
      19A     -0.487758    20A     -0.337294    21A     -0.337192

  @DF-RHF Final Energy:  -230.77291245928512

   => Energetics <=

    Nuclear Repulsion Energy =            202.7129018446411521
    One-Electron Energy =                -711.8927821267732270
    Two-Electron Energy =                 278.4069678228469797
    Total Energy =                       -230.7729124592851235
  Basis Set: (AUG-CC-PVTZ AUX)
    Blend: AUG-CC-PVTZ-RI
    Molecular point group: c1

    Geometry (in Angstrom), charge = 0, multiplicity = 1:

       Center              X                  Y                   Z               Mass
    ------------   -----------------  -----------------  -----------------  -----------------
         C           -0.757253283073    -1.172145267919     0.000061985537    12.000000000000
         H           -1.401622483073    -2.169548067919    -0.000088714463     1.007825032230
         C           -1.394352283073     0.070866732081    -0.000082014463    12.000000000000
         H           -2.480434283073     0.125194732081     0.000446985537     1.007825032230
         C           -0.636373283073     1.244101732081     0.000056985537    12.000000000000
         H           -1.132385283073     2.211837732081    -0.000135014463     1.007825032230
         C            0.758648716927     1.174325732081    -0.000084014463    12.000000000000
         H            1.348772716927     2.087711732081     0.000057985537     1.007825032230
         C            1.395743716927    -0.068709267919     0.000097985537    12.000000000000
         H            2.481830716927    -0.123006267919     0.000196985537     1.007825032230
         C            0.637790716927    -1.241932267919    -0.000092014463    12.000000000000
         H            1.133778716927    -2.209672267919     0.000010985537     1.007825032230

  Basis Set: AUG-CC-PVTZ
    Blend: AUG-CC-PVTZ
  Basis Set: (AUG-CC-PVTZ AUX)
    Blend: AUG-CC-PVTZ-JKFIT
	 Reference Energy          =    -230.7729124592851235 [Eh]
	 Singles Energy            =      -0.0000000000000000 [Eh]
	 Same-Spin Energy          =      -0.2556389161156428 [Eh]
	 Opposite-Spin Energy      =      -0.8196571136162277 [Eh]
	 Correlation Energy        =      -1.0752960297318706 [Eh]
	 Total Energy              =    -231.8482084890169972 [Eh]

	 ================> DF-SCS-MP2 Energies <==================
	-----------------------------------------------------------
	 SCS Same-Spin Scale       =       0.3333333333333333 [-]
	 SCS Opposite-Spin Scale   =       1.2000000000000000 [-]
	 SCS Same-Spin Energy      =      -0.0852129720385476 [Eh]
	 SCS Opposite-Spin Energy  =      -0.9835885363394732 [Eh]
	 SCS Correlation Energy    =      -1.0688015083780207 [Eh]
	 SCS Total Energy          =    -231.8417139676631393 [Eh]
	-----------------------------------------------------------

  Dipole Moment: [D]
     X:     0.0272      Y:     0.0421      Z:     0.0003     Total:     0.0501

*** Psi4 exiting successfully. Buy a developer a beer!
