                               Psi4 1.3.2 release

  ==> Input File <==

--------------------------------------------------------------------------
#psi4
#
memory 32 gb

molecule  {
0 1
  C       -0.7579540    -1.1732300     0.0000560
  H       -1.2937928    -2.0026412    -0.0000693
  C       -1.3950530     0.0697820    -0.0000880
  H       -2.4811350     0.1241100     0.0004410
  C       -0.6370740     1.2430170     0.0000510
  H       -1.1330860     2.2107530    -0.0001410
  C        0.7579480     1.1732410    -0.0000900
  H        1.3480720     2.0866270     0.0000520
  C        1.3950430    -0.0697940     0.0000920
  H        2.4811300    -0.1240910     0.0001910
  C        0.6370900    -1.2430170    -0.0000980
  H        1.1330780    -2.2107570     0.0000050
units angstrom
no_reorient  #important for SAPT in psi4, default
symmetry c1  #important for SAPT in psi4, default
}

set PROPERTIES_ORIGIN ["COM"]
properties('MP2/aug-cc-pvtz', properties = ['dipole'])
--------------------------------------------------------------------------

    Molecular point group: c1
  Charge       = 0
  Multiplicity = 1
  Basis Set: AUG-CC-PVTZ
    Blend: AUG-CC-PVTZ
  Basis Set: (AUG-CC-PVTZ AUX)
    Blend: AUG-CC-PVTZ-JKFIT

    Orbital Energies [Eh]
    ---------------------

    Doubly Occupied:

       1A    -11.237557     2A    -11.236948     3A    -11.236445
       4A    -11.235708     5A    -11.235432     6A    -11.224895
       7A     -1.148908     8A     -1.017609     9A     -1.012879
      10A     -0.830588    11A     -0.822288    12A     -0.712840
      13A     -0.650024    14A     -0.617742    15A     -0.593071
      16A     -0.586144    17A     -0.500795    18A     -0.499007
      19A     -0.493545    20A     -0.336150    21A     -0.335944

  @DF-RHF Final Energy:  -230.77439607648165

   => Energetics <=

    Nuclear Repulsion Energy =            203.6565665928498845
    One-Electron Energy =                -713.7328859666389462
    Two-Electron Energy =                 279.3019232973073827
    Total Energy =                       -230.7743960764816507
  Basis Set: (AUG-CC-PVTZ AUX)
    Blend: AUG-CC-PVTZ-RI
    Molecular point group: c1

    Geometry (in Angstrom), charge = 0, multiplicity = 1:

       Center              X                  Y                   Z               Mass
    ------------   -----------------  -----------------  -----------------  -----------------
         C           -0.758654742753    -1.174314553705     0.000061657545    12.000000000000
         H           -1.294493542753    -2.003725753705    -0.000063642455     1.007825032230
         C           -1.395753742753     0.068697446295    -0.000082342455    12.000000000000
         H           -2.481835742753     0.123025446295     0.000446657545     1.007825032230
         C           -0.637774742753     1.241932446295     0.000056657545    12.000000000000
         H           -1.133786742753     2.209668446295    -0.000135342455     1.007825032230
         C            0.757247257247     1.172156446295    -0.000084342455    12.000000000000
         H            1.347371257247     2.085542446295     0.000057657545     1.007825032230
         C            1.394342257247    -0.070878553705     0.000097657545    12.000000000000
         H            2.480429257247    -0.125175553705     0.000196657545     1.007825032230
         C            0.636389257247    -1.244101553705    -0.000092342455    12.000000000000
         H            1.132377257247    -2.211841553705     0.000010657545     1.007825032230

  Basis Set: AUG-CC-PVTZ
    Blend: AUG-CC-PVTZ
  Basis Set: (AUG-CC-PVTZ AUX)
    Blend: AUG-CC-PVTZ-JKFIT
	 Reference Energy          =    -230.7743960764816507 [Eh]
	 Singles Energy            =      -0.0000000000000000 [Eh]
	 Same-Spin Energy          =      -0.2553195580510346 [Eh]
	 Opposite-Spin Energy      =      -0.8183606950626519 [Eh]
	 Correlation Energy        =      -1.0736802531136864 [Eh]
	 Total Energy              =    -231.8480763295953295 [Eh]

	 ================> DF-SCS-MP2 Energies <==================
	-----------------------------------------------------------
	 SCS Same-Spin Scale       =       0.3333333333333333 [-]
	 SCS Opposite-Spin Scale   =       1.2000000000000000 [-]
	 SCS Same-Spin Energy      =      -0.0851065193503449 [Eh]
	 SCS Opposite-Spin Energy  =      -0.9820328340751822 [Eh]
	 SCS Correlation Energy    =      -1.0671393534255271 [Eh]
	 SCS Total Energy          =    -231.8415354299071680 [Eh]
	-----------------------------------------------------------

  Dipole Moment: [D]
     X:    -0.0174      Y:    -0.0270      Z:     0.0004     Total:     0.0321

*** Psi4 exiting successfully. Buy a developer a beer!
