                               Psi4 1.3.2 release

  ==> Input File <==

--------------------------------------------------------------------------
#psi4
#
memory 32 gb

molecule  {
0 1
  C       -0.6315140    -1.0998257     0.0000807
  H       -1.3480580    -2.0866370    -0.0000820
  C       -1.3950530     0.0697820    -0.0000880
  H       -2.4811350     0.1241100     0.0004410
  C       -0.6370740     1.2430170     0.0000510
  H       -1.1330860     2.2107530    -0.0001410
  C        0.7579480     1.1732410    -0.0000900
  H        1.3480720     2.0866270     0.0000520
  C        1.3950430    -0.0697940     0.0000920
  H        2.4811300    -0.1240910     0.0001910
  C        0.6370900    -1.2430170    -0.0000980
  H        1.1330780    -2.2107570     0.0000050
units angstrom
no_reorient  #important for SAPT in psi4, default
symmetry c1  #important for SAPT in psi4, default
}

set PROPERTIES_ORIGIN ["COM"]
properties('MP2/aug-cc-pvtz', properties = ['dipole'])
--------------------------------------------------------------------------

    Molecular point group: c1
  Charge       = 0
  Multiplicity = 1
  Basis Set: AUG-CC-PVTZ
    Blend: AUG-CC-PVTZ
  Basis Set: (AUG-CC-PVTZ AUX)
    Blend: AUG-CC-PVTZ-JKFIT

    Orbital Energies [Eh]
    ---------------------

    Doubly Occupied:

       1A    -11.238435     2A    -11.238128     3A    -11.236885
       4A    -11.234503     5A    -11.234300     6A    -11.222095
       7A     -1.164769     8A     -1.029691     9A     -1.009888
      10A     -0.834337    11A     -0.812012    12A     -0.709220
      13A     -0.633251    14A     -0.631563    15A     -0.594254
      16A     -0.571169    17A     -0.513895    18A     -0.508878
      19A     -0.459237    20A     -0.351550    21A     -0.332829

  @DF-RHF Final Energy:  -230.75219198787232

   => Energetics <=

    Nuclear Repulsion Energy =            205.3106197847984333
    One-Electron Energy =                -717.0038425086052030
    Two-Electron Energy =                 280.9410307359344756
    Total Energy =                       -230.7521919878723224
  Basis Set: (AUG-CC-PVTZ AUX)
    Blend: AUG-CC-PVTZ-RI
    Molecular point group: c1

    Geometry (in Angstrom), charge = 0, multiplicity = 1:

       Center              X                  Y                   Z               Mass
    ------------   -----------------  -----------------  -----------------  -----------------
         C           -0.650954618808    -1.111111786605     0.000082723827    12.000000000000
         H           -1.367498618808    -2.097923086605    -0.000079976173     1.007825032230
         C           -1.414493618808     0.058495913395    -0.000085976173    12.000000000000
         H           -2.500575618808     0.112823913395     0.000443023827     1.007825032230
         C           -0.656514618808     1.231730913395     0.000053023827    12.000000000000
         H           -1.152526618808     2.199466913395    -0.000138976173     1.007825032230
         C            0.738507381192     1.161954913395    -0.000087976173    12.000000000000
         H            1.328631381192     2.075340913395     0.000054023827     1.007825032230
         C            1.375602381192    -0.081080086605     0.000094023827    12.000000000000
         H            2.461689381192    -0.135377086605     0.000193023827     1.007825032230
         C            0.617649381192    -1.254303086605    -0.000095976173    12.000000000000
         H            1.113637381192    -2.222043086605     0.000007023827     1.007825032230

  Basis Set: AUG-CC-PVTZ
    Blend: AUG-CC-PVTZ
  Basis Set: (AUG-CC-PVTZ AUX)
    Blend: AUG-CC-PVTZ-JKFIT
	 Reference Energy          =    -230.7521919878723224 [Eh]
	 Singles Energy            =      -0.0000000000000000 [Eh]
	 Same-Spin Energy          =      -0.2559000709250068 [Eh]
	 Opposite-Spin Energy      =      -0.8196712062351804 [Eh]
	 Correlation Energy        =      -1.0755712771601873 [Eh]
	 Total Energy              =    -231.8277632650325017 [Eh]

	 ================> DF-SCS-MP2 Energies <==================
	-----------------------------------------------------------
	 SCS Same-Spin Scale       =       0.3333333333333333 [-]
	 SCS Opposite-Spin Scale   =       1.2000000000000000 [-]
	 SCS Same-Spin Energy      =      -0.0853000236416689 [Eh]
	 SCS Opposite-Spin Energy  =      -0.9836054474822165 [Eh]
	 SCS Correlation Energy    =      -1.0689054711238855 [Eh]
	 SCS Total Energy          =    -231.8210974589962063 [Eh]
	-----------------------------------------------------------

  Dipole Moment: [D]
     X:     0.0476      Y:     0.1044      Z:     0.0004     Total:     0.1148

*** Psi4 exiting successfully. Buy a developer a beer!
