                               Psi4 1.3.2 release

  ==> Input File <==

--------------------------------------------------------------------------
#psi4
#
memory 32 gb

molecule  {
0 1
  C       -0.7797446    -1.1841596     0.0000711
  H       -1.3480580    -2.0866370    -0.0000820
  C       -1.3950530     0.0697820    -0.0000880
  H       -2.4811350     0.1241100     0.0004410
  C       -0.6370740     1.2430170     0.0000510
  H       -1.1330860     2.2107530    -0.0001410
  C        0.7579480     1.1732410    -0.0000900
  H        1.3480720     2.0866270     0.0000520
  C        1.3950430    -0.0697940     0.0000920
  H        2.4811300    -0.1240910     0.0001910
  C        0.6370900    -1.2430170    -0.0000980
  H        1.1330780    -2.2107570     0.0000050
units angstrom
no_reorient  #important for SAPT in psi4, default
symmetry c1  #important for SAPT in psi4, default
}

set PROPERTIES_ORIGIN ["COM"]
properties('MP2/aug-cc-pvtz', properties = ['dipole'])
--------------------------------------------------------------------------

    Molecular point group: c1
  Charge       = 0
  Multiplicity = 1
  Basis Set: AUG-CC-PVTZ
    Blend: AUG-CC-PVTZ
  Basis Set: (AUG-CC-PVTZ AUX)
    Blend: AUG-CC-PVTZ-JKFIT

    Orbital Energies [Eh]
    ---------------------

    Doubly Occupied:

       1A    -11.239795     2A    -11.238320     3A    -11.238076
       4A    -11.237155     5A    -11.236682     6A    -11.236210
       7A     -1.146660     8A     -1.014268     9A     -1.011305
      10A     -0.824983    11A     -0.821059    12A     -0.707446
      13A     -0.645293    14A     -0.616910    15A     -0.589043
      16A     -0.585169    17A     -0.499857    18A     -0.498396
      19A     -0.491067    20A     -0.337368    21A     -0.334286

  @DF-RHF Final Energy:  -230.77929135035114

   => Energetics <=

    Nuclear Repulsion Energy =            202.8232759959590226
    One-Electron Energy =                -712.1064372005977248
    Two-Electron Energy =                 278.5038698542875863
    Total Energy =                       -230.7792913503511159
  Basis Set: (AUG-CC-PVTZ AUX)
    Blend: AUG-CC-PVTZ-RI
    Molecular point group: c1

    Geometry (in Angstrom), charge = 0, multiplicity = 1:

       Center              X                  Y                   Z               Mass
    ------------   -----------------  -----------------  -----------------  -----------------
         C           -0.776394229594    -1.182479045404     0.000074599862    12.000000000000
         H           -1.344707629594    -2.084956445404    -0.000078500138     1.007825032230
         C           -1.391702629594     0.071462554596    -0.000084500138    12.000000000000
         H           -2.477784629594     0.125790554596     0.000444499862     1.007825032230
         C           -0.633723629594     1.244697554596     0.000054499862    12.000000000000
         H           -1.129735629594     2.212433554596    -0.000137500138     1.007825032230
         C            0.761298370406     1.174921554596    -0.000086500138    12.000000000000
         H            1.351422370406     2.088307554596     0.000055499862     1.007825032230
         C            1.398393370406    -0.068113445404     0.000095499862    12.000000000000
         H            2.484480370406    -0.122410445404     0.000194499862     1.007825032230
         C            0.640440370406    -1.241336445404    -0.000094500138    12.000000000000
         H            1.136428370406    -2.209076445404     0.000008499862     1.007825032230

  Basis Set: AUG-CC-PVTZ
    Blend: AUG-CC-PVTZ
  Basis Set: (AUG-CC-PVTZ AUX)
    Blend: AUG-CC-PVTZ-JKFIT
	 Reference Energy          =    -230.7792913503511443 [Eh]
	 Singles Energy            =      -0.0000000000000000 [Eh]
	 Same-Spin Energy          =      -0.2554193775261323 [Eh]
	 Opposite-Spin Energy      =      -0.8189231642555221 [Eh]
	 Correlation Energy        =      -1.0743425417816543 [Eh]
	 Total Energy              =    -231.8536338921327911 [Eh]

	 ================> DF-SCS-MP2 Energies <==================
	-----------------------------------------------------------
	 SCS Same-Spin Scale       =       0.3333333333333333 [-]
	 SCS Opposite-Spin Scale   =       1.2000000000000000 [-]
	 SCS Same-Spin Energy      =      -0.0851397925087108 [Eh]
	 SCS Opposite-Spin Energy  =      -0.9827077971066265 [Eh]
	 SCS Correlation Energy    =      -1.0678475896153372 [Eh]
	 SCS Total Energy          =    -231.8471389399664702 [Eh]
	-----------------------------------------------------------

  Dipole Moment: [D]
     X:    -0.0009      Y:    -0.0069      Z:     0.0003     Total:     0.0069

*** Psi4 exiting successfully. Buy a developer a beer!
