                               Psi4 1.3.2 release

  ==> Input File <==

--------------------------------------------------------------------------
#psi4
#
memory 32 gb

molecule  {
0 1
  C       -0.7579540    -1.1732300     0.0000560
  H       -1.3480580    -2.0866370    -0.0000820
  C       -1.3494408    -0.0192097    -0.0000777
  H       -2.4811350     0.1241100     0.0004410
  C       -0.6370740     1.2430170     0.0000510
  H       -1.1330860     2.2107530    -0.0001410
  C        0.7579480     1.1732410    -0.0000900
  H        1.3480720     2.0866270     0.0000520
  C        1.3950430    -0.0697940     0.0000920
  H        2.4811300    -0.1240910     0.0001910
  C        0.6370900    -1.2430170    -0.0000980
  H        1.1330780    -2.2107570     0.0000050
units angstrom
no_reorient  #important for SAPT in psi4, default
symmetry c1  #important for SAPT in psi4, default
}

set PROPERTIES_ORIGIN ["COM"]
properties('MP2/aug-cc-pvtz', properties = ['dipole'])
--------------------------------------------------------------------------

    Molecular point group: c1
  Charge       = 0
  Multiplicity = 1
  Basis Set: AUG-CC-PVTZ
    Blend: AUG-CC-PVTZ
  Basis Set: (AUG-CC-PVTZ AUX)
    Blend: AUG-CC-PVTZ-JKFIT

    Orbital Energies [Eh]
    ---------------------

    Doubly Occupied:

       1A    -11.241730     2A    -11.237809     3A    -11.236967
       4A    -11.235587     5A    -11.234945     6A    -11.224393
       7A     -1.155331     8A     -1.027454     9A     -1.005010
      10A     -0.831194    11A     -0.813192    12A     -0.707613
      13A     -0.638142    14A     -0.623812    15A     -0.592934
      16A     -0.576518    17A     -0.506494    18A     -0.504917
      19A     -0.474646    20A     -0.350542    21A     -0.328269

  @DF-RHF Final Energy:  -230.76674277776368

   => Energetics <=

    Nuclear Repulsion Energy =            204.0205468448911574
    One-Electron Energy =                -714.4795844462927334
    Two-Electron Energy =                 279.6922948236378943
    Total Energy =                       -230.7667427777636817
  Basis Set: (AUG-CC-PVTZ AUX)
    Blend: AUG-CC-PVTZ-RI
    Molecular point group: c1

    Geometry (in Angstrom), charge = 0, multiplicity = 1:

       Center              X                  Y                   Z               Mass
    ------------   -----------------  -----------------  -----------------  -----------------
         C           -0.764967053123    -1.159547116066     0.000060237879    12.000000000000
         H           -1.355071053123    -2.072954116066    -0.000077762121     1.007825032230
         C           -1.356453853123    -0.005526816066    -0.000073462121    12.000000000000
         H           -2.488148053123     0.137792883934     0.000445237879     1.007825032230
         C           -0.644087053123     1.256699883934     0.000055237879    12.000000000000
         H           -1.140099053123     2.224435883934    -0.000136762121     1.007825032230
         C            0.750934946877     1.186923883934    -0.000085762121    12.000000000000
         H            1.341058946877     2.100309883934     0.000056237879     1.007825032230
         C            1.388029946877    -0.056111116066     0.000096237879    12.000000000000
         H            2.474116946877    -0.110408116066     0.000195237879     1.007825032230
         C            0.630076946877    -1.229334116066    -0.000093762121    12.000000000000
         H            1.126064946877    -2.197074116066     0.000009237879     1.007825032230

  Basis Set: AUG-CC-PVTZ
    Blend: AUG-CC-PVTZ
  Basis Set: (AUG-CC-PVTZ AUX)
    Blend: AUG-CC-PVTZ-JKFIT
	 Reference Energy          =    -230.7667427777636817 [Eh]
	 Singles Energy            =      -0.0000000000000000 [Eh]
	 Same-Spin Energy          =      -0.2553470550187748 [Eh]
	 Opposite-Spin Energy      =      -0.8191149501372117 [Eh]
	 Correlation Energy        =      -1.0744620051559866 [Eh]
	 Total Energy              =    -231.8412047829196752 [Eh]

	 ================> DF-SCS-MP2 Energies <==================
	-----------------------------------------------------------
	 SCS Same-Spin Scale       =       0.3333333333333333 [-]
	 SCS Opposite-Spin Scale   =       1.2000000000000000 [-]
	 SCS Same-Spin Energy      =      -0.0851156850062583 [Eh]
	 SCS Opposite-Spin Energy  =      -0.9829379401646540 [Eh]
	 SCS Correlation Energy    =      -1.0680536251709123 [Eh]
	 SCS Total Energy          =    -231.8347964029345860 [Eh]
	-----------------------------------------------------------

  Dipole Moment: [D]
     X:     0.0290      Y:     0.0202      Z:     0.0003     Total:     0.0354

*** Psi4 exiting successfully. Buy a developer a beer!
