                               Psi4 1.4a3.dev225

  ==> Input File <==

--------------------------------------------------------------------------
#psi4
#
memory 32 gb

molecule  {
0 1
  C       -1.1166550    -0.8391130    -0.0000170
  H       -1.9460148    -1.4623349     0.0000126
  C        0.1683650    -1.3866060     0.0000150
  H        0.2994420    -2.4661000     0.0000130
  C        1.2850220    -0.5474960    -0.0000180
  H        2.2854270    -0.9737280     0.0000080
  C        1.1166540     0.8391130     0.0000160
  H        1.9859870     1.4923730    -0.0000260
  C       -0.1683650     1.3866070    -0.0000140
  H       -0.2994410     2.4661010     0.0000400
  C       -1.2850210     0.5474950     0.0000150
  H       -2.2854280     0.9737260    -0.0000310
units angstrom
no_reorient  #important for SAPT in psi4, default
symmetry c1  #important for SAPT in psi4, default
}

set PROPERTIES_ORIGIN ["COM"]
properties('MP2/aug-cc-pvtz', properties = ['dipole'])
--------------------------------------------------------------------------

    Molecular point group: c1
  Charge       = 0
  Multiplicity = 1
  Basis Set: AUG-CC-PVTZ
    Blend: AUG-CC-PVTZ
  Basis Set: (AUG-CC-PVTZ AUX)
    Blend: AUG-CC-PVTZ-JKFIT

    Orbital Energies [Eh]
    ---------------------

    Doubly Occupied:

       1A    -11.237803     2A    -11.237281     3A    -11.236786
       4A    -11.236050     5A    -11.235725     6A    -11.230936
       7A     -1.148709     8A     -1.015338     9A     -1.013180
      10A     -0.826319    11A     -0.822526    12A     -0.709851
      13A     -0.646230    14A     -0.617978    15A     -0.590174
      16A     -0.586424    17A     -0.501071    18A     -0.496816
      19A     -0.493872    20A     -0.336304    21A     -0.336214

  @DF-RHF Final Energy:  -230.77946535429703

   => Energetics <=

    Nuclear Repulsion Energy =            203.3959384458382260
    One-Electron Energy =                -713.2396359495097613
    Two-Electron Energy =                 279.0642321493745044
    Total Energy =                       -230.7794653542970309
  Basis Set: (AUG-CC-PVTZ AUX)
    Blend: AUG-CC-PVTZ-RI
    Molecular point group: c1

    Geometry (in Angstrom), charge = 0, multiplicity = 1:

       Center              X                  Y                   Z               Mass
    ------------   -----------------  -----------------  -----------------  -----------------
         C           -1.117171163459    -0.839500870906    -0.000016753096    12.000000000000
         H           -1.946530963459    -1.462722770906     0.000012846904     1.007825032230
         C            0.167848836541    -1.386993870906     0.000015246904    12.000000000000
         H            0.298925836541    -2.466487870906     0.000013246904     1.007825032230
         C            1.284505836541    -0.547883870906    -0.000017753096    12.000000000000
         H            2.284910836541    -0.974115870906     0.000008246904     1.007825032230
         C            1.116137836541     0.838725129094     0.000016246904    12.000000000000
         H            1.985470836541     1.491985129094    -0.000025753096     1.007825032230
         C           -0.168881163459     1.386219129094    -0.000013753096    12.000000000000
         H           -0.299957163459     2.465713129094     0.000040246904     1.007825032230
         C           -1.285537163459     0.547107129094     0.000015246904    12.000000000000
         H           -2.285944163459     0.973338129094    -0.000030753096     1.007825032230

  Basis Set: AUG-CC-PVTZ
    Blend: AUG-CC-PVTZ
  Basis Set: (AUG-CC-PVTZ AUX)
    Blend: AUG-CC-PVTZ-JKFIT
	 Reference Energy          =    -230.7794653542970309 [Eh]
	 Singles Energy            =      -0.0000000000000000 [Eh]
	 Same-Spin Energy          =      -0.2553669738345639 [Eh]
	 Opposite-Spin Energy      =      -0.8184951322579913 [Eh]
	 Correlation Energy        =      -1.0738621060925553 [Eh]
	 Total Energy              =    -231.8533274603895791 [Eh]

	 ================> DF-SCS-MP2 Energies <==================
	-----------------------------------------------------------
	 SCS Same-Spin Scale       =       0.3333333333333333 [-]
	 SCS Opposite-Spin Scale   =       1.2000000000000000 [-]
	 SCS Same-Spin Energy      =      -0.0851223246115213 [Eh]
	 SCS Opposite-Spin Energy  =      -0.9821941587095895 [Eh]
	 SCS Correlation Energy    =      -1.0673164833211108 [Eh]
	 SCS Total Energy          =    -231.8467818376181526 [Eh]
	-----------------------------------------------------------

  Dipole Moment: [D]
     X:    -0.0146      Y:    -0.0110      Z:     0.0000     Total:     0.0183

*** Psi4 exiting successfully. Buy a developer a beer!
