                               Psi4 1.3.2 release

  ==> Input File <==

--------------------------------------------------------------------------
#psi4
#
memory 32 gb

molecule  {
0 1
  C       -0.8017226    -1.1947072     0.0000862
  H       -1.3480580    -2.0866370    -0.0000820
  C       -1.3950530     0.0697820    -0.0000880
  H       -2.4811350     0.1241100     0.0004410
  C       -0.6370740     1.2430170     0.0000510
  H       -1.1330860     2.2107530    -0.0001410
  C        0.7579480     1.1732410    -0.0000900
  H        1.3480720     2.0866270     0.0000520
  C        1.3950430    -0.0697940     0.0000920
  H        2.4811300    -0.1240910     0.0001910
  C        0.6370900    -1.2430170    -0.0000980
  H        1.1330780    -2.2107570     0.0000050
units angstrom
no_reorient  #important for SAPT in psi4, default
symmetry c1  #important for SAPT in psi4, default
}

set PROPERTIES_ORIGIN ["COM"]
properties('MP2/aug-cc-pvtz', properties = ['dipole'])
--------------------------------------------------------------------------

    Molecular point group: c1
  Charge       = 0
  Multiplicity = 1
  Basis Set: AUG-CC-PVTZ
    Blend: AUG-CC-PVTZ
  Basis Set: (AUG-CC-PVTZ AUX)
    Blend: AUG-CC-PVTZ-JKFIT

    Orbital Energies [Eh]
    ---------------------

    Doubly Occupied:

       1A    -11.242040     2A    -11.238799     3A    -11.238569
       4A    -11.237624     5A    -11.236824     6A    -11.236438
       7A     -1.144813     8A     -1.015025     9A     -1.009224
      10A     -0.827266    11A     -0.819410    12A     -0.707689
      13A     -0.648252    14A     -0.615814    15A     -0.591031
      16A     -0.583529    17A     -0.502118    18A     -0.498422
      19A     -0.487622    20A     -0.338252    21A     -0.332124

  @DF-RHF Final Energy:  -230.77674534289451

   => Energetics <=

    Nuclear Repulsion Energy =            202.5003330245434654
    One-Electron Energy =                -711.4523851591615085
    Two-Electron Energy =                 278.1753067917235285
    Total Energy =                       -230.7767453428945146
  Basis Set: (AUG-CC-PVTZ AUX)
    Blend: AUG-CC-PVTZ-RI
    Molecular point group: c1

    Geometry (in Angstrom), charge = 0, multiplicity = 1:

       Center              X                  Y                   Z               Mass
    ------------   -----------------  -----------------  -----------------  -----------------
         C           -0.794993032850    -1.191404913873     0.000087378182    12.000000000000
         H           -1.341328432850    -2.083334713873    -0.000080821818     1.007825032230
         C           -1.388323432850     0.073084286127    -0.000086821818    12.000000000000
         H           -2.474405432850     0.127412286127     0.000442178182     1.007825032230
         C           -0.630344432850     1.246319286127     0.000052178182    12.000000000000
         H           -1.126356432850     2.214055286127    -0.000139821818     1.007825032230
         C            0.764677567150     1.176543286127    -0.000088821818    12.000000000000
         H            1.354801567150     2.089929286127     0.000053178182     1.007825032230
         C            1.401772567150    -0.066491713873     0.000093178182    12.000000000000
         H            2.487859567150    -0.120788713873     0.000192178182     1.007825032230
         C            0.643819567150    -1.239714713873    -0.000096821818    12.000000000000
         H            1.139807567150    -2.207454713873     0.000006178182     1.007825032230

  Basis Set: AUG-CC-PVTZ
    Blend: AUG-CC-PVTZ
  Basis Set: (AUG-CC-PVTZ AUX)
    Blend: AUG-CC-PVTZ-JKFIT
	 Reference Energy          =    -230.7767453428945146 [Eh]
	 Singles Energy            =      -0.0000000000000000 [Eh]
	 Same-Spin Energy          =      -0.2554154271684758 [Eh]
	 Opposite-Spin Energy      =      -0.8191804766326689 [Eh]
	 Correlation Energy        =      -1.0745959038011448 [Eh]
	 Total Energy              =    -231.8513412466956538 [Eh]

	 ================> DF-SCS-MP2 Energies <==================
	-----------------------------------------------------------
	 SCS Same-Spin Scale       =       0.3333333333333333 [-]
	 SCS Opposite-Spin Scale   =       1.2000000000000000 [-]
	 SCS Same-Spin Energy      =      -0.0851384757228253 [Eh]
	 SCS Opposite-Spin Energy  =      -0.9830165719592027 [Eh]
	 SCS Correlation Energy    =      -1.0681550476820278 [Eh]
	 SCS Total Energy          =    -231.8449003905765551 [Eh]
	-----------------------------------------------------------

  Dipole Moment: [D]
     X:    -0.0004      Y:    -0.0112      Z:     0.0003     Total:     0.0113

*** Psi4 exiting successfully. Buy a developer a beer!
