                               Psi4 1.4a3.dev225

  ==> Input File <==

--------------------------------------------------------------------------
#psi4
#
memory 32 gb

molecule  {
0 1
  C       -1.1166550    -0.8391130    -0.0000170
  H       -2.0019759    -1.5043868     0.0000146
  C        0.1683650    -1.3866060     0.0000150
  H        0.2994420    -2.4661000     0.0000130
  C        1.2850220    -0.5474960    -0.0000180
  H        2.2854270    -0.9737280     0.0000080
  C        1.1166540     0.8391130     0.0000160
  H        1.9859870     1.4923730    -0.0000260
  C       -0.1683650     1.3866070    -0.0000140
  H       -0.2994410     2.4661010     0.0000400
  C       -1.2850210     0.5474950     0.0000150
  H       -2.2854280     0.9737260    -0.0000310
units angstrom
no_reorient  #important for SAPT in psi4, default
symmetry c1  #important for SAPT in psi4, default
}

set PROPERTIES_ORIGIN ["COM"]
properties('MP2/aug-cc-pvtz', properties = ['dipole'])
--------------------------------------------------------------------------

    Molecular point group: c1
  Charge       = 0
  Multiplicity = 1
  Basis Set: AUG-CC-PVTZ
    Blend: AUG-CC-PVTZ
  Basis Set: (AUG-CC-PVTZ AUX)
    Blend: AUG-CC-PVTZ-JKFIT

    Orbital Energies [Eh]
    ---------------------

    Doubly Occupied:

       1A    -11.239720     2A    -11.238163     3A    -11.237854
       4A    -11.237019     5A    -11.236626     6A    -11.236112
       7A     -1.148686     8A     -1.013691     9A     -1.012929
      10A     -0.822939    11A     -0.821602    12A     -0.706460
      13A     -0.641357    14A     -0.618424    15A     -0.586883
      16A     -0.585237    17A     -0.501562    18A     -0.494424
      19A     -0.493111    20A     -0.336668    21A     -0.336639

  @DF-RHF Final Energy:  -230.77961574842064

   => Energetics <=

    Nuclear Repulsion Energy =            203.0607006161792469
    One-Electron Energy =                -712.5884174231313182
    Two-Electron Energy =                 278.7481010585314607
    Total Energy =                       -230.7796157484206105
  Basis Set: (AUG-CC-PVTZ AUX)
    Blend: AUG-CC-PVTZ-RI
    Molecular point group: c1

    Geometry (in Angstrom), charge = 0, multiplicity = 1:

       Center              X                  Y                   Z               Mass
    ------------   -----------------  -----------------  -----------------  -----------------
         C           -1.116448534358    -0.838957852154    -0.000016778922    12.000000000000
         H           -2.001769434358    -1.504231652154     0.000014821078     1.007825032230
         C            0.168571465642    -1.386450852154     0.000015221078    12.000000000000
         H            0.299648465642    -2.465944852154     0.000013221078     1.007825032230
         C            1.285228465642    -0.547340852154    -0.000017778922    12.000000000000
         H            2.285633465642    -0.973572852154     0.000008221078     1.007825032230
         C            1.116860465642     0.839268147846     0.000016221078    12.000000000000
         H            1.986193465642     1.492528147846    -0.000025778922     1.007825032230
         C           -0.168158534358     1.386762147846    -0.000013778922    12.000000000000
         H           -0.299234534358     2.466256147846     0.000040221078     1.007825032230
         C           -1.284814534358     0.547650147846     0.000015221078    12.000000000000
         H           -2.285221534358     0.973881147846    -0.000030778922     1.007825032230

  Basis Set: AUG-CC-PVTZ
    Blend: AUG-CC-PVTZ
  Basis Set: (AUG-CC-PVTZ AUX)
    Blend: AUG-CC-PVTZ-JKFIT
	 Reference Energy          =    -230.7796157484206390 [Eh]
	 Singles Energy            =      -0.0000000000000000 [Eh]
	 Same-Spin Energy          =      -0.2554739357964603 [Eh]
	 Opposite-Spin Energy      =      -0.8189062416480223 [Eh]
	 Correlation Energy        =      -1.0743801774444826 [Eh]
	 Total Energy              =    -231.8539959258651209 [Eh]

	 ================> DF-SCS-MP2 Energies <==================
	-----------------------------------------------------------
	 SCS Same-Spin Scale       =       0.3333333333333333 [-]
	 SCS Opposite-Spin Scale   =       1.2000000000000000 [-]
	 SCS Same-Spin Energy      =      -0.0851579785988201 [Eh]
	 SCS Opposite-Spin Energy  =      -0.9826874899776267 [Eh]
	 SCS Correlation Energy    =      -1.0678454685764467 [Eh]
	 SCS Total Energy          =    -231.8474612169970897 [Eh]
	-----------------------------------------------------------

  Dipole Moment: [D]
     X:     0.0069      Y:     0.0052      Z:     0.0000     Total:     0.0086

*** Psi4 exiting successfully. Buy a developer a beer!
