                               Psi4 1.4a3.dev225

  ==> Input File <==

--------------------------------------------------------------------------
#psi4
#
memory 32 gb

molecule  {
0 1
  C       -1.1166550    -0.8391130    -0.0000170
  H       -1.9859870    -1.4923720     0.0000140
  C        0.1223660    -1.3670078     0.0000139
  H        0.2994420    -2.4661000     0.0000130
  C        1.2850220    -0.5474960    -0.0000180
  H        2.2854270    -0.9737280     0.0000080
  C        1.1166540     0.8391130     0.0000160
  H        1.9859870     1.4923730    -0.0000260
  C       -0.1683650     1.3866070    -0.0000140
  H       -0.2994410     2.4661010     0.0000400
  C       -1.2850210     0.5474950     0.0000150
  H       -2.2854280     0.9737260    -0.0000310
units angstrom
no_reorient  #important for SAPT in psi4, default
symmetry c1  #important for SAPT in psi4, default
}

set PROPERTIES_ORIGIN ["COM"]
properties('MP2/aug-cc-pvtz', properties = ['dipole'])
--------------------------------------------------------------------------

    Molecular point group: c1
  Charge       = 0
  Multiplicity = 1
  Basis Set: AUG-CC-PVTZ
    Blend: AUG-CC-PVTZ
  Basis Set: (AUG-CC-PVTZ AUX)
    Blend: AUG-CC-PVTZ-JKFIT

    Orbital Energies [Eh]
    ---------------------

    Doubly Occupied:

       1A    -11.239586     2A    -11.237739     3A    -11.237025
       4A    -11.236178     5A    -11.235877     6A    -11.230970
       7A     -1.151541     8A     -1.020141     9A     -1.009229
      10A     -0.826944    11A     -0.818207    12A     -0.707366
      13A     -0.640128    14A     -0.620661    15A     -0.590101
      16A     -0.581713    17A     -0.503615    18A     -0.500189
      19A     -0.485279    20A     -0.343135    21A     -0.332232

  @DF-RHF Final Energy:  -230.77717415688554

   => Energetics <=

    Nuclear Repulsion Energy =            203.5674403275578470
    One-Electron Energy =                -713.5935190824611709
    Two-Electron Energy =                 279.2489045980178162
    Total Energy =                       -230.7771741568855077
  Basis Set: (AUG-CC-PVTZ AUX)
    Blend: AUG-CC-PVTZ-RI
    Molecular point group: c1

    Geometry (in Angstrom), charge = 0, multiplicity = 1:

       Center              X                  Y                   Z               Mass
    ------------   -----------------  -----------------  -----------------  -----------------
         C           -1.109582487895    -0.842126293914    -0.000016602045    12.000000000000
         H           -1.978914487895    -1.495385293914     0.000014397955     1.007825032230
         C            0.129438512105    -1.370021093914     0.000014297955    12.000000000000
         H            0.306514512105    -2.469113293914     0.000013397955     1.007825032230
         C            1.292094512105    -0.550509293914    -0.000017602045    12.000000000000
         H            2.292499512105    -0.976741293914     0.000008397955     1.007825032230
         C            1.123726512105     0.836099706086     0.000016397955    12.000000000000
         H            1.993059512105     1.489359706086    -0.000025602045     1.007825032230
         C           -0.161292487895     1.383593706086    -0.000013602045    12.000000000000
         H           -0.292368487895     2.463087706086     0.000040397955     1.007825032230
         C           -1.277948487895     0.544481706086     0.000015397955    12.000000000000
         H           -2.278355487895     0.970712706086    -0.000030602045     1.007825032230

  Basis Set: AUG-CC-PVTZ
    Blend: AUG-CC-PVTZ
  Basis Set: (AUG-CC-PVTZ AUX)
    Blend: AUG-CC-PVTZ-JKFIT
	 Reference Energy          =    -230.7771741568855361 [Eh]
	 Singles Energy            =      -0.0000000000000000 [Eh]
	 Same-Spin Energy          =      -0.2554330371580436 [Eh]
	 Opposite-Spin Energy      =      -0.8187959094040999 [Eh]
	 Correlation Energy        =      -1.0742289465621435 [Eh]
	 Total Energy              =    -231.8514031034476659 [Eh]

	 ================> DF-SCS-MP2 Energies <==================
	-----------------------------------------------------------
	 SCS Same-Spin Scale       =       0.3333333333333333 [-]
	 SCS Opposite-Spin Scale   =       1.2000000000000000 [-]
	 SCS Same-Spin Energy      =      -0.0851443457193478 [Eh]
	 SCS Opposite-Spin Energy  =      -0.9825550912849198 [Eh]
	 SCS Correlation Energy    =      -1.0676994370042676 [Eh]
	 SCS Total Energy          =    -231.8448735938898153 [Eh]
	-----------------------------------------------------------

  Dipole Moment: [D]
     X:     0.0096      Y:     0.0127      Z:     0.0000     Total:     0.0159

*** Psi4 exiting successfully. Buy a developer a beer!
