                               Psi4 1.3.2 release

  ==> Input File <==

--------------------------------------------------------------------------
#psi4
#
memory 32 gb

molecule  {
0 1
  C       -0.8462141    -1.2146439     0.0000387
  H       -1.3480580    -2.0866370    -0.0000820
  C       -1.3950530     0.0697820    -0.0000880
  H       -2.4811350     0.1241100     0.0004410
  C       -0.6370740     1.2430170     0.0000510
  H       -1.1330860     2.2107530    -0.0001410
  C        0.7579480     1.1732410    -0.0000900
  H        1.3480720     2.0866270     0.0000520
  C        1.3950430    -0.0697940     0.0000920
  H        2.4811300    -0.1240910     0.0001910
  C        0.6370900    -1.2430170    -0.0000980
  H        1.1330780    -2.2107570     0.0000050
units angstrom
no_reorient  #important for SAPT in psi4, default
symmetry c1  #important for SAPT in psi4, default
}

set PROPERTIES_ORIGIN ["COM"]
properties('MP2/aug-cc-pvtz', properties = ['dipole'])
--------------------------------------------------------------------------

    Molecular point group: c1
  Charge       = 0
  Multiplicity = 1
  Basis Set: AUG-CC-PVTZ
    Blend: AUG-CC-PVTZ
  Basis Set: (AUG-CC-PVTZ AUX)
    Blend: AUG-CC-PVTZ-JKFIT

    Orbital Energies [Eh]
    ---------------------

    Doubly Occupied:

       1A    -11.246525     2A    -11.240082     3A    -11.239619
       4A    -11.238710     5A    -11.237108     6A    -11.236743
       7A     -1.141581     8A     -1.016618     9A     -1.005522
      10A     -0.832164    11A     -0.816501    12A     -0.708579
      13A     -0.654959    14A     -0.614476    15A     -0.593868
      16A     -0.580119    17A     -0.508433    18A     -0.495897
      19A     -0.479915    20A     -0.340159    21A     -0.328065

  @DF-RHF Final Energy:  -230.76698779545612

   => Energetics <=

    Nuclear Repulsion Energy =            201.8796452873628198
    One-Electron Energy =                -710.1819836728280961
    Two-Electron Energy =                 277.5353505900092159
    Total Energy =                       -230.7669877954560889
  Basis Set: (AUG-CC-PVTZ AUX)
    Blend: AUG-CC-PVTZ-RI
    Molecular point group: c1

    Geometry (in Angstrom), charge = 0, multiplicity = 1:

       Center              X                  Y                   Z               Mass
    ------------   -----------------  -----------------  -----------------  -----------------
         C           -0.832643804306    -1.208276274364     0.000047181479    12.000000000000
         H           -1.334487704306    -2.080269374364    -0.000073518521     1.007825032230
         C           -1.381482704306     0.076149625636    -0.000079518521    12.000000000000
         H           -2.467564704306     0.130477625636     0.000449481479     1.007825032230
         C           -0.623503704306     1.249384625636     0.000059481479    12.000000000000
         H           -1.119515704306     2.217120625636    -0.000132518521     1.007825032230
         C            0.771518295694     1.179608625636    -0.000081518521    12.000000000000
         H            1.361642295694     2.092994625636     0.000060481479     1.007825032230
         C            1.408613295694    -0.063426374364     0.000100481479    12.000000000000
         H            2.494700295694    -0.117723374364     0.000199481479     1.007825032230
         C            0.650660295694    -1.236649374364    -0.000089518521    12.000000000000
         H            1.146648295694    -2.204389374364     0.000013481479     1.007825032230

  Basis Set: AUG-CC-PVTZ
    Blend: AUG-CC-PVTZ
  Basis Set: (AUG-CC-PVTZ AUX)
    Blend: AUG-CC-PVTZ-JKFIT
	 Reference Energy          =    -230.7669877954561173 [Eh]
	 Singles Energy            =      -0.0000000000000000 [Eh]
	 Same-Spin Energy          =      -0.2554541240413841 [Eh]
	 Opposite-Spin Energy      =      -0.8199735114143613 [Eh]
	 Correlation Energy        =      -1.0754276354557453 [Eh]
	 Total Energy              =    -231.8424154309118705 [Eh]

	 ================> DF-SCS-MP2 Energies <==================
	-----------------------------------------------------------
	 SCS Same-Spin Scale       =       0.3333333333333333 [-]
	 SCS Opposite-Spin Scale   =       1.2000000000000000 [-]
	 SCS Same-Spin Energy      =      -0.0851513746804614 [Eh]
	 SCS Opposite-Spin Energy  =      -0.9839682136972334 [Eh]
	 SCS Correlation Energy    =      -1.0691195883776947 [Eh]
	 SCS Total Energy          =    -231.8361073838338200 [Eh]
	-----------------------------------------------------------

  Dipole Moment: [D]
     X:     0.0039      Y:    -0.0131      Z:     0.0003     Total:     0.0137

*** Psi4 exiting successfully. Buy a developer a beer!
