                               Psi4 1.3.2 release

  ==> Input File <==

--------------------------------------------------------------------------
#psi4
#
memory 32 gb

molecule  {
0 1
  C       -0.6727978    -1.1257603    -0.0000049
  H       -1.3480580    -2.0866370    -0.0000820
  C       -1.3950530     0.0697820    -0.0000880
  H       -2.4811350     0.1241100     0.0004410
  C       -0.6370740     1.2430170     0.0000510
  H       -1.1330860     2.2107530    -0.0001410
  C        0.7579480     1.1732410    -0.0000900
  H        1.3480720     2.0866270     0.0000520
  C        1.3950430    -0.0697940     0.0000920
  H        2.4811300    -0.1240910     0.0001910
  C        0.6370900    -1.2430170    -0.0000980
  H        1.1330780    -2.2107570     0.0000050
units angstrom
no_reorient  #important for SAPT in psi4, default
symmetry c1  #important for SAPT in psi4, default
}

set PROPERTIES_ORIGIN ["COM"]
properties('MP2/aug-cc-pvtz', properties = ['dipole'])
--------------------------------------------------------------------------

    Molecular point group: c1
  Charge       = 0
  Multiplicity = 1
  Basis Set: AUG-CC-PVTZ
    Blend: AUG-CC-PVTZ
  Basis Set: (AUG-CC-PVTZ AUX)
    Blend: AUG-CC-PVTZ-JKFIT

    Orbital Energies [Eh]
    ---------------------

    Doubly Occupied:

       1A    -11.237931     2A    -11.237706     3A    -11.236575
       4A    -11.235021     5A    -11.234868     6A    -11.226923
       7A     -1.158587     8A     -1.023835     9A     -1.010945
      10A     -0.830416    11A     -0.815183    12A     -0.708112
      13A     -0.635300    14A     -0.626369    15A     -0.592122
      16A     -0.576145    17A     -0.509081    18A     -0.504735
      19A     -0.472862    20A     -0.346288    21A     -0.333785

  @DF-RHF Final Energy:  -230.76804286857435

   => Energetics <=

    Nuclear Repulsion Energy =            204.5614465952568537
    One-Electron Energy =                -715.5534017105642306
    Two-Electron Energy =                 280.2239122467330503
    Total Energy =                       -230.7680428685743550
  Basis Set: (AUG-CC-PVTZ AUX)
    Blend: AUG-CC-PVTZ-RI
    Molecular point group: c1

    Geometry (in Angstrom), charge = 0, multiplicity = 1:

       Center              X                  Y                   Z               Mass
    ------------   -----------------  -----------------  -----------------  -----------------
         C           -0.685890885704    -1.133058848344     0.000010285136    12.000000000000
         H           -1.361151085704    -2.093935548344    -0.000066814864     1.007825032230
         C           -1.408146085704     0.062483451656    -0.000072814864    12.000000000000
         H           -2.494228085704     0.116811451656     0.000456185136     1.007825032230
         C           -0.650167085704     1.235718451656     0.000066185136    12.000000000000
         H           -1.146179085704     2.203454451656    -0.000125814864     1.007825032230
         C            0.744854914296     1.165942451656    -0.000074814864    12.000000000000
         H            1.334978914296     2.079328451656     0.000067185136     1.007825032230
         C            1.381949914296    -0.077092548344     0.000107185136    12.000000000000
         H            2.468036914296    -0.131389548344     0.000206185136     1.007825032230
         C            0.623996914296    -1.250315548344    -0.000082814864    12.000000000000
         H            1.119984914296    -2.218055548344     0.000020185136     1.007825032230

  Basis Set: AUG-CC-PVTZ
    Blend: AUG-CC-PVTZ
  Basis Set: (AUG-CC-PVTZ AUX)
    Blend: AUG-CC-PVTZ-JKFIT
	 Reference Energy          =    -230.7680428685743550 [Eh]
	 Singles Energy            =      -0.0000000000000000 [Eh]
	 Same-Spin Energy          =      -0.2556809357359345 [Eh]
	 Opposite-Spin Energy      =      -0.8190451204248752 [Eh]
	 Correlation Energy        =      -1.0747260561608096 [Eh]
	 Total Energy              =    -231.8427689247351680 [Eh]

	 ================> DF-SCS-MP2 Energies <==================
	-----------------------------------------------------------
	 SCS Same-Spin Scale       =       0.3333333333333333 [-]
	 SCS Opposite-Spin Scale   =       1.2000000000000000 [-]
	 SCS Same-Spin Energy      =      -0.0852269785786448 [Eh]
	 SCS Opposite-Spin Energy  =      -0.9828541445098502 [Eh]
	 SCS Correlation Energy    =      -1.0680811230884950 [Eh]
	 SCS Total Energy          =    -231.8361239916628449 [Eh]
	-----------------------------------------------------------

  Dipole Moment: [D]
     X:     0.0220      Y:     0.0562      Z:     0.0004     Total:     0.0604

*** Psi4 exiting successfully. Buy a developer a beer!
