                               Psi4 1.4a3.dev225

  ==> Input File <==

--------------------------------------------------------------------------
#psi4
#
memory 32 gb

molecule  {
0 1
  C       -1.1166550    -0.8391130    -0.0000170
  H       -1.9699981    -1.4803572     0.0000134
  C        0.1683650    -1.3866060     0.0000150
  H        0.2994420    -2.4661000     0.0000130
  C        1.2850220    -0.5474960    -0.0000180
  H        2.2854270    -0.9737280     0.0000080
  C        1.1166540     0.8391130     0.0000160
  H        1.9859870     1.4923730    -0.0000260
  C       -0.1683650     1.3866070    -0.0000140
  H       -0.2994410     2.4661010     0.0000400
  C       -1.2850210     0.5474950     0.0000150
  H       -2.2854280     0.9737260    -0.0000310
units angstrom
no_reorient  #important for SAPT in psi4, default
symmetry c1  #important for SAPT in psi4, default
}

set PROPERTIES_ORIGIN ["COM"]
properties('MP2/aug-cc-pvtz', properties = ['dipole'])
--------------------------------------------------------------------------

    Molecular point group: c1
  Charge       = 0
  Multiplicity = 1
  Basis Set: AUG-CC-PVTZ
    Blend: AUG-CC-PVTZ
  Basis Set: (AUG-CC-PVTZ AUX)
    Blend: AUG-CC-PVTZ-JKFIT

    Orbital Energies [Eh]
    ---------------------

    Doubly Occupied:

       1A    -11.237997     2A    -11.237511     3A    -11.237113
       4A    -11.236283     5A    -11.235954     6A    -11.234368
       7A     -1.148667     8A     -1.014205     9A     -1.013387
      10A     -0.824128    11A     -0.822691    12A     -0.708284
      13A     -0.644051    14A     -0.618154    15A     -0.588176
      16A     -0.586611    17A     -0.501268    18A     -0.495327
      19A     -0.494094    20A     -0.336431    21A     -0.336398

  @DF-RHF Final Energy:  -230.78038131534117

   => Energetics <=

    Nuclear Repulsion Energy =            203.2485254227131861
    One-Electron Energy =                -712.9556172945369781
    Two-Electron Energy =                 278.9267105564825897
    Total Energy =                       -230.7803813153411738
  Basis Set: (AUG-CC-PVTZ AUX)
    Blend: AUG-CC-PVTZ-RI
    Molecular point group: c1

    Geometry (in Angstrom), charge = 0, multiplicity = 1:

       Center              X                  Y                   Z               Mass
    ------------   -----------------  -----------------  -----------------  -----------------
         C           -1.116861465642    -0.839268147846    -0.000016763426    12.000000000000
         H           -1.970204565642    -1.480512347846     0.000013636574     1.007825032230
         C            0.168158534358    -1.386761147846     0.000015236574    12.000000000000
         H            0.299235534358    -2.466255147846     0.000013236574     1.007825032230
         C            1.284815534358    -0.547651147846    -0.000017763426    12.000000000000
         H            2.285220534358    -0.973883147846     0.000008236574     1.007825032230
         C            1.116447534358     0.838957852154     0.000016236574    12.000000000000
         H            1.985780534358     1.492217852154    -0.000025763426     1.007825032230
         C           -0.168571465642     1.386451852154    -0.000013763426    12.000000000000
         H           -0.299647465642     2.465945852154     0.000040236574     1.007825032230
         C           -1.285227465642     0.547339852154     0.000015236574    12.000000000000
         H           -2.285634465642     0.973570852154    -0.000030763426     1.007825032230

  Basis Set: AUG-CC-PVTZ
    Blend: AUG-CC-PVTZ
  Basis Set: (AUG-CC-PVTZ AUX)
    Blend: AUG-CC-PVTZ-JKFIT
	 Reference Energy          =    -230.7803813153411738 [Eh]
	 Singles Energy            =      -0.0000000000000000 [Eh]
	 Same-Spin Energy          =      -0.2554076179253733 [Eh]
	 Opposite-Spin Energy      =      -0.8186400695368238 [Eh]
	 Correlation Energy        =      -1.0740476874621971 [Eh]
	 Total Energy              =    -231.8544290028033572 [Eh]

	 ================> DF-SCS-MP2 Energies <==================
	-----------------------------------------------------------
	 SCS Same-Spin Scale       =       0.3333333333333333 [-]
	 SCS Opposite-Spin Scale   =       1.2000000000000000 [-]
	 SCS Same-Spin Energy      =      -0.0851358726417911 [Eh]
	 SCS Opposite-Spin Energy  =      -0.9823680834441885 [Eh]
	 SCS Correlation Energy    =      -1.0675039560859796 [Eh]
	 SCS Total Energy          =    -231.8478852714271454 [Eh]
	-----------------------------------------------------------

  Dipole Moment: [D]
     X:    -0.0063      Y:    -0.0047      Z:     0.0000     Total:     0.0079

*** Psi4 exiting successfully. Buy a developer a beer!
