                               Psi4 1.4a3.dev225

  ==> Input File <==

--------------------------------------------------------------------------
#psi4
#
memory 32 gb

molecule  {
0 1
  C       -1.1166550    -0.8391130    -0.0000170
  H       -1.9859870    -1.4923720     0.0000140
  C        0.1499654    -1.3787667     0.0000145
  H        0.2994420    -2.4661000     0.0000130
  C        1.2850220    -0.5474960    -0.0000180
  H        2.2854270    -0.9737280     0.0000080
  C        1.1166540     0.8391130     0.0000160
  H        1.9859870     1.4923730    -0.0000260
  C       -0.1683650     1.3866070    -0.0000140
  H       -0.2994410     2.4661010     0.0000400
  C       -1.2850210     0.5474950     0.0000150
  H       -2.2854280     0.9737260    -0.0000310
units angstrom
no_reorient  #important for SAPT in psi4, default
symmetry c1  #important for SAPT in psi4, default
}

set PROPERTIES_ORIGIN ["COM"]
properties('MP2/aug-cc-pvtz', properties = ['dipole'])
--------------------------------------------------------------------------

    Molecular point group: c1
  Charge       = 0
  Multiplicity = 1
  Basis Set: AUG-CC-PVTZ
    Blend: AUG-CC-PVTZ
  Basis Set: (AUG-CC-PVTZ AUX)
    Blend: AUG-CC-PVTZ-JKFIT

    Orbital Energies [Eh]
    ---------------------

    Doubly Occupied:

       1A    -11.238482     2A    -11.237762     3A    -11.237175
       4A    -11.236551     5A    -11.236066     6A    -11.234438
       7A     -1.149720     8A     -1.016084     9A     -1.011806
      10A     -0.824437    11A     -0.821020    12A     -0.707325
      13A     -0.641566    14A     -0.619104    15A     -0.588159
      16A     -0.584793    17A     -0.502223    18A     -0.496787
      19A     -0.490860    20A     -0.339074    21A     -0.334775

  @DF-RHF Final Energy:  -230.77982892673674

   => Energetics <=

    Nuclear Repulsion Energy =            203.3149039913113825
    One-Electron Energy =                -713.0930537504481208
    Two-Electron Energy =                 278.9983208323999975
    Total Energy =                       -230.7798289267367409
  Basis Set: (AUG-CC-PVTZ AUX)
    Blend: AUG-CC-PVTZ-RI
    Molecular point group: c1

    Geometry (in Angstrom), charge = 0, multiplicity = 1:

       Center              X                  Y                   Z               Mass
    ------------   -----------------  -----------------  -----------------  -----------------
         C           -1.113825995158    -0.840318320641    -0.000016694297    12.000000000000
         H           -1.983157995158    -1.493577320641     0.000014305703     1.007825032230
         C            0.152794404842    -1.379972020641     0.000014805703    12.000000000000
         H            0.302271004842    -2.467305320641     0.000013305703     1.007825032230
         C            1.287851004842    -0.548701320641    -0.000017694297    12.000000000000
         H            2.288256004842    -0.974933320641     0.000008305703     1.007825032230
         C            1.119483004842     0.837907679359     0.000016305703    12.000000000000
         H            1.988816004842     1.491167679359    -0.000025694297     1.007825032230
         C           -0.165535995158     1.385401679359    -0.000013694297    12.000000000000
         H           -0.296611995158     2.464895679359     0.000040305703     1.007825032230
         C           -1.282191995158     0.546289679359     0.000015305703    12.000000000000
         H           -2.282598995158     0.972520679359    -0.000030694297     1.007825032230

  Basis Set: AUG-CC-PVTZ
    Blend: AUG-CC-PVTZ
  Basis Set: (AUG-CC-PVTZ AUX)
    Blend: AUG-CC-PVTZ-JKFIT
	 Reference Energy          =    -230.7798289267367409 [Eh]
	 Singles Energy            =      -0.0000000000000000 [Eh]
	 Same-Spin Energy          =      -0.2554463317304459 [Eh]
	 Opposite-Spin Energy      =      -0.8187372950476148 [Eh]
	 Correlation Energy        =      -1.0741836267780607 [Eh]
	 Total Energy              =    -231.8540125535147922 [Eh]

	 ================> DF-SCS-MP2 Energies <==================
	-----------------------------------------------------------
	 SCS Same-Spin Scale       =       0.3333333333333333 [-]
	 SCS Opposite-Spin Scale   =       1.2000000000000000 [-]
	 SCS Same-Spin Energy      =      -0.0851487772434820 [Eh]
	 SCS Opposite-Spin Energy  =      -0.9824847540571378 [Eh]
	 SCS Correlation Energy    =      -1.0676335313006198 [Eh]
	 SCS Total Energy          =    -231.8474624580373700 [Eh]
	-----------------------------------------------------------

  Dipole Moment: [D]
     X:     0.0039      Y:     0.0045      Z:     0.0000     Total:     0.0059

*** Psi4 exiting successfully. Buy a developer a beer!
