                               Psi4 1.3.2 release

  ==> Input File <==

--------------------------------------------------------------------------
#psi4
#
memory 32 gb

molecule  {
0 1
  C       -0.7149616    -1.1502384     0.0000256
  H       -1.3480580    -2.0866370    -0.0000820
  C       -1.3950530     0.0697820    -0.0000880
  H       -2.4811350     0.1241100     0.0004410
  C       -0.6370740     1.2430170     0.0000510
  H       -1.1330860     2.2107530    -0.0001410
  C        0.7579480     1.1732410    -0.0000900
  H        1.3480720     2.0866270     0.0000520
  C        1.3950430    -0.0697940     0.0000920
  H        2.4811300    -0.1240910     0.0001910
  C        0.6370900    -1.2430170    -0.0000980
  H        1.1330780    -2.2107570     0.0000050
units angstrom
no_reorient  #important for SAPT in psi4, default
symmetry c1  #important for SAPT in psi4, default
}

set PROPERTIES_ORIGIN ["COM"]
properties('MP2/aug-cc-pvtz', properties = ['dipole'])
--------------------------------------------------------------------------

    Molecular point group: c1
  Charge       = 0
  Multiplicity = 1
  Basis Set: AUG-CC-PVTZ
    Blend: AUG-CC-PVTZ
  Basis Set: (AUG-CC-PVTZ AUX)
    Blend: AUG-CC-PVTZ-JKFIT

    Orbital Energies [Eh]
    ---------------------

    Doubly Occupied:

       1A    -11.237835     2A    -11.237471     3A    -11.236735
       4A    -11.235715     5A    -11.235538     6A    -11.231855
       7A     -1.153242     8A     -1.018426     9A     -1.012172
      10A     -0.826529    11A     -0.818784    12A     -0.707481
      13A     -0.638382    14A     -0.621856    15A     -0.589624
      16A     -0.581536    17A     -0.504946    18A     -0.499912
      19A     -0.484546    20A     -0.341266    21A     -0.335032

  @DF-RHF Final Energy:  -230.77738575848403

   => Energetics <=

    Nuclear Repulsion Energy =            203.8420581418664028
    One-Electron Energy =                -714.1411191832925169
    Two-Electron Energy =                 279.5216752829420557
    Total Energy =                       -230.7773857584840584
  Basis Set: (AUG-CC-PVTZ AUX)
    Blend: AUG-CC-PVTZ-RI
    Molecular point group: c1

    Geometry (in Angstrom), charge = 0, multiplicity = 1:

       Center              X                  Y                   Z               Mass
    ------------   -----------------  -----------------  -----------------  -----------------
         C           -0.721571849427    -1.153773352211     0.000036095651    12.000000000000
         H           -1.354668249427    -2.090171952211    -0.000071504349     1.007825032230
         C           -1.401663249427     0.066247047789    -0.000077504349    12.000000000000
         H           -2.487745249427     0.120575047789     0.000451495651     1.007825032230
         C           -0.643684249427     1.239482047789     0.000061495651    12.000000000000
         H           -1.139696249427     2.207218047789    -0.000130504349     1.007825032230
         C            0.751337750573     1.169706047789    -0.000079504349    12.000000000000
         H            1.341461750573     2.083092047789     0.000062495651     1.007825032230
         C            1.388432750573    -0.073328952211     0.000102495651    12.000000000000
         H            2.474519750573    -0.127625952211     0.000201495651     1.007825032230
         C            0.630479750573    -1.246551952211    -0.000087504349    12.000000000000
         H            1.126467750573    -2.214291952211     0.000015495651     1.007825032230

  Basis Set: AUG-CC-PVTZ
    Blend: AUG-CC-PVTZ
  Basis Set: (AUG-CC-PVTZ AUX)
    Blend: AUG-CC-PVTZ-JKFIT
	 Reference Energy          =    -230.7773857584840300 [Eh]
	 Singles Energy            =      -0.0000000000000000 [Eh]
	 Same-Spin Energy          =      -0.2555280330189300 [Eh]
	 Opposite-Spin Energy      =      -0.8187283082705494 [Eh]
	 Correlation Energy        =      -1.0742563412894794 [Eh]
	 Total Energy              =    -231.8516420997734997 [Eh]

	 ================> DF-SCS-MP2 Energies <==================
	-----------------------------------------------------------
	 SCS Same-Spin Scale       =       0.3333333333333333 [-]
	 SCS Opposite-Spin Scale   =       1.2000000000000000 [-]
	 SCS Same-Spin Energy      =      -0.0851760110063100 [Eh]
	 SCS Opposite-Spin Energy  =      -0.9824739699246593 [Eh]
	 SCS Correlation Energy    =      -1.0676499809309692 [Eh]
	 SCS Total Energy          =    -231.8450357394150103 [Eh]
	-----------------------------------------------------------

  Dipole Moment: [D]
     X:     0.0069      Y:     0.0220      Z:     0.0004     Total:     0.0230

*** Psi4 exiting successfully. Buy a developer a beer!
