                               Psi4 1.4a3.dev225

  ==> Input File <==

--------------------------------------------------------------------------
#psi4
#
memory 32 gb

molecule  {
0 1
  C       -1.1166550    -0.8391130    -0.0000170
  H       -1.9859870    -1.4923720     0.0000140
  C        0.2143640    -1.4062042     0.0000161
  H        0.2994420    -2.4661000     0.0000130
  C        1.2850220    -0.5474960    -0.0000180
  H        2.2854270    -0.9737280     0.0000080
  C        1.1166540     0.8391130     0.0000160
  H        1.9859870     1.4923730    -0.0000260
  C       -0.1683650     1.3866070    -0.0000140
  H       -0.2994410     2.4661010     0.0000400
  C       -1.2850210     0.5474950     0.0000150
  H       -2.2854280     0.9737260    -0.0000310
units angstrom
no_reorient  #important for SAPT in psi4, default
symmetry c1  #important for SAPT in psi4, default
}

set PROPERTIES_ORIGIN ["COM"]
properties('MP2/aug-cc-pvtz', properties = ['dipole'])
--------------------------------------------------------------------------

    Molecular point group: c1
  Charge       = 0
  Multiplicity = 1
  Basis Set: AUG-CC-PVTZ
    Blend: AUG-CC-PVTZ
  Basis Set: (AUG-CC-PVTZ AUX)
    Blend: AUG-CC-PVTZ-JKFIT

    Orbital Energies [Eh]
    ---------------------

    Doubly Occupied:

       1A    -11.242313     2A    -11.238306     3A    -11.237787
       4A    -11.237097     5A    -11.236410     6A    -11.234519
       7A     -1.146508     8A     -1.017873     9A     -1.007733
      10A     -0.826988    11A     -0.819002    12A     -0.707470
      13A     -0.646075    14A     -0.617175    15A     -0.590932
      16A     -0.582803    17A     -0.501654    18A     -0.499726
      19A     -0.486897    20A     -0.341098    21A     -0.330737

  @DF-RHF Final Energy:  -230.77710161336438

   => Energetics <=

    Nuclear Repulsion Energy =            202.7708233205570707
    One-Electron Energy =                -711.9976408309389626
    Two-Electron Energy =                 278.4497158970175406
    Total Energy =                       -230.7771016133643798
  Basis Set: (AUG-CC-PVTZ AUX)
    Blend: AUG-CC-PVTZ-RI
    Molecular point group: c1

    Geometry (in Angstrom), charge = 0, multiplicity = 1:

       Center              X                  Y                   Z               Mass
    ------------   -----------------  -----------------  -----------------  -----------------
         C           -1.123727512105    -0.836099706086    -0.000016940303    12.000000000000
         H           -1.993059512105    -1.489358706086     0.000014059697     1.007825032230
         C            0.207291487895    -1.403190906086     0.000016159697    12.000000000000
         H            0.292369487895    -2.463086706086     0.000013059697     1.007825032230
         C            1.277949487895    -0.544482706086    -0.000017940303    12.000000000000
         H            2.278354487895    -0.970714706086     0.000008059697     1.007825032230
         C            1.109581487895     0.842126293914     0.000016059697    12.000000000000
         H            1.978914487895     1.495386293914    -0.000025940303     1.007825032230
         C           -0.175437512105     1.389620293914    -0.000013940303    12.000000000000
         H           -0.306513512105     2.469114293914     0.000040059697     1.007825032230
         C           -1.292093512105     0.550508293914     0.000015059697    12.000000000000
         H           -2.292500512105     0.976739293914    -0.000030940303     1.007825032230

  Basis Set: AUG-CC-PVTZ
    Blend: AUG-CC-PVTZ
  Basis Set: (AUG-CC-PVTZ AUX)
    Blend: AUG-CC-PVTZ-JKFIT
	 Reference Energy          =    -230.7771016133643798 [Eh]
	 Singles Energy            =      -0.0000000000000000 [Eh]
	 Same-Spin Energy          =      -0.2553721022869230 [Eh]
	 Opposite-Spin Energy      =      -0.8190614569419556 [Eh]
	 Correlation Energy        =      -1.0744335592288787 [Eh]
	 Total Energy              =    -231.8515351725932589 [Eh]

	 ================> DF-SCS-MP2 Energies <==================
	-----------------------------------------------------------
	 SCS Same-Spin Scale       =       0.3333333333333333 [-]
	 SCS Opposite-Spin Scale   =       1.2000000000000000 [-]
	 SCS Same-Spin Energy      =      -0.0851240340956410 [Eh]
	 SCS Opposite-Spin Energy  =      -0.9828737483303467 [Eh]
	 SCS Correlation Energy    =      -1.0679977824259876 [Eh]
	 SCS Total Energy          =    -231.8450993957903563 [Eh]
	-----------------------------------------------------------

  Dipole Moment: [D]
     X:    -0.0093      Y:    -0.0085      Z:     0.0000     Total:     0.0126

*** Psi4 exiting successfully. Buy a developer a beer!
