                               Psi4 1.4a3.dev225

  ==> Input File <==

--------------------------------------------------------------------------
#psi4
#
memory 32 gb

molecule  {
0 1
  C       -1.1166550    -0.8391130    -0.0000170
  H       -1.9859870    -1.4923720     0.0000140
  C        0.1867646    -1.3944453     0.0000155
  H        0.2994420    -2.4661000     0.0000130
  C        1.2850220    -0.5474960    -0.0000180
  H        2.2854270    -0.9737280     0.0000080
  C        1.1166540     0.8391130     0.0000160
  H        1.9859870     1.4923730    -0.0000260
  C       -0.1683650     1.3866070    -0.0000140
  H       -0.2994410     2.4661010     0.0000400
  C       -1.2850210     0.5474950     0.0000150
  H       -2.2854280     0.9737260    -0.0000310
units angstrom
no_reorient  #important for SAPT in psi4, default
symmetry c1  #important for SAPT in psi4, default
}

set PROPERTIES_ORIGIN ["COM"]
properties('MP2/aug-cc-pvtz', properties = ['dipole'])
--------------------------------------------------------------------------

    Molecular point group: c1
  Charge       = 0
  Multiplicity = 1
  Basis Set: AUG-CC-PVTZ
    Blend: AUG-CC-PVTZ
  Basis Set: (AUG-CC-PVTZ AUX)
    Blend: AUG-CC-PVTZ-JKFIT

    Orbital Energies [Eh]
    ---------------------

    Doubly Occupied:

       1A    -11.239509     2A    -11.238054     3A    -11.237605
       4A    -11.236956     5A    -11.236355     6A    -11.235604
       7A     -1.147726     8A     -1.015269     9A     -1.011115
      10A     -0.824533    11A     -0.821237    12A     -0.707371
      13A     -0.643911    14A     -0.617672    15A     -0.588558
      16A     -0.585233    17A     -0.500681    18A     -0.497394
      19A     -0.491494    20A     -0.338328    21A     -0.334116

  @DF-RHF Final Energy:  -230.77968846019988

   => Energetics <=

    Nuclear Repulsion Energy =            202.9969533530033914
    One-Electron Energy =                -712.4558376883165920
    Two-Electron Energy =                 278.6791958751132938
    Total Energy =                       -230.7796884601999068
  Basis Set: (AUG-CC-PVTZ AUX)
    Blend: AUG-CC-PVTZ-RI
    Molecular point group: c1

    Geometry (in Angstrom), charge = 0, multiplicity = 1:

       Center              X                  Y                   Z               Mass
    ------------   -----------------  -----------------  -----------------  -----------------
         C           -1.119484004842    -0.837907679359    -0.000016848051    12.000000000000
         H           -1.988816004842    -1.491166679359     0.000014151949     1.007825032230
         C            0.183935595158    -1.393239979359     0.000015651949    12.000000000000
         H            0.296612995158    -2.464894679359     0.000013151949     1.007825032230
         C            1.282192995158    -0.546290679359    -0.000017848051    12.000000000000
         H            2.282597995158    -0.972522679359     0.000008151949     1.007825032230
         C            1.113824995158     0.840318320641     0.000016151949    12.000000000000
         H            1.983157995158     1.493578320641    -0.000025848051     1.007825032230
         C           -0.171194004842     1.387812320641    -0.000013848051    12.000000000000
         H           -0.302270004842     2.467306320641     0.000040151949     1.007825032230
         C           -1.287850004842     0.548700320641     0.000015151949    12.000000000000
         H           -2.288257004842     0.974931320641    -0.000030848051     1.007825032230

  Basis Set: AUG-CC-PVTZ
    Blend: AUG-CC-PVTZ
  Basis Set: (AUG-CC-PVTZ AUX)
    Blend: AUG-CC-PVTZ-JKFIT
	 Reference Energy          =    -230.7796884601998784 [Eh]
	 Singles Energy            =      -0.0000000000000000 [Eh]
	 Same-Spin Energy          =      -0.2554201408584713 [Eh]
	 Opposite-Spin Energy      =      -0.8188432673260666 [Eh]
	 Correlation Energy        =      -1.0742634081845379 [Eh]
	 Total Energy              =    -231.8539518683844278 [Eh]

	 ================> DF-SCS-MP2 Energies <==================
	-----------------------------------------------------------
	 SCS Same-Spin Scale       =       0.3333333333333333 [-]
	 SCS Opposite-Spin Scale   =       1.2000000000000000 [-]
	 SCS Same-Spin Energy      =      -0.0851400469528237 [Eh]
	 SCS Opposite-Spin Energy  =      -0.9826119207912799 [Eh]
	 SCS Correlation Energy    =      -1.0677519677441036 [Eh]
	 SCS Total Energy          =    -231.8474404279439796 [Eh]
	-----------------------------------------------------------

  Dipole Moment: [D]
     X:    -0.0038      Y:    -0.0039      Z:     0.0000     Total:     0.0054

*** Psi4 exiting successfully. Buy a developer a beer!
