                               Psi4 1.3.2 release

  ==> Input File <==

--------------------------------------------------------------------------
#psi4
#
memory 32 gb

molecule  {
0 1
  C       -0.8913742    -1.2330156     0.0000297
  H       -1.3480580    -2.0866370    -0.0000820
  C       -1.3950530     0.0697820    -0.0000880
  H       -2.4811350     0.1241100     0.0004410
  C       -0.6370740     1.2430170     0.0000510
  H       -1.1330860     2.2107530    -0.0001410
  C        0.7579480     1.1732410    -0.0000900
  H        1.3480720     2.0866270     0.0000520
  C        1.3950430    -0.0697940     0.0000920
  H        2.4811300    -0.1240910     0.0001910
  C        0.6370900    -1.2430170    -0.0000980
  H        1.1330780    -2.2107570     0.0000050
units angstrom
no_reorient  #important for SAPT in psi4, default
symmetry c1  #important for SAPT in psi4, default
}

set PROPERTIES_ORIGIN ["COM"]
properties('MP2/aug-cc-pvtz', properties = ['dipole'])
--------------------------------------------------------------------------

    Molecular point group: c1
  Charge       = 0
  Multiplicity = 1
  Basis Set: AUG-CC-PVTZ
    Blend: AUG-CC-PVTZ
  Basis Set: (AUG-CC-PVTZ AUX)
    Blend: AUG-CC-PVTZ-JKFIT

    Orbital Energies [Eh]
    ---------------------

    Doubly Occupied:

       1A    -11.250674     2A    -11.241640     3A    -11.240811
       4A    -11.240134     5A    -11.237513     6A    -11.236894
       7A     -1.138905     8A     -1.018307     9A     -1.002441
      10A     -0.837511    11A     -0.814245    12A     -0.710037
      13A     -0.662195    14A     -0.614132    15A     -0.595179
      16A     -0.576671    17A     -0.513506    18A     -0.493781
      19A     -0.471087    20A     -0.342227    21A     -0.324370

  @DF-RHF Final Energy:  -230.75118049131748

   => Energetics <=

    Nuclear Repulsion Energy =            201.2921314062919578
    One-Electron Energy =                -708.9620969874586081
    Two-Electron Energy =                 276.9187850898491661
    Total Energy =                       -230.7511804913174842
  Basis Set: (AUG-CC-PVTZ AUX)
    Blend: AUG-CC-PVTZ-RI
    Molecular point group: c1

    Geometry (in Angstrom), charge = 0, multiplicity = 1:

       Center              X                  Y                   Z               Mass
    ------------   -----------------  -----------------  -----------------  -----------------
         C           -0.870860376100    -1.223823259247     0.000039565261    12.000000000000
         H           -1.327544176100    -2.077444659247    -0.000072134739     1.007825032230
         C           -1.374539176100     0.078974340753    -0.000078134739    12.000000000000
         H           -2.460621176100     0.133302340753     0.000450865261     1.007825032230
         C           -0.616560176100     1.252209340753     0.000060865261    12.000000000000
         H           -1.112572176100     2.219945340753    -0.000131134739     1.007825032230
         C            0.778461823900     1.182433340753    -0.000080134739    12.000000000000
         H            1.368585823900     2.095819340753     0.000061865261     1.007825032230
         C            1.415556823900    -0.060601659247     0.000101865261    12.000000000000
         H            2.501643823900    -0.114898659247     0.000200865261     1.007825032230
         C            0.657603823900    -1.233824659247    -0.000088134739    12.000000000000
         H            1.153591823900    -2.201564659247     0.000014865261     1.007825032230

  Basis Set: AUG-CC-PVTZ
    Blend: AUG-CC-PVTZ
  Basis Set: (AUG-CC-PVTZ AUX)
    Blend: AUG-CC-PVTZ-JKFIT
	 Reference Energy          =    -230.7511804913174842 [Eh]
	 Singles Energy            =      -0.0000000000000000 [Eh]
	 Same-Spin Energy          =      -0.2555552891975241 [Eh]
	 Opposite-Spin Energy      =      -0.8211040383566501 [Eh]
	 Correlation Energy        =      -1.0766593275541743 [Eh]
	 Total Energy              =    -231.8278398188716665 [Eh]

	 ================> DF-SCS-MP2 Energies <==================
	-----------------------------------------------------------
	 SCS Same-Spin Scale       =       0.3333333333333333 [-]
	 SCS Opposite-Spin Scale   =       1.2000000000000000 [-]
	 SCS Same-Spin Energy      =      -0.0851850963991747 [Eh]
	 SCS Opposite-Spin Energy  =      -0.9853248460279801 [Eh]
	 SCS Correlation Energy    =      -1.0705099424271549 [Eh]
	 SCS Total Energy          =    -231.8216904337446351 [Eh]
	-----------------------------------------------------------

  Dipole Moment: [D]
     X:     0.0113      Y:    -0.0070      Z:     0.0003     Total:     0.0133

*** Psi4 exiting successfully. Buy a developer a beer!
