                               Psi4 1.3.2 release

  ==> Input File <==

--------------------------------------------------------------------------
#psi4
#
memory 32 gb

molecule  {
0 1
  C       -0.7579540    -1.1732300     0.0000560
  H       -1.3480580    -2.0866370    -0.0000820
  C       -1.3038286    -0.1082014    -0.0000674
  H       -2.4811350     0.1241100     0.0004410
  C       -0.6370740     1.2430170     0.0000510
  H       -1.1330860     2.2107530    -0.0001410
  C        0.7579480     1.1732410    -0.0000900
  H        1.3480720     2.0866270     0.0000520
  C        1.3950430    -0.0697940     0.0000920
  H        2.4811300    -0.1240910     0.0001910
  C        0.6370900    -1.2430170    -0.0000980
  H        1.1330780    -2.2107570     0.0000050
units angstrom
no_reorient  #important for SAPT in psi4, default
symmetry c1  #important for SAPT in psi4, default
}

set PROPERTIES_ORIGIN ["COM"]
properties('MP2/aug-cc-pvtz', properties = ['dipole'])
--------------------------------------------------------------------------

    Molecular point group: c1
  Charge       = 0
  Multiplicity = 1
  Basis Set: AUG-CC-PVTZ
    Blend: AUG-CC-PVTZ
  Basis Set: (AUG-CC-PVTZ AUX)
    Blend: AUG-CC-PVTZ-JKFIT

    Orbital Energies [Eh]
    ---------------------

    Doubly Occupied:

       1A    -11.245885     2A    -11.238462     3A    -11.236860
       4A    -11.235280     5A    -11.231207     6A    -11.209470
       7A     -1.166458     8A     -1.043227     9A     -0.997052
      10A     -0.839326    11A     -0.802127    12A     -0.709112
      13A     -0.635338    14A     -0.629713    15A     -0.597974
      16A     -0.567385    17A     -0.515123    18A     -0.511719
      19A     -0.448683    20A     -0.367393    21A     -0.321473

  @DF-RHF Final Energy:  -230.71784134955243

   => Energetics <=

    Nuclear Repulsion Energy =            205.0655094527045037
    One-Electron Energy =                -716.4681697155075426
    Two-Electron Energy =                 280.6848189132505809
    Total Energy =                       -230.7178413495524296
  Basis Set: (AUG-CC-PVTZ AUX)
    Blend: AUG-CC-PVTZ-RI
    Molecular point group: c1

    Geometry (in Angstrom), charge = 0, multiplicity = 1:

       Center              X                  Y                   Z               Mass
    ------------   -----------------  -----------------  -----------------  -----------------
         C           -0.771980093334    -1.145864321321     0.000058654217    12.000000000000
         H           -1.362084093334    -2.059271321321    -0.000079345783     1.007825032230
         C           -1.317854693334    -0.080835721321    -0.000064745783    12.000000000000
         H           -2.495161093334     0.151475678679     0.000443654217     1.007825032230
         C           -0.651100093334     1.270382678679     0.000053654217    12.000000000000
         H           -1.147112093334     2.238118678679    -0.000138345783     1.007825032230
         C            0.743921906666     1.200606678679    -0.000087345783    12.000000000000
         H            1.334045906666     2.113992678679     0.000054654217     1.007825032230
         C            1.381016906666    -0.042428321321     0.000094654217    12.000000000000
         H            2.467103906666    -0.096725321321     0.000193654217     1.007825032230
         C            0.623063906666    -1.215651321321    -0.000095345783    12.000000000000
         H            1.119051906666    -2.183391321321     0.000007654217     1.007825032230

  Basis Set: AUG-CC-PVTZ
    Blend: AUG-CC-PVTZ
  Basis Set: (AUG-CC-PVTZ AUX)
    Blend: AUG-CC-PVTZ-JKFIT
	 Reference Energy          =    -230.7178413495524296 [Eh]
	 Singles Energy            =      -0.0000000000000000 [Eh]
	 Same-Spin Energy          =      -0.2550385827260619 [Eh]
	 Opposite-Spin Energy      =      -0.8204197232121397 [Eh]
	 Correlation Energy        =      -1.0754583059382017 [Eh]
	 Total Energy              =    -231.7932996554906424 [Eh]

	 ================> DF-SCS-MP2 Energies <==================
	-----------------------------------------------------------
	 SCS Same-Spin Scale       =       0.3333333333333333 [-]
	 SCS Opposite-Spin Scale   =       1.2000000000000000 [-]
	 SCS Same-Spin Energy      =      -0.0850128609086873 [Eh]
	 SCS Opposite-Spin Energy  =      -0.9845036678545677 [Eh]
	 SCS Correlation Energy    =      -1.0695165287632551 [Eh]
	 SCS Total Energy          =    -231.7873578783156745 [Eh]
	-----------------------------------------------------------

  Dipole Moment: [D]
     X:     0.0832      Y:     0.0312      Z:     0.0003     Total:     0.0889

*** Psi4 exiting successfully. Buy a developer a beer!
