                               Psi4 1.3.2 release

  ==> Input File <==

--------------------------------------------------------------------------
#psi4
#
memory 32 gb

molecule  {
0 1
  C       -0.7579540    -1.1732300     0.0000560
  H       -1.4565884    -2.2546285    -0.0001074
  C       -1.3950530     0.0697820    -0.0000880
  H       -2.4811350     0.1241100     0.0004410
  C       -0.6370740     1.2430170     0.0000510
  H       -1.1330860     2.2107530    -0.0001410
  C        0.7579480     1.1732410    -0.0000900
  H        1.3480720     2.0866270     0.0000520
  C        1.3950430    -0.0697940     0.0000920
  H        2.4811300    -0.1240910     0.0001910
  C        0.6370900    -1.2430170    -0.0000980
  H        1.1330780    -2.2107570     0.0000050
units angstrom
no_reorient  #important for SAPT in psi4, default
symmetry c1  #important for SAPT in psi4, default
}

set PROPERTIES_ORIGIN ["COM"]
properties('MP2/aug-cc-pvtz', properties = ['dipole'])
--------------------------------------------------------------------------

    Molecular point group: c1
  Charge       = 0
  Multiplicity = 1
  Basis Set: AUG-CC-PVTZ
    Blend: AUG-CC-PVTZ
  Basis Set: (AUG-CC-PVTZ AUX)
    Blend: AUG-CC-PVTZ-JKFIT

    Orbital Energies [Eh]
    ---------------------

    Doubly Occupied:

       1A    -11.258984     2A    -11.240043     3A    -11.239962
       4A    -11.239098     5A    -11.238560     6A    -11.237646
       7A     -1.149678     8A     -1.015461     9A     -1.009808
      10A     -0.824461    11A     -0.814640    12A     -0.701433
      13A     -0.633297    14A     -0.620140    15A     -0.588442
      16A     -0.570212    17A     -0.503345    18A     -0.496336
      19A     -0.479091    20A     -0.338231    21A     -0.338128

  @DF-RHF Final Energy:  -230.75815469279462

   => Energetics <=

    Nuclear Repulsion Energy =            202.3193297660141923
    One-Electron Energy =                -711.0809717768421478
    Two-Electron Energy =                 278.0034873180333079
    Total Energy =                       -230.7581546927946192
  Basis Set: (AUG-CC-PVTZ AUX)
    Blend: AUG-CC-PVTZ-RI
    Molecular point group: c1

    Geometry (in Angstrom), charge = 0, multiplicity = 1:

       Center              X                  Y                   Z               Mass
    ------------   -----------------  -----------------  -----------------  -----------------
         C           -0.756552553233    -1.171060626317     0.000062149533    12.000000000000
         H           -1.455186953233    -2.252459126317    -0.000101250467     1.007825032230
         C           -1.393651553233     0.071951373683    -0.000081850467    12.000000000000
         H           -2.479733553233     0.126279373683     0.000447149533     1.007825032230
         C           -0.635672553233     1.245186373683     0.000057149533    12.000000000000
         H           -1.131684553233     2.212922373683    -0.000134850467     1.007825032230
         C            0.759349446767     1.175410373683    -0.000083850467    12.000000000000
         H            1.349473446767     2.088796373683     0.000058149533     1.007825032230
         C            1.396444446767    -0.067624626317     0.000098149533    12.000000000000
         H            2.482531446767    -0.121921626317     0.000197149533     1.007825032230
         C            0.638491446767    -1.240847626317    -0.000091850467    12.000000000000
         H            1.134479446767    -2.208587626317     0.000011149533     1.007825032230

  Basis Set: AUG-CC-PVTZ
    Blend: AUG-CC-PVTZ
  Basis Set: (AUG-CC-PVTZ AUX)
    Blend: AUG-CC-PVTZ-JKFIT
	 Reference Energy          =    -230.7581546927946192 [Eh]
	 Singles Energy            =      -0.0000000000000000 [Eh]
	 Same-Spin Energy          =      -0.2558852628903234 [Eh]
	 Opposite-Spin Energy      =      -0.8209001491737911 [Eh]
	 Correlation Energy        =      -1.0767854120641145 [Eh]
	 Total Energy              =    -231.8349401048587310 [Eh]

	 ================> DF-SCS-MP2 Energies <==================
	-----------------------------------------------------------
	 SCS Same-Spin Scale       =       0.3333333333333333 [-]
	 SCS Opposite-Spin Scale   =       1.2000000000000000 [-]
	 SCS Same-Spin Energy      =      -0.0852950876301078 [Eh]
	 SCS Opposite-Spin Energy  =      -0.9850801790085493 [Eh]
	 SCS Correlation Energy    =      -1.0703752666386570 [Eh]
	 SCS Total Energy          =    -231.8285299594332685 [Eh]
	-----------------------------------------------------------

  Dipole Moment: [D]
     X:     0.0638      Y:     0.0987      Z:     0.0003     Total:     0.1175

*** Psi4 exiting successfully. Buy a developer a beer!
