                               Psi4 1.3.2 release

  ==> Input File <==

--------------------------------------------------------------------------
#psi4
#
memory 32 gb

molecule  {
0 1
  C       -0.7579540    -1.1732300     0.0000560
  H       -1.3480580    -2.0866370    -0.0000820
  C       -1.4406652     0.1587737    -0.0000983
  H       -2.4811350     0.1241100     0.0004410
  C       -0.6370740     1.2430170     0.0000510
  H       -1.1330860     2.2107530    -0.0001410
  C        0.7579480     1.1732410    -0.0000900
  H        1.3480720     2.0866270     0.0000520
  C        1.3950430    -0.0697940     0.0000920
  H        2.4811300    -0.1240910     0.0001910
  C        0.6370900    -1.2430170    -0.0000980
  H        1.1330780    -2.2107570     0.0000050
units angstrom
no_reorient  #important for SAPT in psi4, default
symmetry c1  #important for SAPT in psi4, default
}

set PROPERTIES_ORIGIN ["COM"]
properties('MP2/aug-cc-pvtz', properties = ['dipole'])
--------------------------------------------------------------------------

    Molecular point group: c1
  Charge       = 0
  Multiplicity = 1
  Basis Set: AUG-CC-PVTZ
    Blend: AUG-CC-PVTZ
  Basis Set: (AUG-CC-PVTZ AUX)
    Blend: AUG-CC-PVTZ-JKFIT

    Orbital Energies [Eh]
    ---------------------

    Doubly Occupied:

       1A    -11.246570     2A    -11.238857     3A    -11.238195
       4A    -11.237214     5A    -11.236406     6A    -11.232531
       7A     -1.144920     8A     -1.022208     9A     -1.002744
      10A     -0.830744    11A     -0.815705    12A     -0.707738
      13A     -0.650581    14A     -0.617380    15A     -0.593767
      16A     -0.578453    17A     -0.507662    18A     -0.498471
      19A     -0.477935    20A     -0.345876    21A     -0.325723

  @DF-RHF Final Energy:  -230.76862068425456

   => Energetics <=

    Nuclear Repulsion Energy =            202.4146973557627120
    One-Electron Energy =                -711.2672716473283572
    Two-Electron Energy =                 278.0839536073110594
    Total Energy =                       -230.7686206842545857
  Basis Set: (AUG-CC-PVTZ AUX)
    Blend: AUG-CC-PVTZ-RI
    Molecular point group: c1

    Geometry (in Angstrom), charge = 0, multiplicity = 1:

       Center              X                  Y                   Z               Mass
    ------------   -----------------  -----------------  -----------------  -----------------
         C           -0.750940972703    -1.186912705557     0.000063405203    12.000000000000
         H           -1.341044972703    -2.100319705557    -0.000074594797     1.007825032230
         C           -1.433652172703     0.145090994443    -0.000090894797    12.000000000000
         H           -2.474121972703     0.110427294443     0.000448405203     1.007825032230
         C           -0.630060972703     1.229334294443     0.000058405203    12.000000000000
         H           -1.126072972703     2.197070294443    -0.000133594797     1.007825032230
         C            0.764961027297     1.159558294443    -0.000082594797    12.000000000000
         H            1.355085027297     2.072944294443     0.000059405203     1.007825032230
         C            1.402056027297    -0.083476705557     0.000099405203    12.000000000000
         H            2.488143027297    -0.137773705557     0.000198405203     1.007825032230
         C            0.644103027297    -1.256699705557    -0.000090594797    12.000000000000
         H            1.140091027297    -2.224439705557     0.000012405203     1.007825032230

  Basis Set: AUG-CC-PVTZ
    Blend: AUG-CC-PVTZ
  Basis Set: (AUG-CC-PVTZ AUX)
    Blend: AUG-CC-PVTZ-JKFIT
	 Reference Energy          =    -230.7686206842545573 [Eh]
	 Singles Energy            =      -0.0000000000000000 [Eh]
	 Same-Spin Energy          =      -0.2552558055243220 [Eh]
	 Opposite-Spin Energy      =      -0.8196480821258141 [Eh]
	 Correlation Energy        =      -1.0749038876501360 [Eh]
	 Total Energy              =    -231.8435245719046804 [Eh]

	 ================> DF-SCS-MP2 Energies <==================
	-----------------------------------------------------------
	 SCS Same-Spin Scale       =       0.3333333333333333 [-]
	 SCS Opposite-Spin Scale   =       1.2000000000000000 [-]
	 SCS Same-Spin Energy      =      -0.0850852685081073 [Eh]
	 SCS Opposite-Spin Energy  =      -0.9835776985509769 [Eh]
	 SCS Correlation Energy    =      -1.0686629670590841 [Eh]
	 SCS Total Energy          =    -231.8372836513136406 [Eh]
	-----------------------------------------------------------

  Dipole Moment: [D]
     X:    -0.0126      Y:    -0.0179      Z:     0.0004     Total:     0.0219

*** Psi4 exiting successfully. Buy a developer a beer!
