                               Psi4 1.3.2 release

  ==> Input File <==

--------------------------------------------------------------------------
#psi4
#
memory 32 gb

molecule  {
0 1
  C       -0.7579540    -1.1732300     0.0000560
  H       -1.2395276    -1.9186455    -0.0000566
  C       -1.3950530     0.0697820    -0.0000880
  H       -2.4811350     0.1241100     0.0004410
  C       -0.6370740     1.2430170     0.0000510
  H       -1.1330860     2.2107530    -0.0001410
  C        0.7579480     1.1732410    -0.0000900
  H        1.3480720     2.0866270     0.0000520
  C        1.3950430    -0.0697940     0.0000920
  H        2.4811300    -0.1240910     0.0001910
  C        0.6370900    -1.2430170    -0.0000980
  H        1.1330780    -2.2107570     0.0000050
units angstrom
no_reorient  #important for SAPT in psi4, default
symmetry c1  #important for SAPT in psi4, default
}

set PROPERTIES_ORIGIN ["COM"]
properties('MP2/aug-cc-pvtz', properties = ['dipole'])
--------------------------------------------------------------------------

    Molecular point group: c1
  Charge       = 0
  Multiplicity = 1
  Basis Set: AUG-CC-PVTZ
    Blend: AUG-CC-PVTZ
  Basis Set: (AUG-CC-PVTZ AUX)
    Blend: AUG-CC-PVTZ-JKFIT

    Orbital Energies [Eh]
    ---------------------

    Doubly Occupied:

       1A    -11.237264     2A    -11.236468     3A    -11.236042
       4A    -11.235227     5A    -11.235009     6A    -11.212868
       7A     -1.149823     8A     -1.023840     9A     -1.012418
      10A     -0.841639    11A     -0.821965    12A     -0.720052
      13A     -0.657482    14A     -0.617457    15A     -0.597375
      16A     -0.585710    17A     -0.502537    18A     -0.500403
      19A     -0.493093    20A     -0.336047    21A     -0.335514

  @DF-RHF Final Energy:  -230.74557363888829

   => Energetics <=

    Nuclear Repulsion Energy =            204.2361172409954122
    One-Electron Energy =                -714.7869143768903086
    Two-Electron Energy =                 279.8052234970065797
    Total Energy =                       -230.7455736388882883
  Basis Set: (AUG-CC-PVTZ AUX)
    Blend: AUG-CC-PVTZ-RI
    Molecular point group: c1

    Geometry (in Angstrom), charge = 0, multiplicity = 1:

       Center              X                  Y                   Z               Mass
    ------------   -----------------  -----------------  -----------------  -----------------
         C           -0.759355472594    -1.175399195306     0.000061493549    12.000000000000
         H           -1.240929072594    -1.920814695306    -0.000051106451     1.007825032230
         C           -1.396454472594     0.067612804694    -0.000082506451    12.000000000000
         H           -2.482536472594     0.121940804694     0.000446493549     1.007825032230
         C           -0.638475472594     1.240847804694     0.000056493549    12.000000000000
         H           -1.134487472594     2.208583804694    -0.000135506451     1.007825032230
         C            0.756546527406     1.171071804694    -0.000084506451    12.000000000000
         H            1.346670527406     2.084457804694     0.000057493549     1.007825032230
         C            1.393641527406    -0.071963195306     0.000097493549    12.000000000000
         H            2.479728527406    -0.126260195306     0.000196493549     1.007825032230
         C            0.635688527406    -1.245186195306    -0.000092506451    12.000000000000
         H            1.131676527406    -2.212926195306     0.000010493549     1.007825032230

  Basis Set: AUG-CC-PVTZ
    Blend: AUG-CC-PVTZ
  Basis Set: (AUG-CC-PVTZ AUX)
    Blend: AUG-CC-PVTZ-JKFIT
	 Reference Energy          =    -230.7455736388882883 [Eh]
	 Singles Energy            =      -0.0000000000000000 [Eh]
	 Same-Spin Energy          =      -0.2553104800787052 [Eh]
	 Opposite-Spin Energy      =      -0.8184755221531317 [Eh]
	 Correlation Energy        =      -1.0737860022318368 [Eh]
	 Total Energy              =    -231.8193596411201156 [Eh]

	 ================> DF-SCS-MP2 Energies <==================
	-----------------------------------------------------------
	 SCS Same-Spin Scale       =       0.3333333333333333 [-]
	 SCS Opposite-Spin Scale   =       1.2000000000000000 [-]
	 SCS Same-Spin Energy      =      -0.0851034933595684 [Eh]
	 SCS Opposite-Spin Energy  =      -0.9821706265837580 [Eh]
	 SCS Correlation Energy    =      -1.0672741199433264 [Eh]
	 SCS Total Energy          =    -231.8128477588316230 [Eh]
	-----------------------------------------------------------

  Dipole Moment: [D]
     X:    -0.0252      Y:    -0.0391      Z:     0.0004     Total:     0.0465

*** Psi4 exiting successfully. Buy a developer a beer!
