                               Psi4 1.3.2 release

  ==> Input File <==

--------------------------------------------------------------------------
#psi4
#
memory 32 gb

molecule  {
1 1
  N       -3.3283680     0.1942120    -0.0000200
  N       -0.5495980    -0.2948890     0.0000300
  C       -2.6173460    -0.2537290    -1.2573450
  C       -2.6173490    -0.2534950     1.2573910
  C       -1.2141067     0.2644444    -1.1707863
  C       -1.1824500     0.2380150     1.2003390
  C        0.8881070    -0.1264310     0.0000120
  C        1.4779170     1.1432740    -0.0000950
  C        1.6780490    -1.2778510     0.0001130
  C        2.8695240     1.2540050    -0.0001090
  C        3.0687920    -1.1592000     0.0000980
  C        3.6642520     0.1047860    -0.0000090
  H       -3.3852960     1.2227380    -0.0001140
  H       -4.2988450    -0.1479970     0.0000100
  H       -3.1713790     0.1478040    -2.1095990
  H       -2.6546500    -1.3444640    -1.2649060
  H       -2.6546490    -1.3442280     1.2651520
  H       -3.1713850     0.1481950     2.1095680
  H       -0.6521860    -0.1397250    -2.0793070
  H       -1.1612660     1.3434560    -1.2528060
  H       -1.1612790     1.3436960     1.2525480
  H       -0.6521900    -0.1393200     2.0793360
  H        0.8654370     2.0434980    -0.0001730
  H        1.1935250    -2.2508840     0.0001950
  H        3.3333780     2.2368900    -0.0001920
  H        3.6871730    -2.0528130     0.0001780
  H        4.7470650     0.1949390    -0.0000240
units angstrom
no_reorient  #important for SAPT in psi4, default
symmetry c1  #important for SAPT in psi4, default
}

set PROPERTIES_ORIGIN ["COM"]
properties('MP2/aug-cc-pvtz', properties = ['dipole'])
--------------------------------------------------------------------------

    Molecular point group: c1
  Charge       = 1
  Multiplicity = 1
  Basis Set: AUG-CC-PVTZ
    Blend: AUG-CC-PVTZ
  Basis Set: (AUG-CC-PVTZ AUX)
    Blend: AUG-CC-PVTZ-JKFIT

    Orbital Energies [Eh]
    ---------------------

    Doubly Occupied:

       1A    -15.865613     2A    -15.705381     3A    -11.457245
       4A    -11.456595     5A    -11.417026     6A    -11.416348
       7A    -11.379685     8A    -11.344591     9A    -11.339143
      10A    -11.339106    11A    -11.336740    12A    -11.333760
      13A     -1.498284    14A     -1.390441    15A     -1.250173
      16A     -1.223080    17A     -1.155934    18A     -1.119669
      19A     -1.087297    20A     -1.050550    21A     -0.998538
      22A     -0.938952    23A     -0.926405    24A     -0.923517
      25A     -0.870608    26A     -0.825490    27A     -0.819139
      28A     -0.790355    29A     -0.787503    30A     -0.767889
      31A     -0.738869    32A     -0.736154    33A     -0.718064
      34A     -0.707128    35A     -0.692057    36A     -0.688768
      37A     -0.661827    38A     -0.647163    39A     -0.607692
      40A     -0.602633    41A     -0.601486    42A     -0.522658
      43A     -0.440365    44A     -0.438458

  @DF-RHF Final Energy:  -496.25723642038696

   => Energetics <=

    Nuclear Repulsion Energy =            706.9854083616623939
    One-Electron Energy =               -2061.2485279768006876
    Two-Electron Energy =                 858.0058831947513909
    Total Energy =                       -496.2572364203869029
  Basis Set: (AUG-CC-PVTZ AUX)
    Blend: AUG-CC-PVTZ-RI
    Molecular point group: c1

    Geometry (in Angstrom), charge = 1, multiplicity = 1:

       Center              X                  Y                   Z               Mass
    ------------   -----------------  -----------------  -----------------  -----------------
         N           -3.381537437215     0.199927350878    -0.002198161522    14.003074004430
         N           -0.602767437215    -0.289173649122    -0.002148161522    14.003074004430
         C           -2.670515437215    -0.248013649122    -1.259523161522    12.000000000000
         C           -2.670518437215    -0.247779649122     1.255212838478    12.000000000000
         C           -1.267276137215     0.270159750878    -1.172964461522    12.000000000000
         C           -1.235619437215     0.243730350878     1.198160838478    12.000000000000
         C            0.834937562785    -0.120715649122    -0.002166161522    12.000000000000
         C            1.424747562785     1.148989350878    -0.002273161522    12.000000000000
         C            1.624879562785    -1.272135649122    -0.002065161522    12.000000000000
         C            2.816354562785     1.259720350878    -0.002287161522    12.000000000000
         C            3.015622562785    -1.153484649122    -0.002080161522    12.000000000000
         C            3.611082562785     0.110501350878    -0.002187161522    12.000000000000
         H           -3.438465437215     1.228453350878    -0.002292161522     1.007825032230
         H           -4.352014437215    -0.142281649122    -0.002168161522     1.007825032230
         H           -3.224548437215     0.153519350878    -2.111777161522     1.007825032230
         H           -2.707819437215    -1.338748649122    -1.267084161522     1.007825032230
         H           -2.707818437215    -1.338512649122     1.262973838478     1.007825032230
         H           -3.224554437215     0.153910350878     2.107389838478     1.007825032230
         H           -0.705355437215    -0.134009649122    -2.081485161522     1.007825032230
         H           -1.214435437215     1.349171350878    -1.254984161522     1.007825032230
         H           -1.214448437215     1.349411350878     1.250369838478     1.007825032230
         H           -0.705359437215    -0.133604649122     2.077157838478     1.007825032230
         H            0.812267562785     2.049213350878    -0.002351161522     1.007825032230
         H            1.140355562785    -2.245168649122    -0.001983161522     1.007825032230
         H            3.280208562785     2.242605350878    -0.002370161522     1.007825032230
         H            3.634003562785    -2.047097649122    -0.002000161522     1.007825032230
         H            4.693895562785     0.200654350878    -0.002202161522     1.007825032230

  Basis Set: AUG-CC-PVTZ
    Blend: AUG-CC-PVTZ
  Basis Set: (AUG-CC-PVTZ AUX)
    Blend: AUG-CC-PVTZ-JKFIT
	 Reference Energy          =    -496.2572364203869597 [Eh]
	 Singles Energy            =      -0.0000000000000000 [Eh]
	 Same-Spin Energy          =      -0.5398211309821435 [Eh]
	 Opposite-Spin Energy      =      -1.7589265010595363 [Eh]
	 Correlation Energy        =      -2.2987476320416800 [Eh]
	 Total Energy              =    -498.5559840524286415 [Eh]

	 ================> DF-SCS-MP2 Energies <==================
	-----------------------------------------------------------
	 SCS Same-Spin Scale       =       0.3333333333333333 [-]
	 SCS Opposite-Spin Scale   =       1.2000000000000000 [-]
	 SCS Same-Spin Energy      =      -0.1799403769940478 [Eh]
	 SCS Opposite-Spin Energy  =      -2.1107118012714436 [Eh]
	 SCS Correlation Energy    =      -2.2906521782654914 [Eh]
	 SCS Total Energy          =    -498.5478885986524347 [Eh]
	-----------------------------------------------------------

  Dipole Moment: [D]
     X:   -11.4650      Y:     1.1032      Z:    -0.0168     Total:    11.5180

*** Psi4 exiting successfully. Buy a developer a beer!
