                               Psi4 1.3.2 release

  ==> Input File <==

--------------------------------------------------------------------------
#psi4
#
memory 32 gb

molecule  {
1 1
  N       -3.3283680     0.1942120    -0.0000200
  N       -0.5495980    -0.2948890     0.0000300
  C       -2.6173460    -0.2537290    -1.2573450
  C       -2.6173490    -0.2534950     1.2573910
  C       -1.0899051     0.2650046    -1.2327814
  C       -1.1824500     0.2380150     1.2003390
  C        0.8881070    -0.1264310     0.0000120
  C        1.4779170     1.1432740    -0.0000950
  C        1.6780490    -1.2778510     0.0001130
  C        2.8695240     1.2540050    -0.0001090
  C        3.0687920    -1.1592000     0.0000980
  C        3.6642520     0.1047860    -0.0000090
  H       -3.3852960     1.2227380    -0.0001140
  H       -4.2988450    -0.1479970     0.0000100
  H       -3.1713790     0.1478040    -2.1095990
  H       -2.6546500    -1.3444640    -1.2649060
  H       -2.6546490    -1.3442280     1.2651520
  H       -3.1713850     0.1481950     2.1095680
  H       -0.6521860    -0.1397250    -2.0793070
  H       -1.1612660     1.3434560    -1.2528060
  H       -1.1612790     1.3436960     1.2525480
  H       -0.6521900    -0.1393200     2.0793360
  H        0.8654370     2.0434980    -0.0001730
  H        1.1935250    -2.2508840     0.0001950
  H        3.3333780     2.2368900    -0.0001920
  H        3.6871730    -2.0528130     0.0001780
  H        4.7470650     0.1949390    -0.0000240
units angstrom
no_reorient  #important for SAPT in psi4, default
symmetry c1  #important for SAPT in psi4, default
}

set PROPERTIES_ORIGIN ["COM"]
properties('MP2/aug-cc-pvtz', properties = ['dipole'])
--------------------------------------------------------------------------

    Molecular point group: c1
  Charge       = 1
  Multiplicity = 1
  Basis Set: AUG-CC-PVTZ
    Blend: AUG-CC-PVTZ
  Basis Set: (AUG-CC-PVTZ AUX)
    Blend: AUG-CC-PVTZ-JKFIT

    Orbital Energies [Eh]
    ---------------------

    Doubly Occupied:

       1A    -15.866408     2A    -15.706203     3A    -11.456497
       4A    -11.454974     5A    -11.419430     6A    -11.418443
       7A    -11.378450     8A    -11.344214     9A    -11.339237
      10A    -11.338420    11A    -11.336620    12A    -11.333332
      13A     -1.494363    14A     -1.391640    15A     -1.249052
      16A     -1.214423    17A     -1.148231    18A     -1.119554
      19A     -1.083792    20A     -1.059134    21A     -0.997685
      22A     -0.938929    23A     -0.928362    24A     -0.921714
      25A     -0.869315    26A     -0.821284    27A     -0.816703
      28A     -0.800626    29A     -0.786858    30A     -0.769212
      31A     -0.737527    32A     -0.728671    33A     -0.715945
      34A     -0.706081    35A     -0.689300    36A     -0.688823
      37A     -0.675703    38A     -0.648146    39A     -0.607578
      40A     -0.602466    41A     -0.597441    42A     -0.522838
      43A     -0.440323    44A     -0.437669

  @DF-RHF Final Energy:  -496.25153317110721

   => Energetics <=

    Nuclear Repulsion Energy =            705.9954780536315866
    One-Electron Energy =               -2059.2907967293836009
    Two-Electron Energy =                 857.0437855046448021
    Total Energy =                       -496.2515331711072122
  Basis Set: (AUG-CC-PVTZ AUX)
    Blend: AUG-CC-PVTZ-RI
    Molecular point group: c1

    Geometry (in Angstrom), charge = 1, multiplicity = 1:

       Center              X                  Y                   Z               Mass
    ------------   -----------------  -----------------  -----------------  -----------------
         N           -3.390674189340     0.199886140390     0.002362438838    14.003074004430
         N           -0.611904189340    -0.289214859610     0.002412438838    14.003074004430
         C           -2.679652189340    -0.248054859610    -1.254962561162    12.000000000000
         C           -2.679655189340    -0.247820859610     1.259773438838    12.000000000000
         C           -1.152211289340     0.270678740390    -1.230398961162    12.000000000000
         C           -1.244756189340     0.243689140390     1.202721438838    12.000000000000
         C            0.825800810660    -0.120756859610     0.002394438838    12.000000000000
         C            1.415610810660     1.148948140390     0.002287438838    12.000000000000
         C            1.615742810660    -1.272176859610     0.002495438838    12.000000000000
         C            2.807217810660     1.259679140390     0.002273438838    12.000000000000
         C            3.006485810660    -1.153525859610     0.002480438838    12.000000000000
         C            3.601945810660     0.110460140390     0.002373438838    12.000000000000
         H           -3.447602189340     1.228412140390     0.002268438838     1.007825032230
         H           -4.361151189340    -0.142322859610     0.002392438838     1.007825032230
         H           -3.233685189340     0.153478140390    -2.107216561162     1.007825032230
         H           -2.716956189340    -1.338789859610    -1.262523561162     1.007825032230
         H           -2.716955189340    -1.338553859610     1.267534438838     1.007825032230
         H           -3.233691189340     0.153869140390     2.111950438838     1.007825032230
         H           -0.714492189340    -0.134050859610    -2.076924561162     1.007825032230
         H           -1.223572189340     1.349130140390    -1.250423561162     1.007825032230
         H           -1.223585189340     1.349370140390     1.254930438838     1.007825032230
         H           -0.714496189340    -0.133645859610     2.081718438838     1.007825032230
         H            0.803130810660     2.049172140390     0.002209438838     1.007825032230
         H            1.131218810660    -2.245209859610     0.002577438838     1.007825032230
         H            3.271071810660     2.242564140390     0.002190438838     1.007825032230
         H            3.624866810660    -2.047138859610     0.002560438838     1.007825032230
         H            4.684758810660     0.200613140390     0.002358438838     1.007825032230

  Basis Set: AUG-CC-PVTZ
    Blend: AUG-CC-PVTZ
  Basis Set: (AUG-CC-PVTZ AUX)
    Blend: AUG-CC-PVTZ-JKFIT
	 Reference Energy          =    -496.2515331711072122 [Eh]
	 Singles Energy            =      -0.0000000000000000 [Eh]
	 Same-Spin Energy          =      -0.5390978901118315 [Eh]
	 Opposite-Spin Energy      =      -1.7587312954386110 [Eh]
	 Correlation Energy        =      -2.2978291855504427 [Eh]
	 Total Energy              =    -498.5493623566576389 [Eh]

	 ================> DF-SCS-MP2 Energies <==================
	-----------------------------------------------------------
	 SCS Same-Spin Scale       =       0.3333333333333333 [-]
	 SCS Opposite-Spin Scale   =       1.2000000000000000 [-]
	 SCS Same-Spin Energy      =      -0.1796992967039438 [Eh]
	 SCS Opposite-Spin Energy  =      -2.1104775545263332 [Eh]
	 SCS Correlation Energy    =      -2.2901768512302771 [Eh]
	 SCS Total Energy          =    -498.5417100223374973 [Eh]
	-----------------------------------------------------------

  Dipole Moment: [D]
     X:   -11.4610      Y:     1.1387      Z:     0.0514     Total:    11.5175

*** Psi4 exiting successfully. Buy a developer a beer!
