                               Psi4 1.3.2 release

  ==> Input File <==

--------------------------------------------------------------------------
#psi4
#
memory 32 gb

molecule  {
1 1
  N       -3.3283680     0.1942120    -0.0000200
  N       -0.5495980    -0.2948890     0.0000300
  C       -2.6173460    -0.2537290    -1.2573450
  C       -2.6173490    -0.2534950     1.2573910
  C       -1.1824450     0.2377860    -1.2003860
  C       -1.1824500     0.2380150     1.2003390
  C        1.0867481    -0.1031559     0.0000095
  C        1.4779170     1.1432740    -0.0000950
  C        1.6780490    -1.2778510     0.0001130
  C        2.8695240     1.2540050    -0.0001090
  C        3.0687920    -1.1592000     0.0000980
  C        3.6642520     0.1047860    -0.0000090
  H       -3.3852960     1.2227380    -0.0001140
  H       -4.2988450    -0.1479970     0.0000100
  H       -3.1713790     0.1478040    -2.1095990
  H       -2.6546500    -1.3444640    -1.2649060
  H       -2.6546490    -1.3442280     1.2651520
  H       -3.1713850     0.1481950     2.1095680
  H       -0.6521860    -0.1397250    -2.0793070
  H       -1.1612660     1.3434560    -1.2528060
  H       -1.1612790     1.3436960     1.2525480
  H       -0.6521900    -0.1393200     2.0793360
  H        0.8654370     2.0434980    -0.0001730
  H        1.1935250    -2.2508840     0.0001950
  H        3.3333780     2.2368900    -0.0001920
  H        3.6871730    -2.0528130     0.0001780
  H        4.7470650     0.1949390    -0.0000240
units angstrom
no_reorient  #important for SAPT in psi4, default
symmetry c1  #important for SAPT in psi4, default
}

set PROPERTIES_ORIGIN ["COM"]
properties('MP2/aug-cc-pvtz', properties = ['dipole'])
--------------------------------------------------------------------------

    Molecular point group: c1
  Charge       = 1
  Multiplicity = 1
  Basis Set: AUG-CC-PVTZ
    Blend: AUG-CC-PVTZ
  Basis Set: (AUG-CC-PVTZ AUX)
    Blend: AUG-CC-PVTZ-JKFIT

    Orbital Energies [Eh]
    ---------------------

    Doubly Occupied:

       1A    -15.860756     2A    -15.691366     3A    -11.450294
       4A    -11.450284     5A    -11.408188     6A    -11.408172
       7A    -11.381049     8A    -11.346003     9A    -11.343849
      10A    -11.341227    11A    -11.336691    12A    -11.335268
      13A     -1.490672    14A     -1.357042    15A     -1.278176
      16A     -1.213521    17A     -1.142174    18A     -1.141283
      19A     -1.092070    20A     -1.042524    21A     -0.984224
      22A     -0.951220    23A     -0.922910    24A     -0.918336
      25A     -0.864169    26A     -0.820957    27A     -0.816501
      28A     -0.784526    29A     -0.774006    30A     -0.755470
      31A     -0.753413    32A     -0.726539    33A     -0.720860
      34A     -0.715704    35A     -0.693560    36A     -0.679488
      37A     -0.650870    38A     -0.650497    39A     -0.627175
      40A     -0.620085    41A     -0.570382    42A     -0.506851
      43A     -0.454909    44A     -0.450016

  @DF-RHF Final Energy:  -496.22083733090028

   => Energetics <=

    Nuclear Repulsion Energy =            706.3349799751459841
    One-Electron Energy =               -2060.0650849115090750
    Two-Electron Energy =                 857.5092676054629237
    Total Energy =                       -496.2208373309002809
  Basis Set: (AUG-CC-PVTZ AUX)
    Blend: AUG-CC-PVTZ-RI
    Molecular point group: c1

    Geometry (in Angstrom), charge = 1, multiplicity = 1:

       Center              X                  Y                   Z               Mass
    ------------   -----------------  -----------------  -----------------  -----------------
         N           -3.398479405736     0.200176239568    -0.000020508708    14.003074004430
         N           -0.619709405736    -0.288924760432     0.000029491292    14.003074004430
         C           -2.687457405736    -0.247764760432    -1.257345508708    12.000000000000
         C           -2.687460405736    -0.247530760432     1.257390491292    12.000000000000
         C           -1.252556405736     0.243750239568    -1.200386508708    12.000000000000
         C           -1.252561405736     0.243979239568     1.200338491292    12.000000000000
         C            1.016636694264    -0.097191660432     0.000008991292    12.000000000000
         C            1.407805594264     1.149238239568    -0.000095508708    12.000000000000
         C            1.607937594264    -1.271886760432     0.000112491292    12.000000000000
         C            2.799412594264     1.259969239568    -0.000109508708    12.000000000000
         C            2.998680594264    -1.153235760432     0.000097491292    12.000000000000
         C            3.594140594264     0.110750239568    -0.000009508708    12.000000000000
         H           -3.455407405736     1.228702239568    -0.000114508708     1.007825032230
         H           -4.368956405736    -0.142032760432     0.000009491292     1.007825032230
         H           -3.241490405736     0.153768239568    -2.109599508708     1.007825032230
         H           -2.724761405736    -1.338499760432    -1.264906508708     1.007825032230
         H           -2.724760405736    -1.338263760432     1.265151491292     1.007825032230
         H           -3.241496405736     0.154159239568     2.109567491292     1.007825032230
         H           -0.722297405736    -0.133760760432    -2.079307508708     1.007825032230
         H           -1.231377405736     1.349420239568    -1.252806508708     1.007825032230
         H           -1.231390405736     1.349660239568     1.252547491292     1.007825032230
         H           -0.722301405736    -0.133355760432     2.079335491292     1.007825032230
         H            0.795325594264     2.049462239568    -0.000173508708     1.007825032230
         H            1.123413594264    -2.244919760432     0.000194491292     1.007825032230
         H            3.263266594264     2.242854239568    -0.000192508708     1.007825032230
         H            3.617061594264    -2.046848760432     0.000177491292     1.007825032230
         H            4.676953594264     0.200903239568    -0.000024508708     1.007825032230

  Basis Set: AUG-CC-PVTZ
    Blend: AUG-CC-PVTZ
  Basis Set: (AUG-CC-PVTZ AUX)
    Blend: AUG-CC-PVTZ-JKFIT
	 Reference Energy          =    -496.2208373309002809 [Eh]
	 Singles Energy            =      -0.0000000000000000 [Eh]
	 Same-Spin Energy          =      -0.5403898373760835 [Eh]
	 Opposite-Spin Energy      =      -1.7603069302002678 [Eh]
	 Correlation Energy        =      -2.3006967675763512 [Eh]
	 Total Energy              =    -498.5215340984766499 [Eh]

	 ================> DF-SCS-MP2 Energies <==================
	-----------------------------------------------------------
	 SCS Same-Spin Scale       =       0.3333333333333333 [-]
	 SCS Opposite-Spin Scale   =       1.2000000000000000 [-]
	 SCS Same-Spin Energy      =      -0.1801299457920278 [Eh]
	 SCS Opposite-Spin Energy  =      -2.1123683162403215 [Eh]
	 SCS Correlation Energy    =      -2.2924982620323493 [Eh]
	 SCS Total Energy          =    -498.5133355929326058 [Eh]
	-----------------------------------------------------------

  Dipole Moment: [D]
     X:   -10.7694      Y:     1.0498      Z:    -0.0001     Total:    10.8204

*** Psi4 exiting successfully. Buy a developer a beer!
