                               Psi4 1.3.2 release

  ==> Input File <==

--------------------------------------------------------------------------
#psi4
#
memory 32 gb

molecule  {
1 1
  N       -3.3283680     0.1942120    -0.0000200
  N       -0.5495980    -0.2948890     0.0000300
  C       -2.6173460    -0.2537290    -1.2573450
  C       -2.6173490    -0.2534950     1.2573910
  C       -1.2749637     0.3156852    -1.1073454
  C       -1.1824500     0.2380150     1.2003390
  C        0.8881070    -0.1264310     0.0000120
  C        1.4779170     1.1432740    -0.0000950
  C        1.6780490    -1.2778510     0.0001130
  C        2.8695240     1.2540050    -0.0001090
  C        3.0687920    -1.1592000     0.0000980
  C        3.6642520     0.1047860    -0.0000090
  H       -3.3852960     1.2227380    -0.0001140
  H       -4.2988450    -0.1479970     0.0000100
  H       -3.1713790     0.1478040    -2.1095990
  H       -2.6546500    -1.3444640    -1.2649060
  H       -2.6546490    -1.3442280     1.2651520
  H       -3.1713850     0.1481950     2.1095680
  H       -0.6521860    -0.1397250    -2.0793070
  H       -1.1612660     1.3434560    -1.2528060
  H       -1.1612790     1.3436960     1.2525480
  H       -0.6521900    -0.1393200     2.0793360
  H        0.8654370     2.0434980    -0.0001730
  H        1.1935250    -2.2508840     0.0001950
  H        3.3333780     2.2368900    -0.0001920
  H        3.6871730    -2.0528130     0.0001780
  H        4.7470650     0.1949390    -0.0000240
units angstrom
no_reorient  #important for SAPT in psi4, default
symmetry c1  #important for SAPT in psi4, default
}

set PROPERTIES_ORIGIN ["COM"]
properties('MP2/aug-cc-pvtz', properties = ['dipole'])
--------------------------------------------------------------------------

    Molecular point group: c1
  Charge       = 1
  Multiplicity = 1
  Basis Set: AUG-CC-PVTZ
    Blend: AUG-CC-PVTZ
  Basis Set: (AUG-CC-PVTZ AUX)
    Blend: AUG-CC-PVTZ-JKFIT

    Orbital Energies [Eh]
    ---------------------

    Doubly Occupied:

       1A    -15.863319     2A    -15.707157     3A    -11.458805
       4A    -11.456403     5A    -11.418627     6A    -11.414947
       7A    -11.381028     8A    -11.345350     9A    -11.339969
      10A    -11.339628    11A    -11.337287    12A    -11.334307
      13A     -1.500112    14A     -1.391898    15A     -1.251384
      16A     -1.226210    17A     -1.158285    18A     -1.120260
      19A     -1.088828    20A     -1.046617    21A     -1.002082
      22A     -0.939727    23A     -0.927008    24A     -0.923547
      25A     -0.872862    26A     -0.829725    27A     -0.820646
      28A     -0.789149    29A     -0.785769    30A     -0.766705
      31A     -0.741963    32A     -0.738363    33A     -0.721207
      34A     -0.708750    35A     -0.696062    36A     -0.689252
      37A     -0.663977    38A     -0.619653    39A     -0.607595
      40A     -0.603740    41A     -0.599281    42A     -0.526491
      43A     -0.440863    44A     -0.438983

  @DF-RHF Final Energy:  -496.23439755339865

   => Energetics <=

    Nuclear Repulsion Energy =            707.6755816000675168
    One-Electron Energy =               -2062.5523136807460105
    Two-Electron Energy =                 858.6423345272797860
    Total Energy =                       -496.2343975533987077
  Basis Set: (AUG-CC-PVTZ AUX)
    Blend: AUG-CC-PVTZ-RI
    Molecular point group: c1

    Geometry (in Angstrom), charge = 1, multiplicity = 1:

       Center              X                  Y                   Z               Mass
    ------------   -----------------  -----------------  -----------------  -----------------
         N           -3.377060559911     0.196157878598    -0.006865120546    14.003074004430
         N           -0.598290559911    -0.292943121402    -0.006815120546    14.003074004430
         C           -2.666038559911    -0.251783121402    -1.264190120546    12.000000000000
         C           -2.666041559911    -0.251549121402     1.250545879454    12.000000000000
         C           -1.323656259911     0.317631078598    -1.114190520546    12.000000000000
         C           -1.231142559911     0.239960878598     1.193493879454    12.000000000000
         C            0.839414440089    -0.124485121402    -0.006833120546    12.000000000000
         C            1.429224440089     1.145219878598    -0.006940120546    12.000000000000
         C            1.629356440089    -1.275905121402    -0.006732120546    12.000000000000
         C            2.820831440089     1.255950878598    -0.006954120546    12.000000000000
         C            3.020099440089    -1.157254121402    -0.006747120546    12.000000000000
         C            3.615559440089     0.106731878598    -0.006854120546    12.000000000000
         H           -3.433988559911     1.224683878598    -0.006959120546     1.007825032230
         H           -4.347537559911    -0.146051121402    -0.006835120546     1.007825032230
         H           -3.220071559911     0.149749878598    -2.116444120546     1.007825032230
         H           -2.703342559911    -1.342518121402    -1.271751120546     1.007825032230
         H           -2.703341559911    -1.342282121402     1.258306879454     1.007825032230
         H           -3.220077559911     0.150140878598     2.102722879454     1.007825032230
         H           -0.700878559911    -0.137779121402    -2.086152120546     1.007825032230
         H           -1.209958559911     1.345401878598    -1.259651120546     1.007825032230
         H           -1.209971559911     1.345641878598     1.245702879454     1.007825032230
         H           -0.700882559911    -0.137374121402     2.072490879454     1.007825032230
         H            0.816744440089     2.045443878598    -0.007018120546     1.007825032230
         H            1.144832440089    -2.248938121402    -0.006650120546     1.007825032230
         H            3.284685440089     2.238835878598    -0.007037120546     1.007825032230
         H            3.638480440089    -2.050867121402    -0.006667120546     1.007825032230
         H            4.698372440089     0.196884878598    -0.006869120546     1.007825032230

  Basis Set: AUG-CC-PVTZ
    Blend: AUG-CC-PVTZ
  Basis Set: (AUG-CC-PVTZ AUX)
    Blend: AUG-CC-PVTZ-JKFIT
	 Reference Energy          =    -496.2343975533986509 [Eh]
	 Singles Energy            =      -0.0000000000000000 [Eh]
	 Same-Spin Energy          =      -0.5410365658431433 [Eh]
	 Opposite-Spin Energy      =      -1.7610442442993928 [Eh]
	 Correlation Energy        =      -2.3020808101425363 [Eh]
	 Total Energy              =    -498.5364783635411641 [Eh]

	 ================> DF-SCS-MP2 Energies <==================
	-----------------------------------------------------------
	 SCS Same-Spin Scale       =       0.3333333333333333 [-]
	 SCS Opposite-Spin Scale   =       1.2000000000000000 [-]
	 SCS Same-Spin Energy      =      -0.1803455219477144 [Eh]
	 SCS Opposite-Spin Energy  =      -2.1132530931592712 [Eh]
	 SCS Correlation Energy    =      -2.2935986151069856 [Eh]
	 SCS Total Energy          =    -498.5279961685056378 [Eh]
	-----------------------------------------------------------

  Dipole Moment: [D]
     X:   -11.4105      Y:     1.1155      Z:    -0.0308     Total:    11.4650

*** Psi4 exiting successfully. Buy a developer a beer!
