                               Psi4 1.4a3.dev225

  ==> Input File <==

--------------------------------------------------------------------------
#psi4
#
memory 32 gb

molecule  {
1 1
  N       -3.3283680     0.1942120    -0.0000200
  N       -0.5495980    -0.2948890     0.0000300
  C       -2.5938381    -0.2685389    -1.2989148
  C       -2.6173490    -0.2534950     1.2573910
  C       -1.1824450     0.2377860    -1.2003860
  C       -1.1824500     0.2380150     1.2003390
  C        0.8881070    -0.1264310     0.0000120
  C        1.4779170     1.1432740    -0.0000950
  C        1.6780490    -1.2778510     0.0001130
  C        2.8695240     1.2540050    -0.0001090
  C        3.0687920    -1.1592000     0.0000980
  C        3.6642520     0.1047860    -0.0000090
  H       -3.3852960     1.2227380    -0.0001140
  H       -4.2988450    -0.1479970     0.0000100
  H       -3.1713790     0.1478040    -2.1095990
  H       -2.6546500    -1.3444640    -1.2649060
  H       -2.6546490    -1.3442280     1.2651520
  H       -3.1713850     0.1481950     2.1095680
  H       -0.6521860    -0.1397250    -2.0793070
  H       -1.1612660     1.3434560    -1.2528060
  H       -1.1612790     1.3436960     1.2525480
  H       -0.6521900    -0.1393200     2.0793360
  H        0.8654370     2.0434980    -0.0001730
  H        1.1935250    -2.2508840     0.0001950
  H        3.3333780     2.2368900    -0.0001920
  H        3.6871730    -2.0528130     0.0001780
  H        4.7470650     0.1949390    -0.0000240
units angstrom
no_reorient  #important for SAPT in psi4, default
symmetry c1  #important for SAPT in psi4, default
}

set PROPERTIES_ORIGIN ["COM"]
properties('MP2/aug-cc-pvtz', properties = ['dipole'])
--------------------------------------------------------------------------

    Molecular point group: c1
  Charge       = 1
  Multiplicity = 1
  Basis Set: AUG-CC-PVTZ
    Blend: AUG-CC-PVTZ
  Basis Set: (AUG-CC-PVTZ AUX)
    Blend: AUG-CC-PVTZ-JKFIT

    Orbital Energies [Eh]
    ---------------------

    Doubly Occupied:

       1A    -15.861305     2A    -15.705695     3A    -11.459946
       4A    -11.454727     5A    -11.417693     6A    -11.416550
       7A    -11.379547     8A    -11.344550     9A    -11.339183
      10A    -11.339050    11A    -11.336772    12A    -11.333773
      13A     -1.486551    14A     -1.389703    15A     -1.249997
      16A     -1.222536    17A     -1.155510    18A     -1.119698
      19A     -1.087277    20A     -1.050884    21A     -0.994823
      22A     -0.937213    23A     -0.924428    24A     -0.921006
      25A     -0.867444    26A     -0.822310    27A     -0.817231
      28A     -0.794931    29A     -0.784524    30A     -0.767674
      31A     -0.740315    32A     -0.738104    33A     -0.717828
      34A     -0.707970    35A     -0.690627    36A     -0.688305
      37A     -0.662852    38A     -0.656904    39A     -0.607510
      40A     -0.602668    41A     -0.601845    42A     -0.521371
      43A     -0.440417    44A     -0.438532

  @DF-RHF Final Energy:  -496.25899688532633

   => Energetics <=

    Nuclear Repulsion Energy =            706.1712286450930378
    One-Electron Energy =               -2059.6648918054524984
    Two-Electron Energy =                 857.2346662750333053
    Total Energy =                       -496.2589968853262690
  Basis Set: (AUG-CC-PVTZ AUX)
    Blend: AUG-CC-PVTZ-RI
    Molecular point group: c1

    Geometry (in Angstrom), charge = 1, multiplicity = 1:

       Center              X                  Y                   Z               Mass
    ------------   -----------------  -----------------  -----------------  -----------------
         N           -3.385595927283     0.202977920099     0.003037343338    14.003074004430
         N           -0.606825927283    -0.286123079901     0.003087343338    14.003074004430
         C           -2.651066027283    -0.259772979901    -1.295857456662    12.000000000000
         C           -2.674576927283    -0.244729079901     1.260448343338    12.000000000000
         C           -1.239672927283     0.246551920099    -1.197328656662    12.000000000000
         C           -1.239677927283     0.246780920099     1.203396343338    12.000000000000
         C            0.830879072717    -0.117665079901     0.003069343338    12.000000000000
         C            1.420689072717     1.152039920099     0.002962343338    12.000000000000
         C            1.620821072717    -1.269085079901     0.003170343338    12.000000000000
         C            2.812296072717     1.262770920099     0.002948343338    12.000000000000
         C            3.011564072717    -1.150434079901     0.003155343338    12.000000000000
         C            3.607024072717     0.113551920099     0.003048343338    12.000000000000
         H           -3.442523927283     1.231503920099     0.002943343338     1.007825032230
         H           -4.356072927283    -0.139231079901     0.003067343338     1.007825032230
         H           -3.228606927283     0.156569920099    -2.106541656662     1.007825032230
         H           -2.711877927283    -1.335698079901    -1.261848656662     1.007825032230
         H           -2.711876927283    -1.335462079901     1.268209343338     1.007825032230
         H           -3.228612927283     0.156960920099     2.112625343338     1.007825032230
         H           -0.709413927283    -0.130959079901    -2.076249656662     1.007825032230
         H           -1.218493927283     1.352221920099    -1.249748656662     1.007825032230
         H           -1.218506927283     1.352461920099     1.255605343338     1.007825032230
         H           -0.709417927283    -0.130554079901     2.082393343338     1.007825032230
         H            0.808209072717     2.052263920099     0.002884343338     1.007825032230
         H            1.136297072717    -2.242118079901     0.003252343338     1.007825032230
         H            3.276150072717     2.245655920099     0.002865343338     1.007825032230
         H            3.629945072717    -2.044047079901     0.003235343338     1.007825032230
         H            4.689837072717     0.203704920099     0.003033343338     1.007825032230

  Basis Set: AUG-CC-PVTZ
    Blend: AUG-CC-PVTZ
  Basis Set: (AUG-CC-PVTZ AUX)
    Blend: AUG-CC-PVTZ-JKFIT
	 Reference Energy          =    -496.2589968853263258 [Eh]
	 Singles Energy            =      -0.0000000000000000 [Eh]
	 Same-Spin Energy          =      -0.5392845695537232 [Eh]
	 Opposite-Spin Energy      =      -1.7585610023588618 [Eh]
	 Correlation Energy        =      -2.2978455719125850 [Eh]
	 Total Energy              =    -498.5568424572389290 [Eh]

	 ================> DF-SCS-MP2 Energies <==================
	-----------------------------------------------------------
	 SCS Same-Spin Scale       =       0.3333333333333333 [-]
	 SCS Opposite-Spin Scale   =       1.2000000000000000 [-]
	 SCS Same-Spin Energy      =      -0.1797615231845744 [Eh]
	 SCS Opposite-Spin Energy  =      -2.1102732028306339 [Eh]
	 SCS Correlation Energy    =      -2.2900347260152083 [Eh]
	 SCS Total Energy          =    -498.5490316113415474 [Eh]
	-----------------------------------------------------------

  Dipole Moment: [D]
     X:   -11.4207      Y:     1.0701      Z:    -0.0975     Total:    11.4712

*** Psi4 exiting successfully. Buy a developer a beer!
