                               Psi4 1.3.2 release

  ==> Input File <==

--------------------------------------------------------------------------
#psi4
#
memory 32 gb

molecule  {
1 1
  N       -3.3283680     0.1942120    -0.0000200
  N       -0.5495980    -0.2948890     0.0000300
  C       -2.6052200    -0.1004850    -1.2951185
  C       -2.6173490    -0.2534950     1.2573910
  C       -1.1824450     0.2377860    -1.2003860
  C       -1.1824500     0.2380150     1.2003390
  C        0.8881070    -0.1264310     0.0000120
  C        1.4779170     1.1432740    -0.0000950
  C        1.6780490    -1.2778510     0.0001130
  C        2.8695240     1.2540050    -0.0001090
  C        3.0687920    -1.1592000     0.0000980
  C        3.6642520     0.1047860    -0.0000090
  H       -3.3852960     1.2227380    -0.0001140
  H       -4.2988450    -0.1479970     0.0000100
  H       -3.1713790     0.1478040    -2.1095990
  H       -2.6546500    -1.3444640    -1.2649060
  H       -2.6546490    -1.3442280     1.2651520
  H       -3.1713850     0.1481950     2.1095680
  H       -0.6521860    -0.1397250    -2.0793070
  H       -1.1612660     1.3434560    -1.2528060
  H       -1.1612790     1.3436960     1.2525480
  H       -0.6521900    -0.1393200     2.0793360
  H        0.8654370     2.0434980    -0.0001730
  H        1.1935250    -2.2508840     0.0001950
  H        3.3333780     2.2368900    -0.0001920
  H        3.6871730    -2.0528130     0.0001780
  H        4.7470650     0.1949390    -0.0000240
units angstrom
no_reorient  #important for SAPT in psi4, default
symmetry c1  #important for SAPT in psi4, default
}

set PROPERTIES_ORIGIN ["COM"]
properties('MP2/aug-cc-pvtz', properties = ['dipole'])
--------------------------------------------------------------------------

    Molecular point group: c1
  Charge       = 1
  Multiplicity = 1
  Basis Set: AUG-CC-PVTZ
    Blend: AUG-CC-PVTZ
  Basis Set: (AUG-CC-PVTZ AUX)
    Blend: AUG-CC-PVTZ-JKFIT

    Orbital Energies [Eh]
    ---------------------

    Doubly Occupied:

       1A    -15.868172     2A    -15.707711     3A    -11.462751
       4A    -11.458285     5A    -11.418361     6A    -11.416640
       7A    -11.380189     8A    -11.344935     9A    -11.339558
      10A    -11.339331    11A    -11.336966    12A    -11.334232
      13A     -1.499221    14A     -1.391751    15A     -1.250728
      16A     -1.229234    17A     -1.158147    18A     -1.119958
      19A     -1.087264    20A     -1.056528    21A     -0.991303
      22A     -0.940446    23A     -0.929822    24A     -0.927534
      25A     -0.876787    26A     -0.818870    27A     -0.811547
      28A     -0.798453    29A     -0.796021    30A     -0.769119
      31A     -0.756121    32A     -0.733920    33A     -0.718623
      34A     -0.698120    35A     -0.689092    36A     -0.668384
      37A     -0.667311    38A     -0.644972    39A     -0.607790
      40A     -0.604123    41A     -0.602341    42A     -0.520980
      43A     -0.440621    44A     -0.439233

  @DF-RHF Final Energy:  -496.23369297631416

   => Energetics <=

    Nuclear Repulsion Energy =            706.8793776545894616
    One-Electron Energy =               -2060.9231481035362776
    Two-Electron Energy =                 857.8100774726326563
    Total Energy =                       -496.2336929763141598
  Basis Set: (AUG-CC-PVTZ AUX)
    Blend: AUG-CC-PVTZ-RI
    Molecular point group: c1

    Geometry (in Angstrom), charge = 1, multiplicity = 1:

       Center              X                  Y                   Z               Mass
    ------------   -----------------  -----------------  -----------------  -----------------
         N           -3.384758630509     0.190615222453     0.002758072764    14.003074004430
         N           -0.605988630509    -0.298485777547     0.002808072764    14.003074004430
         C           -2.661610630509    -0.104081777547    -1.292340427236    12.000000000000
         C           -2.673739630509    -0.257091777547     1.260169072764    12.000000000000
         C           -1.238835630509     0.234189222453    -1.197607927236    12.000000000000
         C           -1.238840630509     0.234418222453     1.203117072764    12.000000000000
         C            0.831716369491    -0.130027777547     0.002790072764    12.000000000000
         C            1.421526369491     1.139677222453     0.002683072764    12.000000000000
         C            1.621658369491    -1.281447777547     0.002891072764    12.000000000000
         C            2.813133369491     1.250408222453     0.002669072764    12.000000000000
         C            3.012401369491    -1.162796777547     0.002876072764    12.000000000000
         C            3.607861369491     0.101189222453     0.002769072764    12.000000000000
         H           -3.441686630509     1.219141222453     0.002664072764     1.007825032230
         H           -4.355235630509    -0.151593777547     0.002788072764     1.007825032230
         H           -3.227769630509     0.144207222453    -2.106820927236     1.007825032230
         H           -2.711040630509    -1.348060777547    -1.262127927236     1.007825032230
         H           -2.711039630509    -1.347824777547     1.267930072764     1.007825032230
         H           -3.227775630509     0.144598222453     2.112346072764     1.007825032230
         H           -0.708576630509    -0.143321777547    -2.076528927236     1.007825032230
         H           -1.217656630509     1.339859222453    -1.250027927236     1.007825032230
         H           -1.217669630509     1.340099222453     1.255326072764     1.007825032230
         H           -0.708580630509    -0.142916777547     2.082114072764     1.007825032230
         H            0.809046369491     2.039901222453     0.002605072764     1.007825032230
         H            1.137134369491    -2.254480777547     0.002973072764     1.007825032230
         H            3.276987369491     2.233293222453     0.002586072764     1.007825032230
         H            3.630782369491    -2.056409777547     0.002956072764     1.007825032230
         H            4.690674369491     0.191342222453     0.002754072764     1.007825032230

  Basis Set: AUG-CC-PVTZ
    Blend: AUG-CC-PVTZ
  Basis Set: (AUG-CC-PVTZ AUX)
    Blend: AUG-CC-PVTZ-JKFIT
	 Reference Energy          =    -496.2336929763141598 [Eh]
	 Singles Energy            =      -0.0000000000000000 [Eh]
	 Same-Spin Energy          =      -0.5405019118681460 [Eh]
	 Opposite-Spin Energy      =      -1.7603258234432140 [Eh]
	 Correlation Energy        =      -2.3008277353113602 [Eh]
	 Total Energy              =    -498.5345207116255324 [Eh]

	 ================> DF-SCS-MP2 Energies <==================
	-----------------------------------------------------------
	 SCS Same-Spin Scale       =       0.3333333333333333 [-]
	 SCS Opposite-Spin Scale   =       1.2000000000000000 [-]
	 SCS Same-Spin Energy      =      -0.1801673039560487 [Eh]
	 SCS Opposite-Spin Energy  =      -2.1123909881318568 [Eh]
	 SCS Correlation Energy    =      -2.2925582920879055 [Eh]
	 SCS Total Energy          =    -498.5262512684020635 [Eh]
	-----------------------------------------------------------

  Dipole Moment: [D]
     X:   -11.4232      Y:     1.1693      Z:     0.0297     Total:    11.4830

*** Psi4 exiting successfully. Buy a developer a beer!
