                               Psi4 1.3.2 release

  ==> Input File <==

--------------------------------------------------------------------------
#psi4
#
memory 32 gb

molecule  {
1 1
  N       -3.3283680     0.1942120    -0.0000200
  N       -0.5523190    -0.2697719     0.0000279
  C       -2.6173460    -0.2537290    -1.2573450
  C       -2.6173490    -0.2534950     1.2573910
  C       -1.1824450     0.2377860    -1.2003860
  C       -1.1824500     0.2380150     1.2003390
  C        0.8881070    -0.1264310     0.0000120
  C        1.4779170     1.1432740    -0.0000950
  C        1.6780490    -1.2778510     0.0001130
  C        2.8695240     1.2540050    -0.0001090
  C        3.0687920    -1.1592000     0.0000980
  C        3.6642520     0.1047860    -0.0000090
  H       -3.3852960     1.2227380    -0.0001140
  H       -4.2988450    -0.1479970     0.0000100
  H       -3.1713790     0.1478040    -2.1095990
  H       -2.6546500    -1.3444640    -1.2649060
  H       -2.6546490    -1.3442280     1.2651520
  H       -3.1713850     0.1481950     2.1095680
  H       -0.6521860    -0.1397250    -2.0793070
  H       -1.1612660     1.3434560    -1.2528060
  H       -1.1612790     1.3436960     1.2525480
  H       -0.6521900    -0.1393200     2.0793360
  H        0.8654370     2.0434980    -0.0001730
  H        1.1935250    -2.2508840     0.0001950
  H        3.3333780     2.2368900    -0.0001920
  H        3.6871730    -2.0528130     0.0001780
  H        4.7470650     0.1949390    -0.0000240
units angstrom
no_reorient  #important for SAPT in psi4, default
symmetry c1  #important for SAPT in psi4, default
}

set PROPERTIES_ORIGIN ["COM"]
properties('MP2/aug-cc-pvtz', properties = ['dipole'])
--------------------------------------------------------------------------

    Molecular point group: c1
  Charge       = 1
  Multiplicity = 1
  Basis Set: AUG-CC-PVTZ
    Blend: AUG-CC-PVTZ
  Basis Set: (AUG-CC-PVTZ AUX)
    Blend: AUG-CC-PVTZ-JKFIT

    Orbital Energies [Eh]
    ---------------------

    Doubly Occupied:

       1A    -15.866679     2A    -15.702390     3A    -11.456771
       4A    -11.456761     5A    -11.417015     6A    -11.417000
       7A    -11.379452     8A    -11.343928     9A    -11.339412
      10A    -11.338814    11A    -11.336853    12A    -11.333744
      13A     -1.497767    14A     -1.392590    15A     -1.250065
      16A     -1.222083    17A     -1.154465    18A     -1.119545
      19A     -1.087220    20A     -1.054764    21A     -0.996465
      22A     -0.938565    23A     -0.927416    24A     -0.924021
      25A     -0.869247    26A     -0.823262    27A     -0.818300
      28A     -0.794793    29A     -0.789902    30A     -0.769659
      31A     -0.738322    32A     -0.735553    33A     -0.717479
      34A     -0.705909    35A     -0.688899    36A     -0.687506
      37A     -0.663318    38A     -0.660389    39A     -0.606995
      40A     -0.602580    41A     -0.602223    42A     -0.516332
      43A     -0.440252    44A     -0.438664

  @DF-RHF Final Energy:  -496.26129742523159

   => Energetics <=

    Nuclear Repulsion Energy =            706.9406980536305127
    One-Electron Energy =               -2061.1572459194003386
    Two-Electron Energy =                 857.9552504405382933
    Total Energy =                       -496.2612974252315325
  Basis Set: (AUG-CC-PVTZ AUX)
    Blend: AUG-CC-PVTZ-RI
    Molecular point group: c1

    Geometry (in Angstrom), charge = 1, multiplicity = 1:

       Center              X                  Y                   Z               Mass
    ------------   -----------------  -----------------  -----------------  -----------------
         N           -3.383633015022     0.199732309664    -0.000020512346    14.003074004430
         N           -0.607584015022    -0.264251590336     0.000027387654    14.003074004430
         C           -2.672611015022    -0.248208690336    -1.257345512346    12.000000000000
         C           -2.672614015022    -0.247974690336     1.257390487654    12.000000000000
         C           -1.237710015022     0.243306309664    -1.200386512346    12.000000000000
         C           -1.237715015022     0.243535309664     1.200338487654    12.000000000000
         C            0.832841984978    -0.120910690336     0.000011487654    12.000000000000
         C            1.422651984978     1.148794309664    -0.000095512346    12.000000000000
         C            1.622783984978    -1.272330690336     0.000112487654    12.000000000000
         C            2.814258984978     1.259525309664    -0.000109512346    12.000000000000
         C            3.013526984978    -1.153679690336     0.000097487654    12.000000000000
         C            3.608986984978     0.110306309664    -0.000009512346    12.000000000000
         H           -3.440561015022     1.228258309664    -0.000114512346     1.007825032230
         H           -4.354110015022    -0.142476690336     0.000009487654     1.007825032230
         H           -3.226644015022     0.153324309664    -2.109599512346     1.007825032230
         H           -2.709915015022    -1.338943690336    -1.264906512346     1.007825032230
         H           -2.709914015022    -1.338707690336     1.265151487654     1.007825032230
         H           -3.226650015022     0.153715309664     2.109567487654     1.007825032230
         H           -0.707451015022    -0.134204690336    -2.079307512346     1.007825032230
         H           -1.216531015022     1.348976309664    -1.252806512346     1.007825032230
         H           -1.216544015022     1.349216309664     1.252547487654     1.007825032230
         H           -0.707455015022    -0.133799690336     2.079335487654     1.007825032230
         H            0.810171984978     2.049018309664    -0.000173512346     1.007825032230
         H            1.138259984978    -2.245363690336     0.000194487654     1.007825032230
         H            3.278112984978     2.242410309664    -0.000192512346     1.007825032230
         H            3.631907984978    -2.047292690336     0.000177487654     1.007825032230
         H            4.691799984978     0.200459309664    -0.000024512346     1.007825032230

  Basis Set: AUG-CC-PVTZ
    Blend: AUG-CC-PVTZ
  Basis Set: (AUG-CC-PVTZ AUX)
    Blend: AUG-CC-PVTZ-JKFIT
	 Reference Energy          =    -496.2612974252315894 [Eh]
	 Singles Energy            =      -0.0000000000000000 [Eh]
	 Same-Spin Energy          =      -0.5394043478378623 [Eh]
	 Opposite-Spin Energy      =      -1.7580322233513295 [Eh]
	 Correlation Energy        =      -2.2974365711891918 [Eh]
	 Total Energy              =    -498.5587339964207558 [Eh]

	 ================> DF-SCS-MP2 Energies <==================
	-----------------------------------------------------------
	 SCS Same-Spin Scale       =       0.3333333333333333 [-]
	 SCS Opposite-Spin Scale   =       1.2000000000000000 [-]
	 SCS Same-Spin Energy      =      -0.1798014492792874 [Eh]
	 SCS Opposite-Spin Energy  =      -2.1096386680215953 [Eh]
	 SCS Correlation Energy    =      -2.2894401173008827 [Eh]
	 SCS Total Energy          =    -498.5507375425324881 [Eh]
	-----------------------------------------------------------

  Dipole Moment: [D]
     X:   -11.4578      Y:     1.0201      Z:    -0.0001     Total:    11.5031

*** Psi4 exiting successfully. Buy a developer a beer!
