                               Psi4 1.3.2 release

  ==> Input File <==

--------------------------------------------------------------------------
#psi4
#
memory 32 gb

molecule  {
1 1
  N       -3.3283680     0.1942120    -0.0000200
  N       -0.5495980    -0.2948890     0.0000300
  C       -2.6173460    -0.2537290    -1.2573450
  C       -2.6173490    -0.2534950     1.2573910
  C       -1.1168481     0.1825555    -1.2551635
  C       -1.1824500     0.2380150     1.2003390
  C        0.8881070    -0.1264310     0.0000120
  C        1.4779170     1.1432740    -0.0000950
  C        1.6780490    -1.2778510     0.0001130
  C        2.8695240     1.2540050    -0.0001090
  C        3.0687920    -1.1592000     0.0000980
  C        3.6642520     0.1047860    -0.0000090
  H       -3.3852960     1.2227380    -0.0001140
  H       -4.2988450    -0.1479970     0.0000100
  H       -3.1713790     0.1478040    -2.1095990
  H       -2.6546500    -1.3444640    -1.2649060
  H       -2.6546490    -1.3442280     1.2651520
  H       -3.1713850     0.1481950     2.1095680
  H       -0.6521860    -0.1397250    -2.0793070
  H       -1.1612660     1.3434560    -1.2528060
  H       -1.1612790     1.3436960     1.2525480
  H       -0.6521900    -0.1393200     2.0793360
  H        0.8654370     2.0434980    -0.0001730
  H        1.1935250    -2.2508840     0.0001950
  H        3.3333780     2.2368900    -0.0001920
  H        3.6871730    -2.0528130     0.0001780
  H        4.7470650     0.1949390    -0.0000240
units angstrom
no_reorient  #important for SAPT in psi4, default
symmetry c1  #important for SAPT in psi4, default
}

set PROPERTIES_ORIGIN ["COM"]
properties('MP2/aug-cc-pvtz', properties = ['dipole'])
--------------------------------------------------------------------------

    Molecular point group: c1
  Charge       = 1
  Multiplicity = 1
  Basis Set: AUG-CC-PVTZ
    Blend: AUG-CC-PVTZ
  Basis Set: (AUG-CC-PVTZ AUX)
    Blend: AUG-CC-PVTZ-JKFIT

    Orbital Energies [Eh]
    ---------------------

    Doubly Occupied:

       1A    -15.868715     2A    -15.705156     3A    -11.457454
       4A    -11.456553     5A    -11.420383     6A    -11.420096
       7A    -11.378365     8A    -11.343820     9A    -11.338718
      10A    -11.338351    11A    -11.336298    12A    -11.333261
      13A     -1.496607    14A     -1.390092    15A     -1.248968
      16A     -1.219360    17A     -1.152002    18A     -1.119175
      19A     -1.085339    20A     -1.059855    21A     -0.995740
      22A     -0.939089    23A     -0.930676    24A     -0.922925
      25A     -0.868646    26A     -0.821217    27A     -0.815608
      28A     -0.801831    29A     -0.788026    30A     -0.771136
      31A     -0.737582    32A     -0.734992    33A     -0.717713
      34A     -0.704424    35A     -0.689128    36A     -0.683685
      37A     -0.673876    38A     -0.654832    39A     -0.606347
      40A     -0.602034    41A     -0.600040    42A     -0.515832
      43A     -0.439927    44A     -0.437929

  @DF-RHF Final Energy:  -496.24869526691401

   => Energetics <=

    Nuclear Repulsion Energy =            706.0354573803053881
    One-Electron Energy =               -2059.3246978596766894
    Two-Electron Energy =                 857.0405452124573458
    Total Energy =                       -496.2486952669139555
  Basis Set: (AUG-CC-PVTZ AUX)
    Blend: AUG-CC-PVTZ-RI
    Molecular point group: c1

    Geometry (in Angstrom), charge = 1, multiplicity = 1:

       Center              X                  Y                   Z               Mass
    ------------   -----------------  -----------------  -----------------  -----------------
         N           -3.388692157607     0.205951416439     0.004008953052    14.003074004430
         N           -0.609922157607    -0.283149583561     0.004058953052    14.003074004430
         C           -2.677670157607    -0.241989583561    -1.253316046948    12.000000000000
         C           -2.677673157607    -0.241755583561     1.261419953052    12.000000000000
         C           -1.177172257607     0.194294916439    -1.251134546948    12.000000000000
         C           -1.242774157607     0.249754416439     1.204367953052    12.000000000000
         C            0.827782842393    -0.114691583561     0.004040953052    12.000000000000
         C            1.417592842393     1.155013416439     0.003933953052    12.000000000000
         C            1.617724842393    -1.266111583561     0.004141953052    12.000000000000
         C            2.809199842393     1.265744416439     0.003919953052    12.000000000000
         C            3.008467842393    -1.147460583561     0.004126953052    12.000000000000
         C            3.603927842393     0.116525416439     0.004019953052    12.000000000000
         H           -3.445620157607     1.234477416439     0.003914953052     1.007825032230
         H           -4.359169157607    -0.136257583561     0.004038953052     1.007825032230
         H           -3.231703157607     0.159543416439    -2.105570046948     1.007825032230
         H           -2.714974157607    -1.332724583561    -1.260877046948     1.007825032230
         H           -2.714973157607    -1.332488583561     1.269180953052     1.007825032230
         H           -3.231709157607     0.159934416439     2.113596953052     1.007825032230
         H           -0.712510157607    -0.127985583561    -2.075278046948     1.007825032230
         H           -1.221590157607     1.355195416439    -1.248777046948     1.007825032230
         H           -1.221603157607     1.355435416439     1.256576953052     1.007825032230
         H           -0.712514157607    -0.127580583561     2.083364953052     1.007825032230
         H            0.805112842393     2.055237416439     0.003855953052     1.007825032230
         H            1.133200842393    -2.239144583561     0.004223953052     1.007825032230
         H            3.273053842393     2.248629416439     0.003836953052     1.007825032230
         H            3.626848842393    -2.041073583561     0.004206953052     1.007825032230
         H            4.686740842393     0.206678416439     0.004004953052     1.007825032230

  Basis Set: AUG-CC-PVTZ
    Blend: AUG-CC-PVTZ
  Basis Set: (AUG-CC-PVTZ AUX)
    Blend: AUG-CC-PVTZ-JKFIT
	 Reference Energy          =    -496.2486952669140123 [Eh]
	 Singles Energy            =      -0.0000000000000000 [Eh]
	 Same-Spin Energy          =      -0.5391769550187392 [Eh]
	 Opposite-Spin Energy      =      -1.7585162364403260 [Eh]
	 Correlation Energy        =      -2.2976931914590653 [Eh]
	 Total Energy              =    -498.5463884583730874 [Eh]

	 ================> DF-SCS-MP2 Energies <==================
	-----------------------------------------------------------
	 SCS Same-Spin Scale       =       0.3333333333333333 [-]
	 SCS Opposite-Spin Scale   =       1.2000000000000000 [-]
	 SCS Same-Spin Energy      =      -0.1797256516729130 [Eh]
	 SCS Opposite-Spin Energy  =      -2.1102194837283910 [Eh]
	 SCS Correlation Energy    =      -2.2899451354013038 [Eh]
	 SCS Total Energy          =    -498.5386404023153091 [Eh]
	-----------------------------------------------------------

  Dipole Moment: [D]
     X:   -11.4983      Y:     1.0479      Z:     0.0563     Total:    11.5461

*** Psi4 exiting successfully. Buy a developer a beer!
