                               Psi4 1.3.2 release

  ==> Input File <==

--------------------------------------------------------------------------
#psi4
#
memory 32 gb

molecule  {
1 1
  N       -3.3283680     0.1942120    -0.0000200
  N       -0.5578469    -0.1941894     0.0000217
  C       -2.6173460    -0.2537290    -1.2573450
  C       -2.6173490    -0.2534950     1.2573910
  C       -1.1824450     0.2377860    -1.2003860
  C       -1.1824500     0.2380150     1.2003390
  C        0.8881070    -0.1264310     0.0000120
  C        1.4779170     1.1432740    -0.0000950
  C        1.6780490    -1.2778510     0.0001130
  C        2.8695240     1.2540050    -0.0001090
  C        3.0687920    -1.1592000     0.0000980
  C        3.6642520     0.1047860    -0.0000090
  H       -3.3852960     1.2227380    -0.0001140
  H       -4.2988450    -0.1479970     0.0000100
  H       -3.1713790     0.1478040    -2.1095990
  H       -2.6546500    -1.3444640    -1.2649060
  H       -2.6546490    -1.3442280     1.2651520
  H       -3.1713850     0.1481950     2.1095680
  H       -0.6521860    -0.1397250    -2.0793070
  H       -1.1612660     1.3434560    -1.2528060
  H       -1.1612790     1.3436960     1.2525480
  H       -0.6521900    -0.1393200     2.0793360
  H        0.8654370     2.0434980    -0.0001730
  H        1.1935250    -2.2508840     0.0001950
  H        3.3333780     2.2368900    -0.0001920
  H        3.6871730    -2.0528130     0.0001780
  H        4.7470650     0.1949390    -0.0000240
units angstrom
no_reorient  #important for SAPT in psi4, default
symmetry c1  #important for SAPT in psi4, default
}

set PROPERTIES_ORIGIN ["COM"]
properties('MP2/aug-cc-pvtz', properties = ['dipole'])
--------------------------------------------------------------------------

    Molecular point group: c1
  Charge       = 1
  Multiplicity = 1
  Basis Set: AUG-CC-PVTZ
    Blend: AUG-CC-PVTZ
  Basis Set: (AUG-CC-PVTZ AUX)
    Blend: AUG-CC-PVTZ-JKFIT

    Orbital Energies [Eh]
    ---------------------

    Doubly Occupied:

       1A    -15.866614     2A    -15.695349     3A    -11.456728
       4A    -11.456718     5A    -11.416091     6A    -11.416074
       7A    -11.380466     8A    -11.342852     9A    -11.341309
      10A    -11.338379    11A    -11.337763    12A    -11.334282
      13A     -1.498274    14A     -1.399590    15A     -1.251093
      16A     -1.223381    17A     -1.154115    18A     -1.119826
      19A     -1.089053    20A     -1.059619    21A     -0.994579
      22A     -0.938111    23A     -0.928521    24A     -0.925337
      25A     -0.868032    26A     -0.822833    27A     -0.818663
      28A     -0.800725    29A     -0.795111    30A     -0.771293
      31A     -0.738389    32A     -0.735964    33A     -0.717804
      34A     -0.706635    35A     -0.689423    36A     -0.685369
      37A     -0.671569    38A     -0.660678    39A     -0.605980
      40A     -0.604210    41A     -0.603609    42A     -0.503987
      43A     -0.440490    44A     -0.439764

  @DF-RHF Final Energy:  -496.25861193488794

   => Energetics <=

    Nuclear Repulsion Energy =            707.7221476106562932
    One-Electron Energy =               -2062.6722156200944482
    Two-Electron Energy =                 858.6914560745502740
    Total Energy =                       -496.2586119348878810
  Basis Set: (AUG-CC-PVTZ AUX)
    Blend: AUG-CC-PVTZ-RI
    Molecular point group: c1

    Geometry (in Angstrom), charge = 1, multiplicity = 1:

       Center              X                  Y                   Z               Mass
    ------------   -----------------  -----------------  -----------------  -----------------
         N           -3.383158481422     0.193244052678    -0.000019980117    14.003074004430
         N           -0.612637381422    -0.195157347322     0.000021719883    14.003074004430
         C           -2.672136481422    -0.254696947322    -1.257344980117    12.000000000000
         C           -2.672139481422    -0.254462947322     1.257391019883    12.000000000000
         C           -1.237235481422     0.236818052678    -1.200385980117    12.000000000000
         C           -1.237240481422     0.237047052678     1.200339019883    12.000000000000
         C            0.833316518578    -0.127398947322     0.000012019883    12.000000000000
         C            1.423126518578     1.142306052678    -0.000094980117    12.000000000000
         C            1.623258518578    -1.278818947322     0.000113019883    12.000000000000
         C            2.814733518578     1.253037052678    -0.000108980117    12.000000000000
         C            3.014001518578    -1.160167947322     0.000098019883    12.000000000000
         C            3.609461518578     0.103818052678    -0.000008980117    12.000000000000
         H           -3.440086481422     1.221770052678    -0.000113980117     1.007825032230
         H           -4.353635481422    -0.148964947322     0.000010019883     1.007825032230
         H           -3.226169481422     0.146836052678    -2.109598980117     1.007825032230
         H           -2.709440481422    -1.345431947322    -1.264905980117     1.007825032230
         H           -2.709439481422    -1.345195947322     1.265152019883     1.007825032230
         H           -3.226175481422     0.147227052678     2.109568019883     1.007825032230
         H           -0.706976481422    -0.140692947322    -2.079306980117     1.007825032230
         H           -1.216056481422     1.342488052678    -1.252805980117     1.007825032230
         H           -1.216069481422     1.342728052678     1.252548019883     1.007825032230
         H           -0.706980481422    -0.140287947322     2.079336019883     1.007825032230
         H            0.810646518578     2.042530052678    -0.000172980117     1.007825032230
         H            1.138734518578    -2.251851947322     0.000195019883     1.007825032230
         H            3.278587518578     2.235922052678    -0.000191980117     1.007825032230
         H            3.632382518578    -2.053780947322     0.000178019883     1.007825032230
         H            4.692274518578     0.193971052678    -0.000023980117     1.007825032230

  Basis Set: AUG-CC-PVTZ
    Blend: AUG-CC-PVTZ
  Basis Set: (AUG-CC-PVTZ AUX)
    Blend: AUG-CC-PVTZ-JKFIT
	 Reference Energy          =    -496.2586119348879379 [Eh]
	 Singles Energy            =      -0.0000000000000000 [Eh]
	 Same-Spin Energy          =      -0.5394693974189020 [Eh]
	 Opposite-Spin Energy      =      -1.7573684709177548 [Eh]
	 Correlation Energy        =      -2.2968378683366568 [Eh]
	 Total Energy              =    -498.5554498032245760 [Eh]

	 ================> DF-SCS-MP2 Energies <==================
	-----------------------------------------------------------
	 SCS Same-Spin Scale       =       0.3333333333333333 [-]
	 SCS Opposite-Spin Scale   =       1.2000000000000000 [-]
	 SCS Same-Spin Energy      =      -0.1798231324729673 [Eh]
	 SCS Opposite-Spin Energy  =      -2.1088421651013056 [Eh]
	 SCS Correlation Energy    =      -2.2886652975742727 [Eh]
	 SCS Total Energy          =    -498.5472772324621928 [Eh]
	-----------------------------------------------------------

  Dipole Moment: [D]
     X:   -11.3833      Y:     0.7991      Z:    -0.0001     Total:    11.4113

*** Psi4 exiting successfully. Buy a developer a beer!
