                               Psi4 1.4a3.dev225

  ==> Input File <==

--------------------------------------------------------------------------
#psi4
#
memory 32 gb

molecule  {
1 1
  N       -3.3283680     0.1942120    -0.0000200
  N       -0.5495980    -0.2948890     0.0000300
  C       -2.6173460    -0.2537290    -1.2573450
  C       -2.6173490    -0.2534950     1.2573910
  C       -1.1824450     0.2377860    -1.2003860
  C       -1.1824500     0.2380150     1.2003390
  C        0.8682429    -0.1287585     0.0000122
  C        1.4779170     1.1432740    -0.0000950
  C        1.6780490    -1.2778510     0.0001130
  C        2.8695240     1.2540050    -0.0001090
  C        3.0687920    -1.1592000     0.0000980
  C        3.6642520     0.1047860    -0.0000090
  H       -3.3852960     1.2227380    -0.0001140
  H       -4.2988450    -0.1479970     0.0000100
  H       -3.1713790     0.1478040    -2.1095990
  H       -2.6546500    -1.3444640    -1.2649060
  H       -2.6546490    -1.3442280     1.2651520
  H       -3.1713850     0.1481950     2.1095680
  H       -0.6521860    -0.1397250    -2.0793070
  H       -1.1612660     1.3434560    -1.2528060
  H       -1.1612790     1.3436960     1.2525480
  H       -0.6521900    -0.1393200     2.0793360
  H        0.8654370     2.0434980    -0.0001730
  H        1.1935250    -2.2508840     0.0001950
  H        3.3333780     2.2368900    -0.0001920
  H        3.6871730    -2.0528130     0.0001780
  H        4.7470650     0.1949390    -0.0000240
units angstrom
no_reorient  #important for SAPT in psi4, default
symmetry c1  #important for SAPT in psi4, default
}

set PROPERTIES_ORIGIN ["COM"]
properties('MP2/aug-cc-pvtz', properties = ['dipole'])
--------------------------------------------------------------------------

    Molecular point group: c1
  Charge       = 1
  Multiplicity = 1
  Basis Set: AUG-CC-PVTZ
    Blend: AUG-CC-PVTZ
  Basis Set: (AUG-CC-PVTZ AUX)
    Blend: AUG-CC-PVTZ-JKFIT

    Orbital Energies [Eh]
    ---------------------

    Doubly Occupied:

       1A    -15.867232     2A    -15.705602     3A    -11.457375
       4A    -11.457365     5A    -11.418241     6A    -11.418226
       7A    -11.379526     8A    -11.344795     9A    -11.339191
      10A    -11.338461    11A    -11.336071    12A    -11.333441
      13A     -1.498265    14A     -1.394438    15A     -1.247200
      16A     -1.222388    17A     -1.156546    18A     -1.117769
      19A     -1.085448    20A     -1.054199    21A     -0.998613
      22A     -0.938304    23A     -0.926956    24A     -0.924194
      25A     -0.869978    26A     -0.824120    27A     -0.818441
      28A     -0.793632    29A     -0.789546    30A     -0.770425
      31A     -0.738077    32A     -0.736251    33A     -0.716675
      34A     -0.704702    35A     -0.688938    36A     -0.687444
      37A     -0.661645    38A     -0.661468    39A     -0.607807
      40A     -0.602281    41A     -0.599310    42A     -0.520464
      43A     -0.439257    44A     -0.436455

  @DF-RHF Final Energy:  -496.26009798191137

   => Energetics <=

    Nuclear Repulsion Energy =            706.7244023037759462
    One-Electron Energy =               -2060.7154763150651888
    Two-Electron Energy =                 857.7309760293777572
    Total Energy =                       -496.2600979819113718
  Basis Set: (AUG-CC-PVTZ AUX)
    Blend: AUG-CC-PVTZ-RI
    Molecular point group: c1

    Geometry (in Angstrom), charge = 1, multiplicity = 1:

       Center              X                  Y                   Z               Mass
    ------------   -----------------  -----------------  -----------------  -----------------
         N           -3.382405314496     0.202059666271    -0.000020707330    14.003074004430
         N           -0.603635314496    -0.287041333729     0.000029292670    14.003074004430
         C           -2.671383314496    -0.245881333729    -1.257345707330    12.000000000000
         C           -2.671386314496    -0.245647333729     1.257390292670    12.000000000000
         C           -1.236482314496     0.245633666271    -1.200386707330    12.000000000000
         C           -1.236487314496     0.245862666271     1.200338292670    12.000000000000
         C            0.814205585504    -0.120910833729     0.000011492670    12.000000000000
         C            1.423879685504     1.151121666271    -0.000095707330    12.000000000000
         C            1.624011685504    -1.270003333729     0.000112292670    12.000000000000
         C            2.815486685504     1.261852666271    -0.000109707330    12.000000000000
         C            3.014754685504    -1.151352333729     0.000097292670    12.000000000000
         C            3.610214685504     0.112633666271    -0.000009707330    12.000000000000
         H           -3.439333314496     1.230585666271    -0.000114707330     1.007825032230
         H           -4.352882314496    -0.140149333729     0.000009292670     1.007825032230
         H           -3.225416314496     0.155651666271    -2.109599707330     1.007825032230
         H           -2.708687314496    -1.336616333729    -1.264906707330     1.007825032230
         H           -2.708686314496    -1.336380333729     1.265151292670     1.007825032230
         H           -3.225422314496     0.156042666271     2.109567292670     1.007825032230
         H           -0.706223314496    -0.131877333729    -2.079307707330     1.007825032230
         H           -1.215303314496     1.351303666271    -1.252806707330     1.007825032230
         H           -1.215316314496     1.351543666271     1.252547292670     1.007825032230
         H           -0.706227314496    -0.131472333729     2.079335292670     1.007825032230
         H            0.811399685504     2.051345666271    -0.000173707330     1.007825032230
         H            1.139487685504    -2.243036333729     0.000194292670     1.007825032230
         H            3.279340685504     2.244737666271    -0.000192707330     1.007825032230
         H            3.633135685504    -2.044965333729     0.000177292670     1.007825032230
         H            4.693027685504     0.202786666271    -0.000024707330     1.007825032230

  Basis Set: AUG-CC-PVTZ
    Blend: AUG-CC-PVTZ
  Basis Set: (AUG-CC-PVTZ AUX)
    Blend: AUG-CC-PVTZ-JKFIT
	 Reference Energy          =    -496.2600979819113718 [Eh]
	 Singles Energy            =      -0.0000000000000000 [Eh]
	 Same-Spin Energy          =      -0.5396098918575606 [Eh]
	 Opposite-Spin Energy      =      -1.7586285975216240 [Eh]
	 Correlation Energy        =      -2.2982384893791847 [Eh]
	 Total Energy              =    -498.5583364712905450 [Eh]

	 ================> DF-SCS-MP2 Energies <==================
	-----------------------------------------------------------
	 SCS Same-Spin Scale       =       0.3333333333333333 [-]
	 SCS Opposite-Spin Scale   =       1.2000000000000000 [-]
	 SCS Same-Spin Energy      =      -0.1798699639525202 [Eh]
	 SCS Opposite-Spin Energy  =      -2.1103543170259487 [Eh]
	 SCS Correlation Energy    =      -2.2902242809784688 [Eh]
	 SCS Total Energy          =    -498.5503222628898357 [Eh]
	-----------------------------------------------------------

  Dipole Moment: [D]
     X:   -11.5483      Y:     1.0938      Z:    -0.0001     Total:    11.6000

*** Psi4 exiting successfully. Buy a developer a beer!
