                               Psi4 1.3.2 release

  ==> Input File <==

--------------------------------------------------------------------------
#psi4
#
memory 32 gb

molecule  {
1 1
  N       -3.3283680     0.1942120    -0.0000200
  N       -0.5495980    -0.2948890     0.0000300
  C       -2.6173460    -0.2537290    -1.2573450
  C       -2.6173490    -0.2534950     1.2573910
  C       -1.1824450     0.2377860    -1.2003860
  C       -1.1824500     0.2380150     1.2003390
  C        0.8881070    -0.1264310     0.0000120
  C        1.4779170     1.1432740    -0.0000950
  C        1.6780490    -1.2778510     0.0001130
  C        2.8695240     1.2540050    -0.0001090
  C        3.0687920    -1.1592000     0.0000980
  C        3.6642520     0.1047860    -0.0000090
  H       -3.4211564     1.2201247    -0.0001138
  H       -4.2988450    -0.1479970     0.0000100
  H       -3.1713790     0.1478040    -2.1095990
  H       -2.6546500    -1.3444640    -1.2649060
  H       -2.6546490    -1.3442280     1.2651520
  H       -3.1713850     0.1481950     2.1095680
  H       -0.6521860    -0.1397250    -2.0793070
  H       -1.1612660     1.3434560    -1.2528060
  H       -1.1612790     1.3436960     1.2525480
  H       -0.6521900    -0.1393200     2.0793360
  H        0.8654370     2.0434980    -0.0001730
  H        1.1935250    -2.2508840     0.0001950
  H        3.3333780     2.2368900    -0.0001920
  H        3.6871730    -2.0528130     0.0001780
  H        4.7470650     0.1949390    -0.0000240
units angstrom
no_reorient  #important for SAPT in psi4, default
symmetry c1  #important for SAPT in psi4, default
}

set PROPERTIES_ORIGIN ["COM"]
properties('MP2/aug-cc-pvtz', properties = ['dipole'])
--------------------------------------------------------------------------

    Molecular point group: c1
  Charge       = 1
  Multiplicity = 1
  Basis Set: AUG-CC-PVTZ
    Blend: AUG-CC-PVTZ
  Basis Set: (AUG-CC-PVTZ AUX)
    Blend: AUG-CC-PVTZ-JKFIT

    Orbital Energies [Eh]
    ---------------------

    Doubly Occupied:

       1A    -15.866700     2A    -15.704716     3A    -11.456951
       4A    -11.456940     5A    -11.417095     6A    -11.417080
       7A    -11.378991     8A    -11.344125     9A    -11.338822
      10A    -11.338644    11A    -11.336411    12A    -11.333420
      13A     -1.497451    14A     -1.389952    15A     -1.249581
      16A     -1.221461    17A     -1.155110    18A     -1.119312
      19A     -1.086908    20A     -1.052995    21A     -0.996308
      22A     -0.937646    23A     -0.925921    24A     -0.923537
      25A     -0.870179    26A     -0.823319    27A     -0.818581
      28A     -0.792643    29A     -0.787894    30A     -0.769020
      31A     -0.738246    32A     -0.735311    33A     -0.717118
      34A     -0.705755    35A     -0.688583    36A     -0.687959
      37A     -0.660162    38A     -0.660025    39A     -0.607106
      40A     -0.601852    41A     -0.601491    42A     -0.520279
      43A     -0.440038    44A     -0.438107

  @DF-RHF Final Energy:  -496.26079146581816

   => Energetics <=

    Nuclear Repulsion Energy =            706.5747005201344564
    One-Electron Energy =               -2060.4514991650530646
    Two-Electron Energy =                 857.6160071791003929
    Total Energy =                       -496.2607914658182153
  Basis Set: (AUG-CC-PVTZ AUX)
    Blend: AUG-CC-PVTZ-RI
    Molecular point group: c1

    Geometry (in Angstrom), charge = 1, multiplicity = 1:

       Center              X                  Y                   Z               Mass
    ------------   -----------------  -----------------  -----------------  -----------------
         N           -3.383645038766     0.201904592065    -0.000020693853    14.003074004430
         N           -0.604875038766    -0.287196407935     0.000029306147    14.003074004430
         C           -2.672623038766    -0.246036407935    -1.257345693853    12.000000000000
         C           -2.672626038766    -0.245802407935     1.257390306147    12.000000000000
         C           -1.237722038766     0.245478592065    -1.200386693853    12.000000000000
         C           -1.237727038766     0.245707592065     1.200338306147    12.000000000000
         C            0.832829961234    -0.118738407935     0.000011306147    12.000000000000
         C            1.422639961234     1.150966592065    -0.000095693853    12.000000000000
         C            1.622771961234    -1.270158407935     0.000112306147    12.000000000000
         C            2.814246961234     1.261697592065    -0.000109693853    12.000000000000
         C            3.013514961234    -1.151507407935     0.000097306147    12.000000000000
         C            3.608974961234     0.112478592065    -0.000009693853    12.000000000000
         H           -3.476433438766     1.227817292065    -0.000114493853     1.007825032230
         H           -4.354122038766    -0.140304407935     0.000009306147     1.007825032230
         H           -3.226656038766     0.155496592065    -2.109599693853     1.007825032230
         H           -2.709927038766    -1.336771407935    -1.264906693853     1.007825032230
         H           -2.709926038766    -1.336535407935     1.265151306147     1.007825032230
         H           -3.226662038766     0.155887592065     2.109567306147     1.007825032230
         H           -0.707463038766    -0.132032407935    -2.079307693853     1.007825032230
         H           -1.216543038766     1.351148592065    -1.252806693853     1.007825032230
         H           -1.216556038766     1.351388592065     1.252547306147     1.007825032230
         H           -0.707467038766    -0.131627407935     2.079335306147     1.007825032230
         H            0.810159961234     2.051190592065    -0.000173693853     1.007825032230
         H            1.138247961234    -2.243191407935     0.000194306147     1.007825032230
         H            3.278100961234     2.244582592065    -0.000192693853     1.007825032230
         H            3.631895961234    -2.045120407935     0.000177306147     1.007825032230
         H            4.691787961234     0.202631592065    -0.000024693853     1.007825032230

  Basis Set: AUG-CC-PVTZ
    Blend: AUG-CC-PVTZ
  Basis Set: (AUG-CC-PVTZ AUX)
    Blend: AUG-CC-PVTZ-JKFIT
	 Reference Energy          =    -496.2607914658181585 [Eh]
	 Singles Energy            =      -0.0000000000000000 [Eh]
	 Same-Spin Energy          =      -0.5394036481265186 [Eh]
	 Opposite-Spin Energy      =      -1.7583518113311216 [Eh]
	 Correlation Energy        =      -2.2977554594576404 [Eh]
	 Total Energy              =    -498.5585469252757775 [Eh]

	 ================> DF-SCS-MP2 Energies <==================
	-----------------------------------------------------------
	 SCS Same-Spin Scale       =       0.3333333333333333 [-]
	 SCS Opposite-Spin Scale   =       1.2000000000000000 [-]
	 SCS Same-Spin Energy      =      -0.1798012160421729 [Eh]
	 SCS Opposite-Spin Energy  =      -2.1100221735973457 [Eh]
	 SCS Correlation Energy    =      -2.2898233896395186 [Eh]
	 SCS Total Energy          =    -498.5506148554576953 [Eh]
	-----------------------------------------------------------

  Dipole Moment: [D]
     X:   -11.5267      Y:     1.0966      Z:    -0.0001     Total:    11.5787

*** Psi4 exiting successfully. Buy a developer a beer!
