                               Psi4 1.4a3.dev225

  ==> Input File <==

--------------------------------------------------------------------------
#psi4
#
memory 32 gb

molecule  {
1 1
  N       -3.3283680     0.1942120    -0.0000200
  N       -0.5495980    -0.2948890     0.0000300
  C       -2.6173460    -0.2537290    -1.2573450
  C       -2.6173490    -0.2534950     1.2573910
  C       -1.1607397     0.2195164    -1.1592144
  C       -1.1824500     0.2380150     1.2003390
  C        0.8881070    -0.1264310     0.0000120
  C        1.4779170     1.1432740    -0.0000950
  C        1.6780490    -1.2778510     0.0001130
  C        2.8695240     1.2540050    -0.0001090
  C        3.0687920    -1.1592000     0.0000980
  C        3.6642520     0.1047860    -0.0000090
  H       -3.3852960     1.2227380    -0.0001140
  H       -4.2988450    -0.1479970     0.0000100
  H       -3.1713790     0.1478040    -2.1095990
  H       -2.6546500    -1.3444640    -1.2649060
  H       -2.6546490    -1.3442280     1.2651520
  H       -3.1713850     0.1481950     2.1095680
  H       -0.6521860    -0.1397250    -2.0793070
  H       -1.1612660     1.3434560    -1.2528060
  H       -1.1612790     1.3436960     1.2525480
  H       -0.6521900    -0.1393200     2.0793360
  H        0.8654370     2.0434980    -0.0001730
  H        1.1935250    -2.2508840     0.0001950
  H        3.3333780     2.2368900    -0.0001920
  H        3.6871730    -2.0528130     0.0001780
  H        4.7470650     0.1949390    -0.0000240
units angstrom
no_reorient  #important for SAPT in psi4, default
symmetry c1  #important for SAPT in psi4, default
}

set PROPERTIES_ORIGIN ["COM"]
properties('MP2/aug-cc-pvtz', properties = ['dipole'])
--------------------------------------------------------------------------

    Molecular point group: c1
  Charge       = 1
  Multiplicity = 1
  Basis Set: AUG-CC-PVTZ
    Blend: AUG-CC-PVTZ
  Basis Set: (AUG-CC-PVTZ AUX)
    Blend: AUG-CC-PVTZ-JKFIT

    Orbital Energies [Eh]
    ---------------------

    Doubly Occupied:

       1A    -15.865592     2A    -15.705516     3A    -11.457217
       4A    -11.455959     5A    -11.418605     6A    -11.418532
       7A    -11.380401     8A    -11.345197     9A    -11.339762
      10A    -11.339606    11A    -11.337230    12A    -11.334323
      13A     -1.497429    14A     -1.401345    15A     -1.251094
      16A     -1.219857    17A     -1.153978    18A     -1.120245
      19A     -1.088599    20A     -1.054762    21A     -0.995674
      22A     -0.939129    23A     -0.927064    24A     -0.924450
      25A     -0.869634    26A     -0.821897    27A     -0.820063
      28A     -0.795819    29A     -0.791512    30A     -0.770746
      31A     -0.738652    32A     -0.734499    33A     -0.717504
      34A     -0.705418    35A     -0.689489    36A     -0.685771
      37A     -0.663600    38A     -0.653825    39A     -0.607856
      40A     -0.603155    41A     -0.602420    42A     -0.520689
      43A     -0.440860    44A     -0.439452

  @DF-RHF Final Energy:  -496.25819498664464

   => Energetics <=

    Nuclear Repulsion Energy =            707.5465126333580201
    One-Electron Energy =               -2062.3205572930401104
    Two-Electron Energy =                 858.5158496730375646
    Total Energy =                       -496.2581949866446394
  Basis Set: (AUG-CC-PVTZ AUX)
    Blend: AUG-CC-PVTZ-RI
    Molecular point group: c1

    Geometry (in Angstrom), charge = 1, multiplicity = 1:

       Center              X                  Y                   Z               Mass
    ------------   -----------------  -----------------  -----------------  -----------------
         N           -3.385463321025     0.203232429070    -0.003049435434    14.003074004430
         N           -0.606693321025    -0.285868570930    -0.002999435434    14.003074004430
         C           -2.674441321025    -0.244708570930    -1.260374435434    12.000000000000
         C           -2.674444321025    -0.244474570930     1.254361564566    12.000000000000
         C           -1.217835021025     0.228536829070    -1.162243835434    12.000000000000
         C           -1.239545321025     0.247035429070     1.197309564566    12.000000000000
         C            0.831011678975    -0.117410570930    -0.003017435434    12.000000000000
         C            1.420821678975     1.152294429070    -0.003124435434    12.000000000000
         C            1.620953678975    -1.268830570930    -0.002916435434    12.000000000000
         C            2.812428678975     1.263025429070    -0.003138435434    12.000000000000
         C            3.011696678975    -1.150179570930    -0.002931435434    12.000000000000
         C            3.607156678975     0.113806429070    -0.003038435434    12.000000000000
         H           -3.442391321025     1.231758429070    -0.003143435434     1.007825032230
         H           -4.355940321025    -0.138976570930    -0.003019435434     1.007825032230
         H           -3.228474321025     0.156824429070    -2.112628435434     1.007825032230
         H           -2.711745321025    -1.335443570930    -1.267935435434     1.007825032230
         H           -2.711744321025    -1.335207570930     1.262122564566     1.007825032230
         H           -3.228480321025     0.157215429070     2.106538564566     1.007825032230
         H           -0.709281321025    -0.130704570930    -2.082336435434     1.007825032230
         H           -1.218361321025     1.352476429070    -1.255835435434     1.007825032230
         H           -1.218374321025     1.352716429070     1.249518564566     1.007825032230
         H           -0.709285321025    -0.130299570930     2.076306564566     1.007825032230
         H            0.808341678975     2.052518429070    -0.003202435434     1.007825032230
         H            1.136429678975    -2.241863570930    -0.002834435434     1.007825032230
         H            3.276282678975     2.245910429070    -0.003221435434     1.007825032230
         H            3.630077678975    -2.043792570930    -0.002851435434     1.007825032230
         H            4.689969678975     0.203959429070    -0.003053435434     1.007825032230

  Basis Set: AUG-CC-PVTZ
    Blend: AUG-CC-PVTZ
  Basis Set: (AUG-CC-PVTZ AUX)
    Blend: AUG-CC-PVTZ-JKFIT
	 Reference Energy          =    -496.2581949866446394 [Eh]
	 Singles Energy            =      -0.0000000000000000 [Eh]
	 Same-Spin Energy          =      -0.5398181457411907 [Eh]
	 Opposite-Spin Energy      =      -1.7586039104834394 [Eh]
	 Correlation Energy        =      -2.2984220562246302 [Eh]
	 Total Energy              =    -498.5566170428692772 [Eh]

	 ================> DF-SCS-MP2 Energies <==================
	-----------------------------------------------------------
	 SCS Same-Spin Scale       =       0.3333333333333333 [-]
	 SCS Opposite-Spin Scale   =       1.2000000000000000 [-]
	 SCS Same-Spin Energy      =      -0.1799393819137302 [Eh]
	 SCS Opposite-Spin Energy  =      -2.1103246925801273 [Eh]
	 SCS Correlation Energy    =      -2.2902640744938574 [Eh]
	 SCS Total Energy          =    -498.5484590611384874 [Eh]
	-----------------------------------------------------------

  Dipole Moment: [D]
     X:   -11.3984      Y:     1.0416      Z:     0.0741     Total:    11.4461

*** Psi4 exiting successfully. Buy a developer a beer!
