                               Psi4 1.3.2 release

  ==> Input File <==

--------------------------------------------------------------------------
#psi4
#
memory 32 gb

molecule  {
1 1
  N       -3.3283680     0.1942120    -0.0000200
  N       -0.5495980    -0.2948890     0.0000300
  C       -2.6173460    -0.2537290    -1.2573450
  C       -2.6173490    -0.2534950     1.2573910
  C       -1.1824450     0.2377860    -1.2003860
  C       -1.1824500     0.2380150     1.2003390
  C        0.8881070    -0.1264310     0.0000120
  C        1.4779170     1.1432740    -0.0000950
  C        1.6780490    -1.2778510     0.0001130
  C        2.8695240     1.2540050    -0.0001090
  C        3.0687920    -1.1592000     0.0000980
  C        3.6642520     0.1047860    -0.0000090
  H       -3.3797695     1.1228908    -0.0001049
  H       -4.2988450    -0.1479970     0.0000100
  H       -3.1713790     0.1478040    -2.1095990
  H       -2.6546500    -1.3444640    -1.2649060
  H       -2.6546490    -1.3442280     1.2651520
  H       -3.1713850     0.1481950     2.1095680
  H       -0.6521860    -0.1397250    -2.0793070
  H       -1.1612660     1.3434560    -1.2528060
  H       -1.1612790     1.3436960     1.2525480
  H       -0.6521900    -0.1393200     2.0793360
  H        0.8654370     2.0434980    -0.0001730
  H        1.1935250    -2.2508840     0.0001950
  H        3.3333780     2.2368900    -0.0001920
  H        3.6871730    -2.0528130     0.0001780
  H        4.7470650     0.1949390    -0.0000240
units angstrom
no_reorient  #important for SAPT in psi4, default
symmetry c1  #important for SAPT in psi4, default
}

set PROPERTIES_ORIGIN ["COM"]
properties('MP2/aug-cc-pvtz', properties = ['dipole'])
--------------------------------------------------------------------------

    Molecular point group: c1
  Charge       = 1
  Multiplicity = 1
  Basis Set: AUG-CC-PVTZ
    Blend: AUG-CC-PVTZ
  Basis Set: (AUG-CC-PVTZ AUX)
    Blend: AUG-CC-PVTZ-JKFIT

    Orbital Energies [Eh]
    ---------------------

    Doubly Occupied:

       1A    -15.858650     2A    -15.705336     3A    -11.457663
       4A    -11.457652     5A    -11.417906     6A    -11.417891
       7A    -11.379356     8A    -11.344449     9A    -11.339101
      10A    -11.338982    11A    -11.336704    12A    -11.333715
      13A     -1.513317    14A     -1.392081    15A     -1.250257
      16A     -1.222628    17A     -1.159271    18A     -1.119638
      19A     -1.090568    20A     -1.054063    21A     -1.010641
      22A     -0.943185    23A     -0.929208    24A     -0.924521
      25A     -0.874943    26A     -0.825011    27A     -0.820241
      28A     -0.794557    29A     -0.788944    30A     -0.769492
      31A     -0.740676    32A     -0.736247    33A     -0.717795
      34A     -0.707403    35A     -0.688982    36A     -0.688720
      37A     -0.661104    38A     -0.660755    39A     -0.607437
      40A     -0.602227    41A     -0.601836    42A     -0.520872
      43A     -0.440338    44A     -0.438448

  @DF-RHF Final Energy:  -496.25552321553897

   => Energetics <=

    Nuclear Repulsion Energy =            707.2567279153598747
    One-Electron Energy =               -2061.6588826237016292
    Two-Electron Energy =                 858.1466314928027259
    Total Energy =                       -496.2555232155389149
  Basis Set: (AUG-CC-PVTZ AUX)
    Blend: AUG-CC-PVTZ-RI
    Molecular point group: c1

    Geometry (in Angstrom), charge = 1, multiplicity = 1:

       Center              X                  Y                   Z               Mass
    ------------   -----------------  -----------------  -----------------  -----------------
         N           -3.383900739189     0.202505331654    -0.000020748840    14.003074004430
         N           -0.605130739189    -0.286595668346     0.000029251160    14.003074004430
         C           -2.672878739189    -0.245435668346    -1.257345748840    12.000000000000
         C           -2.672881739189    -0.245201668346     1.257390251160    12.000000000000
         C           -1.237977739189     0.246079331654    -1.200386748840    12.000000000000
         C           -1.237982739189     0.246308331654     1.200338251160    12.000000000000
         C            0.832574260811    -0.118137668346     0.000011251160    12.000000000000
         C            1.422384260811     1.151567331654    -0.000095748840    12.000000000000
         C            1.622516260811    -1.269557668346     0.000112251160    12.000000000000
         C            2.813991260811     1.262298331654    -0.000109748840    12.000000000000
         C            3.013259260811    -1.150906668346     0.000097251160    12.000000000000
         C            3.608719260811     0.113079331654    -0.000009748840    12.000000000000
         H           -3.435302239189     1.131184131654    -0.000105648840     1.007825032230
         H           -4.354377739189    -0.139703668346     0.000009251160     1.007825032230
         H           -3.226911739189     0.156097331654    -2.109599748840     1.007825032230
         H           -2.710182739189    -1.336170668346    -1.264906748840     1.007825032230
         H           -2.710181739189    -1.335934668346     1.265151251160     1.007825032230
         H           -3.226917739189     0.156488331654     2.109567251160     1.007825032230
         H           -0.707718739189    -0.131431668346    -2.079307748840     1.007825032230
         H           -1.216798739189     1.351749331654    -1.252806748840     1.007825032230
         H           -1.216811739189     1.351989331654     1.252547251160     1.007825032230
         H           -0.707722739189    -0.131026668346     2.079335251160     1.007825032230
         H            0.809904260811     2.051791331654    -0.000173748840     1.007825032230
         H            1.137992260811    -2.242590668346     0.000194251160     1.007825032230
         H            3.277845260811     2.245183331654    -0.000192748840     1.007825032230
         H            3.631640260811    -2.044519668346     0.000177251160     1.007825032230
         H            4.691532260811     0.203232331654    -0.000024748840     1.007825032230

  Basis Set: AUG-CC-PVTZ
    Blend: AUG-CC-PVTZ
  Basis Set: (AUG-CC-PVTZ AUX)
    Blend: AUG-CC-PVTZ-JKFIT
	 Reference Energy          =    -496.2555232155389717 [Eh]
	 Singles Energy            =      -0.0000000000000000 [Eh]
	 Same-Spin Energy          =      -0.5387857730497929 [Eh]
	 Opposite-Spin Energy      =      -1.7566919920690491 [Eh]
	 Correlation Energy        =      -2.2954777651188421 [Eh]
	 Total Energy              =    -498.5510009806578182 [Eh]

	 ================> DF-SCS-MP2 Energies <==================
	-----------------------------------------------------------
	 SCS Same-Spin Scale       =       0.3333333333333333 [-]
	 SCS Opposite-Spin Scale   =       1.2000000000000000 [-]
	 SCS Same-Spin Energy      =      -0.1795952576832643 [Eh]
	 SCS Opposite-Spin Energy  =      -2.1080303904828588 [Eh]
	 SCS Correlation Energy    =      -2.2876256481661232 [Eh]
	 SCS Total Energy          =    -498.5431488637050848 [Eh]
	-----------------------------------------------------------

  Dipole Moment: [D]
     X:   -11.4604      Y:     0.9906      Z:    -0.0001     Total:    11.5031

*** Psi4 exiting successfully. Buy a developer a beer!
