                               Psi4 1.3.2 release

  ==> Input File <==

--------------------------------------------------------------------------
#psi4
#
memory 32 gb

molecule  {
1 1
  N       -3.3283680     0.1942120    -0.0000200
  N       -0.5495980    -0.2948890     0.0000300
  C       -2.5233145    -0.3129685    -1.4236242
  C       -2.6173490    -0.2534950     1.2573910
  C       -1.1824450     0.2377860    -1.2003860
  C       -1.1824500     0.2380150     1.2003390
  C        0.8881070    -0.1264310     0.0000120
  C        1.4779170     1.1432740    -0.0000950
  C        1.6780490    -1.2778510     0.0001130
  C        2.8695240     1.2540050    -0.0001090
  C        3.0687920    -1.1592000     0.0000980
  C        3.6642520     0.1047860    -0.0000090
  H       -3.3852960     1.2227380    -0.0001140
  H       -4.2988450    -0.1479970     0.0000100
  H       -3.1713790     0.1478040    -2.1095990
  H       -2.6546500    -1.3444640    -1.2649060
  H       -2.6546490    -1.3442280     1.2651520
  H       -3.1713850     0.1481950     2.1095680
  H       -0.6521860    -0.1397250    -2.0793070
  H       -1.1612660     1.3434560    -1.2528060
  H       -1.1612790     1.3436960     1.2525480
  H       -0.6521900    -0.1393200     2.0793360
  H        0.8654370     2.0434980    -0.0001730
  H        1.1935250    -2.2508840     0.0001950
  H        3.3333780     2.2368900    -0.0001920
  H        3.6871730    -2.0528130     0.0001780
  H        4.7470650     0.1949390    -0.0000240
units angstrom
no_reorient  #important for SAPT in psi4, default
symmetry c1  #important for SAPT in psi4, default
}

set PROPERTIES_ORIGIN ["COM"]
properties('MP2/aug-cc-pvtz', properties = ['dipole'])
--------------------------------------------------------------------------

    Molecular point group: c1
  Charge       = 1
  Multiplicity = 1
  Basis Set: AUG-CC-PVTZ
    Blend: AUG-CC-PVTZ
  Basis Set: (AUG-CC-PVTZ AUX)
    Blend: AUG-CC-PVTZ-JKFIT

    Orbital Energies [Eh]
    ---------------------

    Doubly Occupied:

       1A    -15.839493     2A    -15.708419     3A    -11.473958
       4A    -11.447104     5A    -11.421372     6A    -11.413755
       7A    -11.381000     8A    -11.345633     9A    -11.340146
      10A    -11.340110    11A    -11.337731    12A    -11.334709
      13A     -1.458380    14A     -1.387914    15A     -1.251778
      16A     -1.227593    17A     -1.156016    18A     -1.120713
      19A     -1.089242    20A     -1.046589    21A     -0.990022
      22A     -0.936079    23A     -0.922835    24A     -0.905377
      25A     -0.861379    26A     -0.829395    27A     -0.814092
      28A     -0.800610    29A     -0.776817    30A     -0.760522
      31A     -0.746689    32A     -0.739010    33A     -0.722742
      34A     -0.711040    35A     -0.692207    36A     -0.685394
      37A     -0.667070    38A     -0.642568    39A     -0.608440
      40A     -0.604613    41A     -0.602130    42A     -0.524068
      43A     -0.441404    44A     -0.439648

  @DF-RHF Final Energy:  -496.23674629925443

   => Energetics <=

    Nuclear Repulsion Energy =            704.7480560931949185
    One-Electron Energy =               -2056.8779926842903478
    Two-Electron Energy =                 855.8931902918410515
    Total Energy =                       -496.2367462992543778
  Basis Set: (AUG-CC-PVTZ AUX)
    Blend: AUG-CC-PVTZ-RI
    Molecular point group: c1

    Geometry (in Angstrom), charge = 1, multiplicity = 1:

       Center              X                  Y                   Z               Mass
    ------------   -----------------  -----------------  -----------------  -----------------
         N           -3.390783917230     0.206246334051     0.012211451204    14.003074004430
         N           -0.612013917230    -0.282854665949     0.012261451204    14.003074004430
         C           -2.585730417230    -0.300934165949    -1.411392748796    12.000000000000
         C           -2.679764917230    -0.241460665949     1.269622451204    12.000000000000
         C           -1.244860917230     0.249820334051    -1.188154548796    12.000000000000
         C           -1.244865917230     0.250049334051     1.212570451204    12.000000000000
         C            0.825691082770    -0.114396665949     0.012243451204    12.000000000000
         C            1.415501082770     1.155308334051     0.012136451204    12.000000000000
         C            1.615633082770    -1.265816665949     0.012344451204    12.000000000000
         C            2.807108082770     1.266039334051     0.012122451204    12.000000000000
         C            3.006376082770    -1.147165665949     0.012329451204    12.000000000000
         C            3.601836082770     0.116820334051     0.012222451204    12.000000000000
         H           -3.447711917230     1.234772334051     0.012117451204     1.007825032230
         H           -4.361260917230    -0.135962665949     0.012241451204     1.007825032230
         H           -3.233794917230     0.159838334051    -2.097367548796     1.007825032230
         H           -2.717065917230    -1.332429665949    -1.252674548796     1.007825032230
         H           -2.717064917230    -1.332193665949     1.277383451204     1.007825032230
         H           -3.233800917230     0.160229334051     2.121799451204     1.007825032230
         H           -0.714601917230    -0.127690665949    -2.067075548796     1.007825032230
         H           -1.223681917230     1.355490334051    -1.240574548796     1.007825032230
         H           -1.223694917230     1.355730334051     1.264779451204     1.007825032230
         H           -0.714605917230    -0.127285665949     2.091567451204     1.007825032230
         H            0.803021082770     2.055532334051     0.012058451204     1.007825032230
         H            1.131109082770    -2.238849665949     0.012426451204     1.007825032230
         H            3.270962082770     2.248924334051     0.012039451204     1.007825032230
         H            3.624757082770    -2.040778665949     0.012409451204     1.007825032230
         H            4.684649082770     0.206973334051     0.012207451204     1.007825032230

  Basis Set: AUG-CC-PVTZ
    Blend: AUG-CC-PVTZ
  Basis Set: (AUG-CC-PVTZ AUX)
    Blend: AUG-CC-PVTZ-JKFIT
	 Reference Energy          =    -496.2367462992544347 [Eh]
	 Singles Energy            =      -0.0000000000000000 [Eh]
	 Same-Spin Energy          =      -0.5393747226400321 [Eh]
	 Opposite-Spin Energy      =      -1.7598050574066029 [Eh]
	 Correlation Energy        =      -2.2991797800466349 [Eh]
	 Total Energy              =    -498.5359260793010776 [Eh]

	 ================> DF-SCS-MP2 Energies <==================
	-----------------------------------------------------------
	 SCS Same-Spin Scale       =       0.3333333333333333 [-]
	 SCS Opposite-Spin Scale   =       1.2000000000000000 [-]
	 SCS Same-Spin Energy      =      -0.1797915742133440 [Eh]
	 SCS Opposite-Spin Energy  =      -2.1117660688879232 [Eh]
	 SCS Correlation Energy    =      -2.2915576431012674 [Eh]
	 SCS Total Energy          =    -498.5283039423557057 [Eh]
	-----------------------------------------------------------

  Dipole Moment: [D]
     X:   -11.1571      Y:     0.9953      Z:    -0.4526     Total:    11.2105

*** Psi4 exiting successfully. Buy a developer a beer!
