                               Psi4 1.3.2 release

  ==> Input File <==

--------------------------------------------------------------------------
#psi4
#
memory 32 gb

molecule  {
1 1
  N       -3.3283680     0.1942120    -0.0000200
  N       -0.5428431    -0.3449616     0.0000341
  C       -2.6173460    -0.2537290    -1.2573450
  C       -2.6173490    -0.2534950     1.2573910
  C       -1.1824450     0.2377860    -1.2003860
  C       -1.1824500     0.2380150     1.2003390
  C        0.8881070    -0.1264310     0.0000120
  C        1.4779170     1.1432740    -0.0000950
  C        1.6780490    -1.2778510     0.0001130
  C        2.8695240     1.2540050    -0.0001090
  C        3.0687920    -1.1592000     0.0000980
  C        3.6642520     0.1047860    -0.0000090
  H       -3.3852960     1.2227380    -0.0001140
  H       -4.2988450    -0.1479970     0.0000100
  H       -3.1713790     0.1478040    -2.1095990
  H       -2.6546500    -1.3444640    -1.2649060
  H       -2.6546490    -1.3442280     1.2651520
  H       -3.1713850     0.1481950     2.1095680
  H       -0.6521860    -0.1397250    -2.0793070
  H       -1.1612660     1.3434560    -1.2528060
  H       -1.1612790     1.3436960     1.2525480
  H       -0.6521900    -0.1393200     2.0793360
  H        0.8654370     2.0434980    -0.0001730
  H        1.1935250    -2.2508840     0.0001950
  H        3.3333780     2.2368900    -0.0001920
  H        3.6871730    -2.0528130     0.0001780
  H        4.7470650     0.1949390    -0.0000240
units angstrom
no_reorient  #important for SAPT in psi4, default
symmetry c1  #important for SAPT in psi4, default
}

set PROPERTIES_ORIGIN ["COM"]
properties('MP2/aug-cc-pvtz', properties = ['dipole'])
--------------------------------------------------------------------------

    Molecular point group: c1
  Charge       = 1
  Multiplicity = 1
  Basis Set: AUG-CC-PVTZ
    Blend: AUG-CC-PVTZ
  Basis Set: (AUG-CC-PVTZ AUX)
    Blend: AUG-CC-PVTZ-JKFIT

    Orbital Energies [Eh]
    ---------------------

    Doubly Occupied:

       1A    -15.866775     2A    -15.710365     3A    -11.456947
       4A    -11.456937     5A    -11.418256     6A    -11.418242
       7A    -11.378604     8A    -11.344979     9A    -11.339235
      10A    -11.337544    11A    -11.335883    12A    -11.333134
      13A     -1.497294    14A     -1.384864    15A     -1.248860
      16A     -1.220772    17A     -1.155159    18A     -1.119255
      19A     -1.085293    20A     -1.049955    21A     -0.998592
      22A     -0.939228    23A     -0.926775    24A     -0.921922
      25A     -0.870506    26A     -0.823982    27A     -0.817658
      28A     -0.789127    29A     -0.784149    30A     -0.767418
      31A     -0.738363    32A     -0.735210    33A     -0.717058
      34A     -0.705472    35A     -0.689216    36A     -0.688386
      37A     -0.659595    38A     -0.654389    39A     -0.607649
      40A     -0.600790    41A     -0.600197    42A     -0.528902
      43A     -0.440026    44A     -0.437336

  @DF-RHF Final Energy:  -496.25795354130338

   => Energetics <=

    Nuclear Repulsion Energy =            706.0448901919730815
    One-Electron Energy =               -2059.4050906477623357
    Two-Electron Energy =                 857.1022469144858178
    Total Energy =                       -496.2579535413034364
  Basis Set: (AUG-CC-PVTZ AUX)
    Blend: AUG-CC-PVTZ-RI
    Molecular point group: c1

    Geometry (in Angstrom), charge = 1, multiplicity = 1:

       Center              X                  Y                   Z               Mass
    ------------   -----------------  -----------------  -----------------  -----------------
         N           -3.384446458271     0.206186847372    -0.000021044575    14.003074004430
         N           -0.598921558271    -0.332986752628     0.000033055425    14.003074004430
         C           -2.673424458271    -0.241754152628    -1.257346044575    12.000000000000
         C           -2.673427458271    -0.241520152628     1.257389955425    12.000000000000
         C           -1.238523458271     0.249760847372    -1.200387044575    12.000000000000
         C           -1.238528458271     0.249989847372     1.200337955425    12.000000000000
         C            0.832028541729    -0.114456152628     0.000010955425    12.000000000000
         C            1.421838541729     1.155248847372    -0.000096044575    12.000000000000
         C            1.621970541729    -1.265876152628     0.000111955425    12.000000000000
         C            2.813445541729     1.265979847372    -0.000110044575    12.000000000000
         C            3.012713541729    -1.147225152628     0.000096955425    12.000000000000
         C            3.608173541729     0.116760847372    -0.000010044575    12.000000000000
         H           -3.441374458271     1.234712847372    -0.000115044575     1.007825032230
         H           -4.354923458271    -0.136022152628     0.000008955425     1.007825032230
         H           -3.227457458271     0.159778847372    -2.109600044575     1.007825032230
         H           -2.710728458271    -1.332489152628    -1.264907044575     1.007825032230
         H           -2.710727458271    -1.332253152628     1.265150955425     1.007825032230
         H           -3.227463458271     0.160169847372     2.109566955425     1.007825032230
         H           -0.708264458271    -0.127750152628    -2.079308044575     1.007825032230
         H           -1.217344458271     1.355430847372    -1.252807044575     1.007825032230
         H           -1.217357458271     1.355670847372     1.252546955425     1.007825032230
         H           -0.708268458271    -0.127345152628     2.079334955425     1.007825032230
         H            0.809358541729     2.055472847372    -0.000174044575     1.007825032230
         H            1.137446541729    -2.238909152628     0.000193955425     1.007825032230
         H            3.277299541729     2.248864847372    -0.000193044575     1.007825032230
         H            3.631094541729    -2.040838152628     0.000176955425     1.007825032230
         H            4.690986541729     0.206913847372    -0.000025044575     1.007825032230

  Basis Set: AUG-CC-PVTZ
    Blend: AUG-CC-PVTZ
  Basis Set: (AUG-CC-PVTZ AUX)
    Blend: AUG-CC-PVTZ-JKFIT
	 Reference Energy          =    -496.2579535413033796 [Eh]
	 Singles Energy            =      -0.0000000000000000 [Eh]
	 Same-Spin Energy          =      -0.5396441821809905 [Eh]
	 Opposite-Spin Energy      =      -1.7594230493593188 [Eh]
	 Correlation Energy        =      -2.2990672315403096 [Eh]
	 Total Energy              =    -498.5570207728437140 [Eh]

	 ================> DF-SCS-MP2 Energies <==================
	-----------------------------------------------------------
	 SCS Same-Spin Scale       =       0.3333333333333333 [-]
	 SCS Opposite-Spin Scale   =       1.2000000000000000 [-]
	 SCS Same-Spin Energy      =      -0.1798813940603302 [Eh]
	 SCS Opposite-Spin Energy  =      -2.1113076592311826 [Eh]
	 SCS Correlation Energy    =      -2.2911890532915127 [Eh]
	 SCS Total Energy          =    -498.5491425945949118 [Eh]
	-----------------------------------------------------------

  Dipole Moment: [D]
     X:   -11.5302      Y:     1.2221      Z:    -0.0001     Total:    11.5948

*** Psi4 exiting successfully. Buy a developer a beer!
