                               Psi4 1.4a3.dev225

  ==> Input File <==

--------------------------------------------------------------------------
#psi4
#
memory 32 gb

molecule  {
1 1
  N       -3.3283680     0.1942120    -0.0000200
  N       -0.5495980    -0.2948890     0.0000300
  C       -2.6173460    -0.2537290    -1.2573450
  C       -2.6173490    -0.2534950     1.2573910
  C       -1.1737629     0.2304782    -1.1839173
  C       -1.1824500     0.2380150     1.2003390
  C        0.8881070    -0.1264310     0.0000120
  C        1.4779170     1.1432740    -0.0000950
  C        1.6780490    -1.2778510     0.0001130
  C        2.8695240     1.2540050    -0.0001090
  C        3.0687920    -1.1592000     0.0000980
  C        3.6642520     0.1047860    -0.0000090
  H       -3.3852960     1.2227380    -0.0001140
  H       -4.2988450    -0.1479970     0.0000100
  H       -3.1713790     0.1478040    -2.1095990
  H       -2.6546500    -1.3444640    -1.2649060
  H       -2.6546490    -1.3442280     1.2651520
  H       -3.1713850     0.1481950     2.1095680
  H       -0.6521860    -0.1397250    -2.0793070
  H       -1.1612660     1.3434560    -1.2528060
  H       -1.1612790     1.3436960     1.2525480
  H       -0.6521900    -0.1393200     2.0793360
  H        0.8654370     2.0434980    -0.0001730
  H        1.1935250    -2.2508840     0.0001950
  H        3.3333780     2.2368900    -0.0001920
  H        3.6871730    -2.0528130     0.0001780
  H        4.7470650     0.1949390    -0.0000240
units angstrom
no_reorient  #important for SAPT in psi4, default
symmetry c1  #important for SAPT in psi4, default
}

set PROPERTIES_ORIGIN ["COM"]
properties('MP2/aug-cc-pvtz', properties = ['dipole'])
--------------------------------------------------------------------------

    Molecular point group: c1
  Charge       = 1
  Multiplicity = 1
  Basis Set: AUG-CC-PVTZ
    Blend: AUG-CC-PVTZ
  Basis Set: (AUG-CC-PVTZ AUX)
    Blend: AUG-CC-PVTZ-JKFIT

    Orbital Energies [Eh]
    ---------------------

    Doubly Occupied:

       1A    -15.866265     2A    -15.705189     3A    -11.456965
       4A    -11.456471     5A    -11.417849     6A    -11.417771
       7A    -11.379622     8A    -11.344635     9A    -11.339208
      10A    -11.339155    11A    -11.336805    12A    -11.333848
      13A     -1.497511    14A     -1.394382    15A     -1.250228
      16A     -1.220886    17A     -1.154395    18A     -1.119755
      19A     -1.087338    20A     -1.053760    21A     -0.996586
      22A     -0.938877    23A     -0.926876    24A     -0.924074
      25A     -0.869632    26A     -0.822735    27A     -0.818903
      28A     -0.793653    29A     -0.789670    30A     -0.769683
      31A     -0.738430    32A     -0.735028    33A     -0.717373
      34A     -0.705516    35A     -0.689001    36A     -0.686996
      37A     -0.661949    38A     -0.657825    39A     -0.607523
      40A     -0.602329    41A     -0.602139    42A     -0.520703
      43A     -0.440438    44A     -0.438727

  @DF-RHF Final Energy:  -496.26043381829095

   => Energetics <=

    Nuclear Repulsion Energy =            707.0076486911032134
    One-Electron Energy =               -2061.2827524009944682
    Two-Electron Energy =                 858.0146698916003061
    Total Energy =                       -496.2604338182909487
  Basis Set: (AUG-CC-PVTZ AUX)
    Blend: AUG-CC-PVTZ-RI
    Molecular point group: c1

    Geometry (in Angstrom), charge = 1, multiplicity = 1:

       Center              X                  Y                   Z               Mass
    ------------   -----------------  -----------------  -----------------  -----------------
         N           -3.384505283848     0.202426036483    -0.001232194158    14.003074004430
         N           -0.605735283848    -0.286674963517    -0.001182194158    14.003074004430
         C           -2.673483283848    -0.245514963517    -1.258557194158    12.000000000000
         C           -2.673486283848    -0.245280963517     1.256178805842    12.000000000000
         C           -1.229900183848     0.238692236483    -1.185129494158    12.000000000000
         C           -1.238587283848     0.246229036483     1.199126805842    12.000000000000
         C            0.831969716152    -0.118216963517    -0.001200194158    12.000000000000
         C            1.421779716152     1.151488036483    -0.001307194158    12.000000000000
         C            1.621911716152    -1.269636963517    -0.001099194158    12.000000000000
         C            2.813386716152     1.262219036483    -0.001321194158    12.000000000000
         C            3.012654716152    -1.150985963517    -0.001114194158    12.000000000000
         C            3.608114716152     0.113000036483    -0.001221194158    12.000000000000
         H           -3.441433283848     1.230952036483    -0.001326194158     1.007825032230
         H           -4.354982283848    -0.139782963517    -0.001202194158     1.007825032230
         H           -3.227516283848     0.156018036483    -2.110811194158     1.007825032230
         H           -2.710787283848    -1.336249963517    -1.266118194158     1.007825032230
         H           -2.710786283848    -1.336013963517     1.263939805842     1.007825032230
         H           -3.227522283848     0.156409036483     2.108355805842     1.007825032230
         H           -0.708323283848    -0.131510963517    -2.080519194158     1.007825032230
         H           -1.217403283848     1.351670036483    -1.254018194158     1.007825032230
         H           -1.217416283848     1.351910036483     1.251335805842     1.007825032230
         H           -0.708327283848    -0.131105963517     2.078123805842     1.007825032230
         H            0.809299716152     2.051712036483    -0.001385194158     1.007825032230
         H            1.137387716152    -2.242669963517    -0.001017194158     1.007825032230
         H            3.277240716152     2.245104036483    -0.001404194158     1.007825032230
         H            3.631035716152    -2.044598963517    -0.001034194158     1.007825032230
         H            4.690927716152     0.203153036483    -0.001236194158     1.007825032230

  Basis Set: AUG-CC-PVTZ
    Blend: AUG-CC-PVTZ
  Basis Set: (AUG-CC-PVTZ AUX)
    Blend: AUG-CC-PVTZ-JKFIT
	 Reference Energy          =    -496.2604338182909487 [Eh]
	 Singles Energy            =      -0.0000000000000000 [Eh]
	 Same-Spin Energy          =      -0.5395667468077181 [Eh]
	 Opposite-Spin Energy      =      -1.7584403577360179 [Eh]
	 Correlation Energy        =      -2.2980071045437360 [Eh]
	 Total Energy              =    -498.5584409228346772 [Eh]

	 ================> DF-SCS-MP2 Energies <==================
	-----------------------------------------------------------
	 SCS Same-Spin Scale       =       0.3333333333333333 [-]
	 SCS Opposite-Spin Scale   =       1.2000000000000000 [-]
	 SCS Same-Spin Energy      =      -0.1798555822692394 [Eh]
	 SCS Opposite-Spin Energy  =      -2.1101284292832214 [Eh]
	 SCS Correlation Energy    =      -2.2899840115524608 [Eh]
	 SCS Total Energy          =    -498.5504178298434113 [Eh]
	-----------------------------------------------------------

  Dipole Moment: [D]
     X:   -11.4506      Y:     1.0717      Z:     0.0277     Total:    11.5007

*** Psi4 exiting successfully. Buy a developer a beer!
