                               Psi4 1.3.2 release

  ==> Input File <==

--------------------------------------------------------------------------
#psi4
#
memory 32 gb

molecule  {
1 1
  N       -3.3283680     0.1942120    -0.0000200
  N       -0.5495980    -0.2948890     0.0000300
  C       -2.6173460    -0.2537290    -1.2573450
  C       -2.6173490    -0.2534950     1.2573910
  C       -1.0829927     0.1540507    -1.2802746
  C       -1.1824500     0.2380150     1.2003390
  C        0.8881070    -0.1264310     0.0000120
  C        1.4779170     1.1432740    -0.0000950
  C        1.6780490    -1.2778510     0.0001130
  C        2.8695240     1.2540050    -0.0001090
  C        3.0687920    -1.1592000     0.0000980
  C        3.6642520     0.1047860    -0.0000090
  H       -3.3852960     1.2227380    -0.0001140
  H       -4.2988450    -0.1479970     0.0000100
  H       -3.1713790     0.1478040    -2.1095990
  H       -2.6546500    -1.3444640    -1.2649060
  H       -2.6546490    -1.3442280     1.2651520
  H       -3.1713850     0.1481950     2.1095680
  H       -0.6521860    -0.1397250    -2.0793070
  H       -1.1612660     1.3434560    -1.2528060
  H       -1.1612790     1.3436960     1.2525480
  H       -0.6521900    -0.1393200     2.0793360
  H        0.8654370     2.0434980    -0.0001730
  H        1.1935250    -2.2508840     0.0001950
  H        3.3333780     2.2368900    -0.0001920
  H        3.6871730    -2.0528130     0.0001780
  H        4.7470650     0.1949390    -0.0000240
units angstrom
no_reorient  #important for SAPT in psi4, default
symmetry c1  #important for SAPT in psi4, default
}

set PROPERTIES_ORIGIN ["COM"]
properties('MP2/aug-cc-pvtz', properties = ['dipole'])
--------------------------------------------------------------------------

    Molecular point group: c1
  Charge       = 1
  Multiplicity = 1
  Basis Set: AUG-CC-PVTZ
    Blend: AUG-CC-PVTZ
  Basis Set: (AUG-CC-PVTZ AUX)
    Blend: AUG-CC-PVTZ-JKFIT

    Orbital Energies [Eh]
    ---------------------

    Doubly Occupied:

       1A    -15.869599     2A    -15.705817     3A    -11.457869
       4A    -11.456658     5A    -11.423026     6A    -11.421753
       7A    -11.378144     8A    -11.343677     9A    -11.338672
      10A    -11.338260    11A    -11.336270    12A    -11.333195
      13A     -1.496246    14A     -1.390455    15A     -1.248752
      16A     -1.218624    17A     -1.150724    18A     -1.119133
      19A     -1.084855    20A     -1.064057    21A     -0.996033
      22A     -0.939989    23A     -0.932839    24A     -0.922750
      25A     -0.868779    26A     -0.820811    27A     -0.816475
      28A     -0.806000    29A     -0.787275    30A     -0.771921
      31A     -0.737341    32A     -0.734757    33A     -0.718347
      34A     -0.704699    35A     -0.691426    36A     -0.687060
      37A     -0.669854    38A     -0.650471    39A     -0.605930
      40A     -0.602199    41A     -0.598773    42A     -0.513210
      43A     -0.439877    44A     -0.437818

  @DF-RHF Final Energy:  -496.23134739682678

   => Energetics <=

    Nuclear Repulsion Energy =            705.7556408829547081
    One-Electron Energy =               -2058.7131345643479108
    Two-Electron Energy =                 856.7261462845665392
    Total Energy =                       -496.2313473968267772
  Basis Set: (AUG-CC-PVTZ AUX)
    Blend: AUG-CC-PVTZ-RI
    Molecular point group: c1

    Geometry (in Angstrom), charge = 1, multiplicity = 1:

       Center              X                  Y                   Z               Mass
    ------------   -----------------  -----------------  -----------------  -----------------
         N           -3.391182692334     0.208048340247     0.005856223106    14.003074004430
         N           -0.612412692334    -0.281052659753     0.005906223106    14.003074004430
         C           -2.680160692334    -0.239892659753    -1.251468776894    12.000000000000
         C           -2.680163692334    -0.239658659753     1.263267223106    12.000000000000
         C           -1.145807392334     0.167887040247    -1.274398376894    12.000000000000
         C           -1.245264692334     0.251851340247     1.206215223106    12.000000000000
         C            0.825292307666    -0.112594659753     0.005888223106    12.000000000000
         C            1.415102307666     1.157110340247     0.005781223106    12.000000000000
         C            1.615234307666    -1.264014659753     0.005989223106    12.000000000000
         C            2.806709307666     1.267841340247     0.005767223106    12.000000000000
         C            3.005977307666    -1.145363659753     0.005974223106    12.000000000000
         C            3.601437307666     0.118622340247     0.005867223106    12.000000000000
         H           -3.448110692334     1.236574340247     0.005762223106     1.007825032230
         H           -4.361659692334    -0.134160659753     0.005886223106     1.007825032230
         H           -3.234193692334     0.161640340247    -2.103722776894     1.007825032230
         H           -2.717464692334    -1.330627659753    -1.259029776894     1.007825032230
         H           -2.717463692334    -1.330391659753     1.271028223106     1.007825032230
         H           -3.234199692334     0.162031340247     2.115444223106     1.007825032230
         H           -0.715000692334    -0.125888659753    -2.073430776894     1.007825032230
         H           -1.224080692334     1.357292340247    -1.246929776894     1.007825032230
         H           -1.224093692334     1.357532340247     1.258424223106     1.007825032230
         H           -0.715004692334    -0.125483659753     2.085212223106     1.007825032230
         H            0.802622307666     2.057334340247     0.005703223106     1.007825032230
         H            1.130710307666    -2.237047659753     0.006071223106     1.007825032230
         H            3.270563307666     2.250726340247     0.005684223106     1.007825032230
         H            3.624358307666    -2.038976659753     0.006054223106     1.007825032230
         H            4.684250307666     0.208775340247     0.005852223106     1.007825032230

  Basis Set: AUG-CC-PVTZ
    Blend: AUG-CC-PVTZ
  Basis Set: (AUG-CC-PVTZ AUX)
    Blend: AUG-CC-PVTZ-JKFIT
	 Reference Energy          =    -496.2313473968267772 [Eh]
	 Singles Energy            =      -0.0000000000000000 [Eh]
	 Same-Spin Energy          =      -0.5392871823259160 [Eh]
	 Opposite-Spin Energy      =      -1.7591715905847090 [Eh]
	 Correlation Energy        =      -2.2984587729106249 [Eh]
	 Total Energy              =    -498.5298061697374123 [Eh]

	 ================> DF-SCS-MP2 Energies <==================
	-----------------------------------------------------------
	 SCS Same-Spin Scale       =       0.3333333333333333 [-]
	 SCS Opposite-Spin Scale   =       1.2000000000000000 [-]
	 SCS Same-Spin Energy      =      -0.1797623941086386 [Eh]
	 SCS Opposite-Spin Energy  =      -2.1110059087016508 [Eh]
	 SCS Correlation Energy    =      -2.2907683028102896 [Eh]
	 SCS Total Energy          =    -498.5221156996370837 [Eh]
	-----------------------------------------------------------

  Dipole Moment: [D]
     X:   -11.4966      Y:     1.0186      Z:     0.0971     Total:    11.5421

*** Psi4 exiting successfully. Buy a developer a beer!
