                               Psi4 1.4a3.dev225

  ==> Input File <==

--------------------------------------------------------------------------
#psi4
#
memory 32 gb

molecule  {
1 1
  N       -3.3283680     0.1942120    -0.0000200
  N       -0.5495980    -0.2948890     0.0000300
  C       -2.6267491    -0.2478051    -1.2407171
  C       -2.6173490    -0.2534950     1.2573910
  C       -1.1824450     0.2377860    -1.2003860
  C       -1.1824500     0.2380150     1.2003390
  C        0.8881070    -0.1264310     0.0000120
  C        1.4779170     1.1432740    -0.0000950
  C        1.6780490    -1.2778510     0.0001130
  C        2.8695240     1.2540050    -0.0001090
  C        3.0687920    -1.1592000     0.0000980
  C        3.6642520     0.1047860    -0.0000090
  H       -3.3852960     1.2227380    -0.0001140
  H       -4.2988450    -0.1479970     0.0000100
  H       -3.1713790     0.1478040    -2.1095990
  H       -2.6546500    -1.3444640    -1.2649060
  H       -2.6546490    -1.3442280     1.2651520
  H       -3.1713850     0.1481950     2.1095680
  H       -0.6521860    -0.1397250    -2.0793070
  H       -1.1612660     1.3434560    -1.2528060
  H       -1.1612790     1.3436960     1.2525480
  H       -0.6521900    -0.1393200     2.0793360
  H        0.8654370     2.0434980    -0.0001730
  H        1.1935250    -2.2508840     0.0001950
  H        3.3333780     2.2368900    -0.0001920
  H        3.6871730    -2.0528130     0.0001780
  H        4.7470650     0.1949390    -0.0000240
units angstrom
no_reorient  #important for SAPT in psi4, default
symmetry c1  #important for SAPT in psi4, default
}

set PROPERTIES_ORIGIN ["COM"]
properties('MP2/aug-cc-pvtz', properties = ['dipole'])
--------------------------------------------------------------------------

    Molecular point group: c1
  Charge       = 1
  Multiplicity = 1
  Basis Set: AUG-CC-PVTZ
    Blend: AUG-CC-PVTZ
  Basis Set: (AUG-CC-PVTZ AUX)
    Blend: AUG-CC-PVTZ-JKFIT

    Orbital Energies [Eh]
    ---------------------

    Doubly Occupied:

       1A    -15.868590     2A    -15.704688     3A    -11.457582
       4A    -11.455781     5A    -11.417707     6A    -11.417389
       7A    -11.378996     8A    -11.344187     9A    -11.338878
      10A    -11.338686    11A    -11.336458    12A    -11.333471
      13A     -1.502318    14A     -1.390224    15A     -1.249593
      16A     -1.221420    17A     -1.154229    18A     -1.119361
      19A     -1.086314    20A     -1.054193    21A     -0.998225
      22A     -0.939753    23A     -0.928659    24A     -0.923668
      25A     -0.870537    26A     -0.824536    27A     -0.818576
      28A     -0.792106    29A     -0.789133    30A     -0.769356
      31A     -0.737757    32A     -0.733999    33A     -0.717171
      34A     -0.705053    35A     -0.688707    36A     -0.686657
      37A     -0.661525    38A     -0.659002    39A     -0.607157
      40A     -0.601831    41A     -0.601421    42A     -0.520201
      43A     -0.440091    44A     -0.438147

  @DF-RHF Final Energy:  -496.26055004361876

   => Energetics <=

    Nuclear Repulsion Energy =            706.8498537089976708
    One-Electron Energy =               -2060.9741471455722603
    Two-Electron Energy =                 857.8637433929558256
    Total Energy =                       -496.2605500436187640
  Basis Set: (AUG-CC-PVTZ AUX)
    Blend: AUG-CC-PVTZ-RI
    Molecular point group: c1

    Geometry (in Angstrom), charge = 1, multiplicity = 1:

       Center              X                  Y                   Z               Mass
    ------------   -----------------  -----------------  -----------------  -----------------
         N           -3.383174866289     0.201452661236    -0.001243905528    14.003074004430
         N           -0.604404866289    -0.287648338764    -0.001193905528    14.003074004430
         C           -2.681555966289    -0.240564438764    -1.241941005528    12.000000000000
         C           -2.672155866289    -0.246254338764     1.256167094472    12.000000000000
         C           -1.237251866289     0.245026661236    -1.201609905528    12.000000000000
         C           -1.237256866289     0.245255661236     1.199115094472    12.000000000000
         C            0.833300133711    -0.119190338764    -0.001211905528    12.000000000000
         C            1.423110133711     1.150514661236    -0.001318905528    12.000000000000
         C            1.623242133711    -1.270610338764    -0.001110905528    12.000000000000
         C            2.814717133711     1.261245661236    -0.001332905528    12.000000000000
         C            3.013985133711    -1.151959338764    -0.001125905528    12.000000000000
         C            3.609445133711     0.112026661236    -0.001232905528    12.000000000000
         H           -3.440102866289     1.229978661236    -0.001337905528     1.007825032230
         H           -4.353651866289    -0.140756338764    -0.001213905528     1.007825032230
         H           -3.226185866289     0.155044661236    -2.110822905528     1.007825032230
         H           -2.709456866289    -1.337223338764    -1.266129905528     1.007825032230
         H           -2.709455866289    -1.336987338764     1.263928094472     1.007825032230
         H           -3.226191866289     0.155435661236     2.108344094472     1.007825032230
         H           -0.706992866289    -0.132484338764    -2.080530905528     1.007825032230
         H           -1.216072866289     1.350696661236    -1.254029905528     1.007825032230
         H           -1.216085866289     1.350936661236     1.251324094472     1.007825032230
         H           -0.706996866289    -0.132079338764     2.078112094472     1.007825032230
         H            0.810630133711     2.050738661236    -0.001396905528     1.007825032230
         H            1.138718133711    -2.243643338764    -0.001028905528     1.007825032230
         H            3.278571133711     2.244130661236    -0.001415905528     1.007825032230
         H            3.632366133711    -2.045572338764    -0.001045905528     1.007825032230
         H            4.692258133711     0.202179661236    -0.001247905528     1.007825032230

  Basis Set: AUG-CC-PVTZ
    Blend: AUG-CC-PVTZ
  Basis Set: (AUG-CC-PVTZ AUX)
    Blend: AUG-CC-PVTZ-JKFIT
	 Reference Energy          =    -496.2605500436187640 [Eh]
	 Singles Energy            =      -0.0000000000000000 [Eh]
	 Same-Spin Energy          =      -0.5395494843191693 [Eh]
	 Opposite-Spin Energy      =      -1.7584095765542613 [Eh]
	 Correlation Energy        =      -2.2979590608734304 [Eh]
	 Total Energy              =    -498.5585091044922024 [Eh]

	 ================> DF-SCS-MP2 Energies <==================
	-----------------------------------------------------------
	 SCS Same-Spin Scale       =       0.3333333333333333 [-]
	 SCS Opposite-Spin Scale   =       1.2000000000000000 [-]
	 SCS Same-Spin Energy      =      -0.1798498281063897 [Eh]
	 SCS Opposite-Spin Energy  =      -2.1100914918651137 [Eh]
	 SCS Correlation Energy    =      -2.2899413199715033 [Eh]
	 SCS Total Energy          =    -498.5504913635902540 [Eh]
	-----------------------------------------------------------

  Dipole Moment: [D]
     X:   -11.5032      Y:     1.0971      Z:     0.0356     Total:    11.5555

*** Psi4 exiting successfully. Buy a developer a beer!
