                               Psi4 1.3.2 release

  ==> Input File <==

--------------------------------------------------------------------------
#psi4
#
memory 32 gb

molecule  {
1 1
  N       -3.3283680     0.1942120    -0.0000200
  N       -0.5495980    -0.2948890     0.0000300
  C       -2.6173460    -0.2537290    -1.2573450
  C       -2.6173490    -0.2534950     1.2573910
  C       -1.1824450     0.2377860    -1.2003860
  C       -1.1824500     0.2380150     1.2003390
  C        0.7887865    -0.1380685     0.0000132
  C        1.4779170     1.1432740    -0.0000950
  C        1.6780490    -1.2778510     0.0001130
  C        2.8695240     1.2540050    -0.0001090
  C        3.0687920    -1.1592000     0.0000980
  C        3.6642520     0.1047860    -0.0000090
  H       -3.3852960     1.2227380    -0.0001140
  H       -4.2988450    -0.1479970     0.0000100
  H       -3.1713790     0.1478040    -2.1095990
  H       -2.6546500    -1.3444640    -1.2649060
  H       -2.6546490    -1.3442280     1.2651520
  H       -3.1713850     0.1481950     2.1095680
  H       -0.6521860    -0.1397250    -2.0793070
  H       -1.1612660     1.3434560    -1.2528060
  H       -1.1612790     1.3436960     1.2525480
  H       -0.6521900    -0.1393200     2.0793360
  H        0.8654370     2.0434980    -0.0001730
  H        1.1935250    -2.2508840     0.0001950
  H        3.3333780     2.2368900    -0.0001920
  H        3.6871730    -2.0528130     0.0001780
  H        4.7470650     0.1949390    -0.0000240
units angstrom
no_reorient  #important for SAPT in psi4, default
symmetry c1  #important for SAPT in psi4, default
}

set PROPERTIES_ORIGIN ["COM"]
properties('MP2/aug-cc-pvtz', properties = ['dipole'])
--------------------------------------------------------------------------

    Molecular point group: c1
  Charge       = 1
  Multiplicity = 1
  Basis Set: AUG-CC-PVTZ
    Blend: AUG-CC-PVTZ
  Basis Set: (AUG-CC-PVTZ AUX)
    Blend: AUG-CC-PVTZ-JKFIT

    Orbital Energies [Eh]
    ---------------------

    Doubly Occupied:

       1A    -15.869359     2A    -15.707343     3A    -11.459637
       4A    -11.459627     5A    -11.421763     6A    -11.421749
       7A    -11.381679     8A    -11.346821     9A    -11.341016
      10A    -11.336555    11A    -11.334222    12A    -11.332794
      13A     -1.501139    14A     -1.414583    15A     -1.237994
      16A     -1.225471    17A     -1.165152    18A     -1.111713
      19A     -1.079898    20A     -1.058669    21A     -1.004913
      22A     -0.939075    23A     -0.927765    24A     -0.924104
      25A     -0.870710    26A     -0.826730    27A     -0.820866
      28A     -0.797126    29A     -0.796333    30A     -0.774830
      31A     -0.739572    32A     -0.738577    33A     -0.713471
      34A     -0.701681    35A     -0.692325    36A     -0.681474
      37A     -0.667694    38A     -0.666055    39A     -0.612465
      40A     -0.600476    41A     -0.590490    42A     -0.516469
      43A     -0.435988    44A     -0.428252

  @DF-RHF Final Energy:  -496.24603794449104

   => Energetics <=

    Nuclear Repulsion Energy =            707.0996125777713814
    One-Electron Energy =               -2061.3420539739199739
    Two-Electron Energy =                 857.9964034516574429
    Total Energy =                       -496.2460379444910359
  Basis Set: (AUG-CC-PVTZ AUX)
    Blend: AUG-CC-PVTZ-RI
    Molecular point group: c1

    Geometry (in Angstrom), charge = 1, multiplicity = 1:

       Center              X                  Y                   Z               Mass
    ------------   -----------------  -----------------  -----------------  -----------------
         N           -3.376560193083     0.202744546033    -0.000020780894    14.003074004430
         N           -0.597790193083    -0.286356453967     0.000029219106    14.003074004430
         C           -2.665538193083    -0.245196453967    -1.257345780894    12.000000000000
         C           -2.665541193083    -0.244962453967     1.257390219106    12.000000000000
         C           -1.230637193083     0.246318546033    -1.200386780894    12.000000000000
         C           -1.230642193083     0.246547546033     1.200338219106    12.000000000000
         C            0.740594306917    -0.129535953967     0.000012419106    12.000000000000
         C            1.429724806917     1.151806546033    -0.000095780894    12.000000000000
         C            1.629856806917    -1.269318453967     0.000112219106    12.000000000000
         C            2.821331806917     1.262537546033    -0.000109780894    12.000000000000
         C            3.020599806917    -1.150667453967     0.000097219106    12.000000000000
         C            3.616059806917     0.113318546033    -0.000009780894    12.000000000000
         H           -3.433488193083     1.231270546033    -0.000114780894     1.007825032230
         H           -4.347037193083    -0.139464453967     0.000009219106     1.007825032230
         H           -3.219571193083     0.156336546033    -2.109599780894     1.007825032230
         H           -2.702842193083    -1.335931453967    -1.264906780894     1.007825032230
         H           -2.702841193083    -1.335695453967     1.265151219106     1.007825032230
         H           -3.219577193083     0.156727546033     2.109567219106     1.007825032230
         H           -0.700378193083    -0.131192453967    -2.079307780894     1.007825032230
         H           -1.209458193083     1.351988546033    -1.252806780894     1.007825032230
         H           -1.209471193083     1.352228546033     1.252547219106     1.007825032230
         H           -0.700382193083    -0.130787453967     2.079335219106     1.007825032230
         H            0.817244806917     2.052030546033    -0.000173780894     1.007825032230
         H            1.145332806917    -2.242351453967     0.000194219106     1.007825032230
         H            3.285185806917     2.245422546033    -0.000192780894     1.007825032230
         H            3.638980806917    -2.044280453967     0.000177219106     1.007825032230
         H            4.698872806917     0.203471546033    -0.000024780894     1.007825032230

  Basis Set: AUG-CC-PVTZ
    Blend: AUG-CC-PVTZ
  Basis Set: (AUG-CC-PVTZ AUX)
    Blend: AUG-CC-PVTZ-JKFIT
	 Reference Energy          =    -496.2460379444910359 [Eh]
	 Singles Energy            =      -0.0000000000000000 [Eh]
	 Same-Spin Energy          =      -0.5407805900294063 [Eh]
	 Opposite-Spin Energy      =      -1.7603264381252450 [Eh]
	 Correlation Energy        =      -2.3011070281546511 [Eh]
	 Total Energy              =    -498.5471449726456967 [Eh]

	 ================> DF-SCS-MP2 Energies <==================
	-----------------------------------------------------------
	 SCS Same-Spin Scale       =       0.3333333333333333 [-]
	 SCS Opposite-Spin Scale   =       1.2000000000000000 [-]
	 SCS Same-Spin Energy      =      -0.1802601966764688 [Eh]
	 SCS Opposite-Spin Energy  =      -2.1123917257502938 [Eh]
	 SCS Correlation Energy    =      -2.2926519224267627 [Eh]
	 SCS Total Energy          =    -498.5386898669178208 [Eh]
	-----------------------------------------------------------

  Dipole Moment: [D]
     X:   -11.8251      Y:     1.1089      Z:    -0.0001     Total:    11.8770

*** Psi4 exiting successfully. Buy a developer a beer!
