                               Psi4 1.3.2 release

  ==> Input File <==

--------------------------------------------------------------------------
#psi4
#
memory 32 gb

molecule  {
1 1
  N       -3.3283680     0.1942120    -0.0000200
  N       -0.5495980    -0.2948890     0.0000300
  C       -2.6173460    -0.2537290    -1.2573450
  C       -2.6173490    -0.2534950     1.2573910
  C       -1.2258555     0.2743252    -1.2827293
  C       -1.1824500     0.2380150     1.2003390
  C        0.8881070    -0.1264310     0.0000120
  C        1.4779170     1.1432740    -0.0000950
  C        1.6780490    -1.2778510     0.0001130
  C        2.8695240     1.2540050    -0.0001090
  C        3.0687920    -1.1592000     0.0000980
  C        3.6642520     0.1047860    -0.0000090
  H       -3.3852960     1.2227380    -0.0001140
  H       -4.2988450    -0.1479970     0.0000100
  H       -3.1713790     0.1478040    -2.1095990
  H       -2.6546500    -1.3444640    -1.2649060
  H       -2.6546490    -1.3442280     1.2651520
  H       -3.1713850     0.1481950     2.1095680
  H       -0.6521860    -0.1397250    -2.0793070
  H       -1.1612660     1.3434560    -1.2528060
  H       -1.1612790     1.3436960     1.2525480
  H       -0.6521900    -0.1393200     2.0793360
  H        0.8654370     2.0434980    -0.0001730
  H        1.1935250    -2.2508840     0.0001950
  H        3.3333780     2.2368900    -0.0001920
  H        3.6871730    -2.0528130     0.0001780
  H        4.7470650     0.1949390    -0.0000240
units angstrom
no_reorient  #important for SAPT in psi4, default
symmetry c1  #important for SAPT in psi4, default
}

set PROPERTIES_ORIGIN ["COM"]
properties('MP2/aug-cc-pvtz', properties = ['dipole'])
--------------------------------------------------------------------------

    Molecular point group: c1
  Charge       = 1
  Multiplicity = 1
  Basis Set: AUG-CC-PVTZ
    Blend: AUG-CC-PVTZ
  Basis Set: (AUG-CC-PVTZ AUX)
    Blend: AUG-CC-PVTZ-JKFIT

    Orbital Energies [Eh]
    ---------------------

    Doubly Occupied:

       1A    -15.868862     2A    -15.703459     3A    -11.458660
       4A    -11.456178     5A    -11.417077     6A    -11.415434
       7A    -11.377124     8A    -11.342694     9A    -11.337839
      10A    -11.337135    11A    -11.335346    12A    -11.332191
      13A     -1.498329    14A     -1.372189    15A     -1.247287
      16A     -1.226079    17A     -1.155766    18A     -1.118080
      19A     -1.083738    20A     -1.050810    21A     -0.999392
      22A     -0.938895    23A     -0.928636    24A     -0.919642
      25A     -0.870237    26A     -0.828037    27A     -0.814975
      28A     -0.792325    29A     -0.779801    30A     -0.765316
      31A     -0.739751    32A     -0.736408    33A     -0.717978
      34A     -0.709253    35A     -0.693765    36A     -0.687319
      37A     -0.669595    38A     -0.648354    39A     -0.605609
      40A     -0.600732    41A     -0.597145    42A     -0.517925
      43A     -0.439010    44A     -0.435806

  @DF-RHF Final Energy:  -496.25252381083590

   => Energetics <=

    Nuclear Repulsion Energy =            704.9325293158680097
    One-Electron Energy =               -2057.2297448087060729
    Two-Electron Energy =                 856.0446916820020533
    Total Energy =                       -496.2525238108358963
  Basis Set: (AUG-CC-PVTZ AUX)
    Blend: AUG-CC-PVTZ-RI
    Molecular point group: c1

    Geometry (in Angstrom), charge = 1, multiplicity = 1:

       Center              X                  Y                   Z               Mass
    ------------   -----------------  -----------------  -----------------  -----------------
         N           -3.380673149852     0.199200480851     0.006036800372    14.003074004430
         N           -0.601903149852    -0.289900519149     0.006086800372    14.003074004430
         C           -2.669651149852    -0.248740519149    -1.251288199628    12.000000000000
         C           -2.669654149852    -0.248506519149     1.263447800372    12.000000000000
         C           -1.278160649852     0.279313680851    -1.276672499628    12.000000000000
         C           -1.234755149852     0.243003480851     1.206395800372    12.000000000000
         C            0.835801850148    -0.121442519149     0.006068800372    12.000000000000
         C            1.425611850148     1.148262480851     0.005961800372    12.000000000000
         C            1.625743850148    -1.272862519149     0.006169800372    12.000000000000
         C            2.817218850148     1.258993480851     0.005947800372    12.000000000000
         C            3.016486850148    -1.154211519149     0.006154800372    12.000000000000
         C            3.611946850148     0.109774480851     0.006047800372    12.000000000000
         H           -3.437601149852     1.227726480851     0.005942800372     1.007825032230
         H           -4.351150149852    -0.143008519149     0.006066800372     1.007825032230
         H           -3.223684149852     0.152792480851    -2.103542199628     1.007825032230
         H           -2.706955149852    -1.339475519149    -1.258849199628     1.007825032230
         H           -2.706954149852    -1.339239519149     1.271208800372     1.007825032230
         H           -3.223690149852     0.153183480851     2.115624800372     1.007825032230
         H           -0.704491149852    -0.134736519149    -2.073250199628     1.007825032230
         H           -1.213571149852     1.348444480851    -1.246749199628     1.007825032230
         H           -1.213584149852     1.348684480851     1.258604800372     1.007825032230
         H           -0.704495149852    -0.134331519149     2.085392800372     1.007825032230
         H            0.813131850148     2.048486480851     0.005883800372     1.007825032230
         H            1.141219850148    -2.245895519149     0.006251800372     1.007825032230
         H            3.281072850148     2.241878480851     0.005864800372     1.007825032230
         H            3.634867850148    -2.047824519149     0.006234800372     1.007825032230
         H            4.694759850148     0.199927480851     0.006032800372     1.007825032230

  Basis Set: AUG-CC-PVTZ
    Blend: AUG-CC-PVTZ
  Basis Set: (AUG-CC-PVTZ AUX)
    Blend: AUG-CC-PVTZ-JKFIT
	 Reference Energy          =    -496.2525238108358963 [Eh]
	 Singles Energy            =      -0.0000000000000000 [Eh]
	 Same-Spin Energy          =      -0.5394019399555854 [Eh]
	 Opposite-Spin Energy      =      -1.7591646284001476 [Eh]
	 Correlation Energy        =      -2.2985665683557333 [Eh]
	 Total Energy              =    -498.5510903791916348 [Eh]

	 ================> DF-SCS-MP2 Energies <==================
	-----------------------------------------------------------
	 SCS Same-Spin Scale       =       0.3333333333333333 [-]
	 SCS Opposite-Spin Scale   =       1.2000000000000000 [-]
	 SCS Same-Spin Energy      =      -0.1798006466518618 [Eh]
	 SCS Opposite-Spin Energy  =      -2.1109975540801771 [Eh]
	 SCS Correlation Energy    =      -2.2907982007320387 [Eh]
	 SCS Total Energy          =    -498.5433220115679092 [Eh]
	-----------------------------------------------------------

  Dipole Moment: [D]
     X:   -11.6085      Y:     1.1619      Z:    -0.1052     Total:    11.6669

*** Psi4 exiting successfully. Buy a developer a beer!
