                               Psi4 1.3.2 release

  ==> Input File <==

--------------------------------------------------------------------------
#psi4
#
memory 32 gb

molecule  {
1 1
  N       -3.3283680     0.1942120    -0.0000200
  N       -0.5495980    -0.2948890     0.0000300
  C       -2.6173460    -0.2537290    -1.2573450
  C       -2.6173490    -0.2534950     1.2573910
  C       -1.1824450     0.2377860    -1.2003860
  C       -1.1824500     0.2380150     1.2003390
  C        0.8881070    -0.1264310     0.0000120
  C        1.4779170     1.1432740    -0.0000950
  C        1.6780490    -1.2778510     0.0001130
  C        2.8695240     1.2540050    -0.0001090
  C        3.0687920    -1.1592000     0.0000980
  C        3.6642520     0.1047860    -0.0000090
  H       -3.2774739     1.2230542    -0.0001139
  H       -4.2988450    -0.1479970     0.0000100
  H       -3.1713790     0.1478040    -2.1095990
  H       -2.6546500    -1.3444640    -1.2649060
  H       -2.6546490    -1.3442280     1.2651520
  H       -3.1713850     0.1481950     2.1095680
  H       -0.6521860    -0.1397250    -2.0793070
  H       -1.1612660     1.3434560    -1.2528060
  H       -1.1612790     1.3436960     1.2525480
  H       -0.6521900    -0.1393200     2.0793360
  H        0.8654370     2.0434980    -0.0001730
  H        1.1935250    -2.2508840     0.0001950
  H        3.3333780     2.2368900    -0.0001920
  H        3.6871730    -2.0528130     0.0001780
  H        4.7470650     0.1949390    -0.0000240
units angstrom
no_reorient  #important for SAPT in psi4, default
symmetry c1  #important for SAPT in psi4, default
}

set PROPERTIES_ORIGIN ["COM"]
properties('MP2/aug-cc-pvtz', properties = ['dipole'])
--------------------------------------------------------------------------

    Molecular point group: c1
  Charge       = 1
  Multiplicity = 1
  Basis Set: AUG-CC-PVTZ
    Blend: AUG-CC-PVTZ
  Basis Set: (AUG-CC-PVTZ AUX)
    Blend: AUG-CC-PVTZ-JKFIT

    Orbital Energies [Eh]
    ---------------------

    Doubly Occupied:

       1A    -15.866508     2A    -15.705742     3A    -11.456453
       4A    -11.456442     5A    -11.418359     6A    -11.418344
       7A    -11.379636     8A    -11.344781     9A    -11.339384
      10A    -11.339216    11A    -11.336945    12A    -11.333956
      13A     -1.498284    14A     -1.390544    15A     -1.250033
      16A     -1.222255    17A     -1.153466    18A     -1.119884
      19A     -1.085665    20A     -1.053631    21A     -1.000088
      22A     -0.943112    23A     -0.929841    24A     -0.922928
      25A     -0.867661    26A     -0.824014    27A     -0.816645
      28A     -0.793450    29A     -0.788392    30A     -0.768927
      31A     -0.738318    32A     -0.735867    33A     -0.718061
      34A     -0.705429    35A     -0.689159    36A     -0.688669
      37A     -0.661110    38A     -0.660710    39A     -0.607720
      40A     -0.602461    41A     -0.602092    42A     -0.521340
      43A     -0.440613    44A     -0.438700

  @DF-RHF Final Energy:  -496.25929471332199

   => Energetics <=

    Nuclear Repulsion Energy =            706.9080248447148733
    One-Electron Energy =               -2061.0649716721995901
    Two-Electron Energy =                 857.8976521141627245
    Total Energy =                       -496.2592947133219923
  Basis Set: (AUG-CC-PVTZ AUX)
    Blend: AUG-CC-PVTZ-RI
    Molecular point group: c1

    Geometry (in Angstrom), charge = 1, multiplicity = 1:

       Center              X                  Y                   Z               Mass
    ------------   -----------------  -----------------  -----------------  -----------------
         N           -3.384532751446     0.201886492754    -0.000020693235    14.003074004430
         N           -0.605762751446    -0.287214507246     0.000029306765    14.003074004430
         C           -2.673510751446    -0.246054507246    -1.257345693235    12.000000000000
         C           -2.673513751446    -0.245820507246     1.257390306765    12.000000000000
         C           -1.238609751446     0.245460492754    -1.200386693235    12.000000000000
         C           -1.238614751446     0.245689492754     1.200338306765    12.000000000000
         C            0.831942248554    -0.118756507246     0.000011306765    12.000000000000
         C            1.421752248554     1.150948492754    -0.000095693235    12.000000000000
         C            1.621884248554    -1.270176507246     0.000112306765    12.000000000000
         C            2.813359248554     1.261679492754    -0.000109693235    12.000000000000
         C            3.012627248554    -1.151525507246     0.000097306765    12.000000000000
         C            3.608087248554     0.112460492754    -0.000009693235    12.000000000000
         H           -3.333638651446     1.230728692754    -0.000114593235     1.007825032230
         H           -4.355009751446    -0.140322507246     0.000009306765     1.007825032230
         H           -3.227543751446     0.155478492754    -2.109599693235     1.007825032230
         H           -2.710814751446    -1.336789507246    -1.264906693235     1.007825032230
         H           -2.710813751446    -1.336553507246     1.265151306765     1.007825032230
         H           -3.227549751446     0.155869492754     2.109567306765     1.007825032230
         H           -0.708350751446    -0.132050507246    -2.079307693235     1.007825032230
         H           -1.217430751446     1.351130492754    -1.252806693235     1.007825032230
         H           -1.217443751446     1.351370492754     1.252547306765     1.007825032230
         H           -0.708354751446    -0.131645507246     2.079335306765     1.007825032230
         H            0.809272248554     2.051172492754    -0.000173693235     1.007825032230
         H            1.137360248554    -2.243209507246     0.000194306765     1.007825032230
         H            3.277213248554     2.244564492754    -0.000192693235     1.007825032230
         H            3.631008248554    -2.045138507246     0.000177306765     1.007825032230
         H            4.690900248554     0.202613492754    -0.000024693235     1.007825032230

  Basis Set: AUG-CC-PVTZ
    Blend: AUG-CC-PVTZ
  Basis Set: (AUG-CC-PVTZ AUX)
    Blend: AUG-CC-PVTZ-JKFIT
	 Reference Energy          =    -496.2592947133219923 [Eh]
	 Singles Energy            =      -0.0000000000000000 [Eh]
	 Same-Spin Energy          =      -0.5396705482309776 [Eh]
	 Opposite-Spin Energy      =      -1.7587225093945968 [Eh]
	 Correlation Energy        =      -2.2983930576255744 [Eh]
	 Total Energy              =    -498.5576877709475525 [Eh]

	 ================> DF-SCS-MP2 Energies <==================
	-----------------------------------------------------------
	 SCS Same-Spin Scale       =       0.3333333333333333 [-]
	 SCS Opposite-Spin Scale   =       1.2000000000000000 [-]
	 SCS Same-Spin Energy      =      -0.1798901827436592 [Eh]
	 SCS Opposite-Spin Energy  =      -2.1104670112735162 [Eh]
	 SCS Correlation Energy    =      -2.2903571940171754 [Eh]
	 SCS Total Energy          =    -498.5496519073391823 [Eh]
	-----------------------------------------------------------

  Dipole Moment: [D]
     X:   -11.3480      Y:     1.0609      Z:    -0.0001     Total:    11.3975

*** Psi4 exiting successfully. Buy a developer a beer!
