                               Psi4 1.3.2 release

  ==> Input File <==

--------------------------------------------------------------------------
#psi4
#
memory 32 gb

molecule  {
1 1
  N       -3.3283680     0.1942120    -0.0000200
  N       -0.5495980    -0.2948890     0.0000300
  C       -2.6173460    -0.2537290    -1.2573450
  C       -2.6173490    -0.2534950     1.2573910
  C       -1.2275864     0.2231947    -1.1819842
  C       -1.1824500     0.2380150     1.2003390
  C        0.8881070    -0.1264310     0.0000120
  C        1.4779170     1.1432740    -0.0000950
  C        1.6780490    -1.2778510     0.0001130
  C        2.8695240     1.2540050    -0.0001090
  C        3.0687920    -1.1592000     0.0000980
  C        3.6642520     0.1047860    -0.0000090
  H       -3.3852960     1.2227380    -0.0001140
  H       -4.2988450    -0.1479970     0.0000100
  H       -3.1713790     0.1478040    -2.1095990
  H       -2.6546500    -1.3444640    -1.2649060
  H       -2.6546490    -1.3442280     1.2651520
  H       -3.1713850     0.1481950     2.1095680
  H       -0.6521860    -0.1397250    -2.0793070
  H       -1.1612660     1.3434560    -1.2528060
  H       -1.1612790     1.3436960     1.2525480
  H       -0.6521900    -0.1393200     2.0793360
  H        0.8654370     2.0434980    -0.0001730
  H        1.1935250    -2.2508840     0.0001950
  H        3.3333780     2.2368900    -0.0001920
  H        3.6871730    -2.0528130     0.0001780
  H        4.7470650     0.1949390    -0.0000240
units angstrom
no_reorient  #important for SAPT in psi4, default
symmetry c1  #important for SAPT in psi4, default
}

set PROPERTIES_ORIGIN ["COM"]
properties('MP2/aug-cc-pvtz', properties = ['dipole'])
--------------------------------------------------------------------------

    Molecular point group: c1
  Charge       = 1
  Multiplicity = 1
  Basis Set: AUG-CC-PVTZ
    Blend: AUG-CC-PVTZ
  Basis Set: (AUG-CC-PVTZ AUX)
    Blend: AUG-CC-PVTZ-JKFIT

    Orbital Energies [Eh]
    ---------------------

    Doubly Occupied:

       1A    -15.866511     2A    -15.704764     3A    -11.456912
       4A    -11.456891     5A    -11.418059     6A    -11.416451
       7A    -11.379818     8A    -11.344531     9A    -11.339165
      10A    -11.338991    11A    -11.336667    12A    -11.333835
      13A     -1.499314    14A     -1.389667    15A     -1.250391
      16A     -1.226594    17A     -1.157794    18A     -1.119590
      19A     -1.088085    20A     -1.050172    21A     -0.996934
      22A     -0.938729    23A     -0.926758    24A     -0.924305
      25A     -0.869752    26A     -0.824982    27A     -0.818706
      28A     -0.791773    29A     -0.788799    30A     -0.768391
      31A     -0.741624    32A     -0.738644    33A     -0.718299
      34A     -0.704739    35A     -0.688796    36A     -0.686488
      37A     -0.664109    38A     -0.650531    39A     -0.607244
      40A     -0.603409    41A     -0.601453    42A     -0.519063
      43A     -0.440294    44A     -0.438635

  @DF-RHF Final Energy:  -496.25741968802163

   => Energetics <=

    Nuclear Repulsion Energy =            707.0426406272301847
    One-Electron Energy =               -2061.3467982268603009
    Two-Electron Energy =                 858.0467379116084885
    Total Energy =                       -496.2574196880216277
  Basis Set: (AUG-CC-PVTZ AUX)
    Blend: AUG-CC-PVTZ-RI
    Molecular point group: c1

    Geometry (in Angstrom), charge = 1, multiplicity = 1:

       Center              X                  Y                   Z               Mass
    ------------   -----------------  -----------------  -----------------  -----------------
         N           -3.380545818124     0.202961839034    -0.001374400502    14.003074004430
         N           -0.601775818124    -0.286139160966    -0.001324400502    14.003074004430
         C           -2.669523818124    -0.244979160966    -1.258699400502    12.000000000000
         C           -2.669526818124    -0.244745160966     1.256036599498    12.000000000000
         C           -1.279764218124     0.231944539034    -1.183338600502    12.000000000000
         C           -1.234627818124     0.246764839034     1.198984599498    12.000000000000
         C            0.835929181876    -0.117681160966    -0.001342400502    12.000000000000
         C            1.425739181876     1.152023839034    -0.001449400502    12.000000000000
         C            1.625871181876    -1.269101160966    -0.001241400502    12.000000000000
         C            2.817346181876     1.262754839034    -0.001463400502    12.000000000000
         C            3.016614181876    -1.150450160966    -0.001256400502    12.000000000000
         C            3.612074181876     0.113535839034    -0.001363400502    12.000000000000
         H           -3.437473818124     1.231487839034    -0.001468400502     1.007825032230
         H           -4.351022818124    -0.139247160966    -0.001344400502     1.007825032230
         H           -3.223556818124     0.156553839034    -2.110953400502     1.007825032230
         H           -2.706827818124    -1.335714160966    -1.266260400502     1.007825032230
         H           -2.706826818124    -1.335478160966     1.263797599498     1.007825032230
         H           -3.223562818124     0.156944839034     2.108213599498     1.007825032230
         H           -0.704363818124    -0.130975160966    -2.080661400502     1.007825032230
         H           -1.213443818124     1.352205839034    -1.254160400502     1.007825032230
         H           -1.213456818124     1.352445839034     1.251193599498     1.007825032230
         H           -0.704367818124    -0.130570160966     2.077981599498     1.007825032230
         H            0.813259181876     2.052247839034    -0.001527400502     1.007825032230
         H            1.141347181876    -2.242134160966    -0.001159400502     1.007825032230
         H            3.281200181876     2.245639839034    -0.001546400502     1.007825032230
         H            3.634995181876    -2.044063160966    -0.001176400502     1.007825032230
         H            4.694887181876     0.203688839034    -0.001378400502     1.007825032230

  Basis Set: AUG-CC-PVTZ
    Blend: AUG-CC-PVTZ
  Basis Set: (AUG-CC-PVTZ AUX)
    Blend: AUG-CC-PVTZ-JKFIT
	 Reference Energy          =    -496.2574196880216277 [Eh]
	 Singles Energy            =      -0.0000000000000000 [Eh]
	 Same-Spin Energy          =      -0.5399658046310178 [Eh]
	 Opposite-Spin Energy      =      -1.7588620105237245 [Eh]
	 Correlation Energy        =      -2.2988278151547421 [Eh]
	 Total Energy              =    -498.5562475031763938 [Eh]

	 ================> DF-SCS-MP2 Energies <==================
	-----------------------------------------------------------
	 SCS Same-Spin Scale       =       0.3333333333333333 [-]
	 SCS Opposite-Spin Scale   =       1.2000000000000000 [-]
	 SCS Same-Spin Energy      =      -0.1799886015436726 [Eh]
	 SCS Opposite-Spin Energy  =      -2.1106344126284693 [Eh]
	 SCS Correlation Energy    =      -2.2906230141721418 [Eh]
	 SCS Total Energy          =    -498.5480427021937544 [Eh]
	-----------------------------------------------------------

  Dipole Moment: [D]
     X:   -11.4666      Y:     1.0648      Z:    -0.0215     Total:    11.5159

*** Psi4 exiting successfully. Buy a developer a beer!
