                               Psi4 1.3.2 release

  ==> Input File <==

--------------------------------------------------------------------------
#psi4
#
memory 32 gb

molecule  {
1 1
  N       -3.3283680     0.1942120    -0.0000200
  N       -0.5495980    -0.2948890     0.0000300
  C       -2.6173460    -0.2537290    -1.2573450
  C       -2.6173490    -0.2534950     1.2573910
  C       -1.1824450     0.2377860    -1.2003860
  C       -1.1824500     0.2380150     1.2003390
  C        0.8881070    -0.1264310     0.0000120
  C        1.4779170     1.1432740    -0.0000950
  C        1.6780490    -1.2778510     0.0001130
  C        2.8695240     1.2540050    -0.0001090
  C        3.0687920    -1.1592000     0.0000980
  C        3.6642520     0.1047860    -0.0000090
  H       -3.3673371     1.2235749    -0.0001141
  H       -4.2988450    -0.1479970     0.0000100
  H       -3.1713790     0.1478040    -2.1095990
  H       -2.6546500    -1.3444640    -1.2649060
  H       -2.6546490    -1.3442280     1.2651520
  H       -3.1713850     0.1481950     2.1095680
  H       -0.6521860    -0.1397250    -2.0793070
  H       -1.1612660     1.3434560    -1.2528060
  H       -1.1612790     1.3436960     1.2525480
  H       -0.6521900    -0.1393200     2.0793360
  H        0.8654370     2.0434980    -0.0001730
  H        1.1935250    -2.2508840     0.0001950
  H        3.3333780     2.2368900    -0.0001920
  H        3.6871730    -2.0528130     0.0001780
  H        4.7470650     0.1949390    -0.0000240
units angstrom
no_reorient  #important for SAPT in psi4, default
symmetry c1  #important for SAPT in psi4, default
}

set PROPERTIES_ORIGIN ["COM"]
properties('MP2/aug-cc-pvtz', properties = ['dipole'])
--------------------------------------------------------------------------

    Molecular point group: c1
  Charge       = 1
  Multiplicity = 1
  Basis Set: AUG-CC-PVTZ
    Blend: AUG-CC-PVTZ
  Basis Set: (AUG-CC-PVTZ AUX)
    Blend: AUG-CC-PVTZ-JKFIT

    Orbital Energies [Eh]
    ---------------------

    Doubly Occupied:

       1A    -15.866700     2A    -15.705080     3A    -11.456751
       4A    -11.456741     5A    -11.417546     6A    -11.417531
       7A    -11.379222     8A    -11.344361     9A    -11.339025
      10A    -11.338849    11A    -11.336603    12A    -11.333613
      13A     -1.497695    14A     -1.390151    15A     -1.249737
      16A     -1.221739    17A     -1.154441    18A     -1.119518
      19A     -1.086429    20A     -1.053223    21A     -0.997598
      22A     -0.939399    23A     -0.927723    24A     -0.923303
      25A     -0.869372    26A     -0.823574    27A     -0.817876
      28A     -0.792956    29A     -0.788073    30A     -0.768972
      31A     -0.738349    32A     -0.735497    33A     -0.717465
      34A     -0.705703    35A     -0.688795    36A     -0.688212
      37A     -0.660499    38A     -0.660266    39A     -0.607326
      40A     -0.602070    41A     -0.601706    42A     -0.520657
      43A     -0.440245    44A     -0.438320

  @DF-RHF Final Energy:  -496.26080395742042

   => Energetics <=

    Nuclear Repulsion Energy =            706.6942460433173210
    One-Electron Energy =               -2060.6722700328032261
    Two-Electron Energy =                 857.7172200320653701
    Total Energy =                       -496.2608039574204213
  Basis Set: (AUG-CC-PVTZ AUX)
    Blend: AUG-CC-PVTZ-RI
    Molecular point group: c1

    Geometry (in Angstrom), charge = 1, multiplicity = 1:

       Center              X                  Y                   Z               Mass
    ------------   -----------------  -----------------  -----------------  -----------------
         N           -3.383977550207     0.201883275716    -0.000020692000    14.003074004430
         N           -0.605207550207    -0.287217724284     0.000029308000    14.003074004430
         C           -2.672955550207    -0.246057724284    -1.257345692000    12.000000000000
         C           -2.672958550207    -0.245823724284     1.257390308000    12.000000000000
         C           -1.238054550207     0.245457275716    -1.200386692000    12.000000000000
         C           -1.238059550207     0.245686275716     1.200338308000    12.000000000000
         C            0.832497449793    -0.118759724284     0.000011308000    12.000000000000
         C            1.422307449793     1.150945275716    -0.000095692000    12.000000000000
         C            1.622439449793    -1.270179724284     0.000112308000    12.000000000000
         C            2.813914449793     1.261676275716    -0.000109692000    12.000000000000
         C            3.013182449793    -1.151528724284     0.000097308000    12.000000000000
         C            3.608642449793     0.112457275716    -0.000009692000    12.000000000000
         H           -3.422946650207     1.231246175716    -0.000114792000     1.007825032230
         H           -4.354454550207    -0.140325724284     0.000009308000     1.007825032230
         H           -3.226988550207     0.155475275716    -2.109599692000     1.007825032230
         H           -2.710259550207    -1.336792724284    -1.264906692000     1.007825032230
         H           -2.710258550207    -1.336556724284     1.265151308000     1.007825032230
         H           -3.226994550207     0.155866275716     2.109567308000     1.007825032230
         H           -0.707795550207    -0.132053724284    -2.079307692000     1.007825032230
         H           -1.216875550207     1.351127275716    -1.252806692000     1.007825032230
         H           -1.216888550207     1.351367275716     1.252547308000     1.007825032230
         H           -0.707799550207    -0.131648724284     2.079335308000     1.007825032230
         H            0.809827449793     2.051169275716    -0.000173692000     1.007825032230
         H            1.137915449793    -2.243212724284     0.000194308000     1.007825032230
         H            3.277768449793     2.244561275716    -0.000192692000     1.007825032230
         H            3.631563449793    -2.045141724284     0.000177308000     1.007825032230
         H            4.691455449793     0.202610275716    -0.000024692000     1.007825032230

  Basis Set: AUG-CC-PVTZ
    Blend: AUG-CC-PVTZ
  Basis Set: (AUG-CC-PVTZ AUX)
    Blend: AUG-CC-PVTZ-JKFIT
	 Reference Energy          =    -496.2608039574204213 [Eh]
	 Singles Energy            =      -0.0000000000000000 [Eh]
	 Same-Spin Energy          =      -0.5394750774952620 [Eh]
	 Opposite-Spin Energy      =      -1.7584482885257566 [Eh]
	 Correlation Energy        =      -2.2979233660210188 [Eh]
	 Total Energy              =    -498.5587273234414170 [Eh]

	 ================> DF-SCS-MP2 Energies <==================
	-----------------------------------------------------------
	 SCS Same-Spin Scale       =       0.3333333333333333 [-]
	 SCS Opposite-Spin Scale   =       1.2000000000000000 [-]
	 SCS Same-Spin Energy      =      -0.1798250258317540 [Eh]
	 SCS Opposite-Spin Energy  =      -2.1101379462309078 [Eh]
	 SCS Correlation Energy    =      -2.2899629720626620 [Eh]
	 SCS Total Energy          =    -498.5507669294830748 [Eh]
	-----------------------------------------------------------

  Dipole Moment: [D]
     X:   -11.4602      Y:     1.0861      Z:    -0.0001     Total:    11.5115

*** Psi4 exiting successfully. Buy a developer a beer!
