                               Psi4 1.3.2 release

  ==> Input File <==

--------------------------------------------------------------------------
#psi4
#
memory 32 gb

molecule  {
1 1
  N       -3.3283680     0.1942120    -0.0000200
  N       -0.5495980    -0.2948890     0.0000300
  C       -2.6360224    -0.2419673    -1.2718198
  C       -2.6173490    -0.2534950     1.2573910
  C       -1.1824450     0.2377860    -1.2003860
  C       -1.1824500     0.2380150     1.2003390
  C        0.8881070    -0.1264310     0.0000120
  C        1.4779170     1.1432740    -0.0000950
  C        1.6780490    -1.2778510     0.0001130
  C        2.8695240     1.2540050    -0.0001090
  C        3.0687920    -1.1592000     0.0000980
  C        3.6642520     0.1047860    -0.0000090
  H       -3.3852960     1.2227380    -0.0001140
  H       -4.2988450    -0.1479970     0.0000100
  H       -3.1713790     0.1478040    -2.1095990
  H       -2.6546500    -1.3444640    -1.2649060
  H       -2.6546490    -1.3442280     1.2651520
  H       -3.1713850     0.1481950     2.1095680
  H       -0.6521860    -0.1397250    -2.0793070
  H       -1.1612660     1.3434560    -1.2528060
  H       -1.1612790     1.3436960     1.2525480
  H       -0.6521900    -0.1393200     2.0793360
  H        0.8654370     2.0434980    -0.0001730
  H        1.1935250    -2.2508840     0.0001950
  H        3.3333780     2.2368900    -0.0001920
  H        3.6871730    -2.0528130     0.0001780
  H        4.7470650     0.1949390    -0.0000240
units angstrom
no_reorient  #important for SAPT in psi4, default
symmetry c1  #important for SAPT in psi4, default
}

set PROPERTIES_ORIGIN ["COM"]
properties('MP2/aug-cc-pvtz', properties = ['dipole'])
--------------------------------------------------------------------------

    Molecular point group: c1
  Charge       = 1
  Multiplicity = 1
  Basis Set: AUG-CC-PVTZ
    Blend: AUG-CC-PVTZ
  Basis Set: (AUG-CC-PVTZ AUX)
    Blend: AUG-CC-PVTZ-JKFIT

    Orbital Energies [Eh]
    ---------------------

    Doubly Occupied:

       1A    -15.866726     2A    -15.705256     3A    -11.457156
       4A    -11.456269     5A    -11.418033     6A    -11.417328
       7A    -11.379261     8A    -11.344310     9A    -11.338935
      10A    -11.338827    11A    -11.336534    12A    -11.333591
      13A     -1.497262    14A     -1.389708    15A     -1.249525
      16A     -1.221039    17A     -1.153693    18A     -1.119449
      19A     -1.086560    20A     -1.053956    21A     -0.996222
      22A     -0.938672    23A     -0.926791    24A     -0.923773
      25A     -0.871562    26A     -0.821976    27A     -0.817135
      28A     -0.794351    29A     -0.788784    30A     -0.768601
      31A     -0.739215    32A     -0.736312    33A     -0.716743
      34A     -0.704653    35A     -0.688682    36A     -0.686573
      37A     -0.661236    38A     -0.659442    39A     -0.607302
      40A     -0.602045    41A     -0.601707    42A     -0.520226
      43A     -0.440160    44A     -0.438317

  @DF-RHF Final Energy:  -496.26021151604698

   => Energetics <=

    Nuclear Repulsion Energy =            706.2660971350602495
    One-Electron Energy =               -2059.8248316995523055
    Two-Electron Energy =                 857.2985230484451904
    Total Energy =                       -496.2602115160469793
  Basis Set: (AUG-CC-PVTZ AUX)
    Blend: AUG-CC-PVTZ-RI
    Molecular point group: c1

    Geometry (in Angstrom), charge = 1, multiplicity = 1:

       Center              X                  Y                   Z               Mass
    ------------   -----------------  -----------------  -----------------  -----------------
         N           -3.382492686321     0.201023209993     0.001044129894    14.003074004430
         N           -0.603722686321    -0.288077790007     0.001094129894    14.003074004430
         C           -2.690147086321    -0.235156090007    -1.270755670106    12.000000000000
         C           -2.671473686321    -0.246683790007     1.258455129894    12.000000000000
         C           -1.236569686321     0.244597209993    -1.199321870106    12.000000000000
         C           -1.236574686321     0.244826209993     1.201403129894    12.000000000000
         C            0.833982313679    -0.119619790007     0.001076129894    12.000000000000
         C            1.423792313679     1.150085209993     0.000969129894    12.000000000000
         C            1.623924313679    -1.271039790007     0.001177129894    12.000000000000
         C            2.815399313679     1.260816209993     0.000955129894    12.000000000000
         C            3.014667313679    -1.152388790007     0.001162129894    12.000000000000
         C            3.610127313679     0.111597209993     0.001055129894    12.000000000000
         H           -3.439420686321     1.229549209993     0.000950129894     1.007825032230
         H           -4.352969686321    -0.141185790007     0.001074129894     1.007825032230
         H           -3.225503686321     0.154615209993    -2.108534870106     1.007825032230
         H           -2.708774686321    -1.337652790007    -1.263841870106     1.007825032230
         H           -2.708773686321    -1.337416790007     1.266216129894     1.007825032230
         H           -3.225509686321     0.155006209993     2.110632129894     1.007825032230
         H           -0.706310686321    -0.132913790007    -2.078242870106     1.007825032230
         H           -1.215390686321     1.350267209993    -1.251741870106     1.007825032230
         H           -1.215403686321     1.350507209993     1.253612129894     1.007825032230
         H           -0.706314686321    -0.132508790007     2.080400129894     1.007825032230
         H            0.811312313679     2.050309209993     0.000891129894     1.007825032230
         H            1.139400313679    -2.244072790007     0.001259129894     1.007825032230
         H            3.279253313679     2.243701209993     0.000872129894     1.007825032230
         H            3.633048313679    -2.046001790007     0.001242129894     1.007825032230
         H            4.692940313679     0.201750209993     0.001040129894     1.007825032230

  Basis Set: AUG-CC-PVTZ
    Blend: AUG-CC-PVTZ
  Basis Set: (AUG-CC-PVTZ AUX)
    Blend: AUG-CC-PVTZ-JKFIT
	 Reference Energy          =    -496.2602115160469793 [Eh]
	 Singles Energy            =      -0.0000000000000000 [Eh]
	 Same-Spin Energy          =      -0.5393440412376423 [Eh]
	 Opposite-Spin Energy      =      -1.7583458243027739 [Eh]
	 Correlation Energy        =      -2.2976898655404163 [Eh]
	 Total Energy              =    -498.5579013815873850 [Eh]

	 ================> DF-SCS-MP2 Energies <==================
	-----------------------------------------------------------
	 SCS Same-Spin Scale       =       0.3333333333333333 [-]
	 SCS Opposite-Spin Scale   =       1.2000000000000000 [-]
	 SCS Same-Spin Energy      =      -0.1797813470792141 [Eh]
	 SCS Opposite-Spin Energy  =      -2.1100149891633286 [Eh]
	 SCS Correlation Energy    =      -2.2897963362425426 [Eh]
	 SCS Total Energy          =    -498.5500078522895251 [Eh]
	-----------------------------------------------------------

  Dipole Moment: [D]
     X:   -11.4812      Y:     1.0955      Z:     0.0032     Total:    11.5334

*** Psi4 exiting successfully. Buy a developer a beer!
