                               Psi4 1.3.2 release

  ==> Input File <==

--------------------------------------------------------------------------
#psi4
#
memory 32 gb

molecule  {
1 1
  N       -3.3283680     0.1942120    -0.0000200
  N       -0.5495980    -0.2948890     0.0000300
  C       -2.6173460    -0.2537290    -1.2573450
  C       -2.6173490    -0.2534950     1.2573910
  C       -1.1824450     0.2377860    -1.2003860
  C       -1.1824500     0.2380150     1.2003390
  C        0.8881070    -0.1264310     0.0000120
  C        1.4779170     1.1432740    -0.0000950
  C        1.6780490    -1.2778510     0.0001130
  C        2.8695240     1.2540050    -0.0001090
  C        3.0687920    -1.1592000     0.0000980
  C        3.6642520     0.1047860    -0.0000090
  H       -3.3134110     1.2242037    -0.0001140
  H       -4.2988450    -0.1479970     0.0000100
  H       -3.1713790     0.1478040    -2.1095990
  H       -2.6546500    -1.3444640    -1.2649060
  H       -2.6546490    -1.3442280     1.2651520
  H       -3.1713850     0.1481950     2.1095680
  H       -0.6521860    -0.1397250    -2.0793070
  H       -1.1612660     1.3434560    -1.2528060
  H       -1.1612790     1.3436960     1.2525480
  H       -0.6521900    -0.1393200     2.0793360
  H        0.8654370     2.0434980    -0.0001730
  H        1.1935250    -2.2508840     0.0001950
  H        3.3333780     2.2368900    -0.0001920
  H        3.6871730    -2.0528130     0.0001780
  H        4.7470650     0.1949390    -0.0000240
units angstrom
no_reorient  #important for SAPT in psi4, default
symmetry c1  #important for SAPT in psi4, default
}

set PROPERTIES_ORIGIN ["COM"]
properties('MP2/aug-cc-pvtz', properties = ['dipole'])
--------------------------------------------------------------------------

    Molecular point group: c1
  Charge       = 1
  Multiplicity = 1
  Basis Set: AUG-CC-PVTZ
    Blend: AUG-CC-PVTZ
  Basis Set: (AUG-CC-PVTZ AUX)
    Blend: AUG-CC-PVTZ-JKFIT

    Orbital Energies [Eh]
    ---------------------

    Doubly Occupied:

       1A    -15.866615     2A    -15.705469     3A    -11.456567
       4A    -11.456556     5A    -11.418025     6A    -11.418010
       7A    -11.379466     8A    -11.344609     9A    -11.339237
      10A    -11.339066    11A    -11.336805    12A    -11.333816
      13A     -1.498022    14A     -1.390377    15A     -1.249909
      16A     -1.222040    17A     -1.153835    18A     -1.119734
      19A     -1.085965    20A     -1.053464    21A     -0.999041
      22A     -0.941539    23A     -0.929117    24A     -0.923066
      25A     -0.868390    26A     -0.823836    27A     -0.817145
      28A     -0.793256    29A     -0.788262    30A     -0.768939
      31A     -0.738361    32A     -0.735709    33A     -0.717820
      34A     -0.705568    35A     -0.689012    36A     -0.688481
      37A     -0.660858    38A     -0.660526    39A     -0.607558
      40A     -0.602300    41A     -0.601934    42A     -0.521058
      43A     -0.440462    44A     -0.438544

  @DF-RHF Final Energy:  -496.26012804765855

   => Energetics <=

    Nuclear Repulsion Energy =            706.8203288683536130
    One-Electron Energy =               -2060.9041760001296097
    Two-Electron Energy =                 857.8237190841175561
    Total Energy =                       -496.2601280476585544
  Basis Set: (AUG-CC-PVTZ AUX)
    Blend: AUG-CC-PVTZ-RI
    Molecular point group: c1

    Geometry (in Angstrom), charge = 1, multiplicity = 1:

       Center              X                  Y                   Z               Mass
    ------------   -----------------  -----------------  -----------------  -----------------
         N           -3.384310721489     0.201879390805    -0.000020692617    14.003074004430
         N           -0.605540721489    -0.287221609195     0.000029307383    14.003074004430
         C           -2.673288721489    -0.246061609195    -1.257345692617    12.000000000000
         C           -2.673291721489    -0.245827609195     1.257390307383    12.000000000000
         C           -1.238387721489     0.245453390805    -1.200386692617    12.000000000000
         C           -1.238392721489     0.245682390805     1.200338307383    12.000000000000
         C            0.832164278511    -0.118763609195     0.000011307383    12.000000000000
         C            1.421974278511     1.150941390805    -0.000095692617    12.000000000000
         C            1.622106278511    -1.270183609195     0.000112307383    12.000000000000
         C            2.813581278511     1.261672390805    -0.000109692617    12.000000000000
         C            3.012849278511    -1.151532609195     0.000097307383    12.000000000000
         C            3.608309278511     0.112453390805    -0.000009692617    12.000000000000
         H           -3.369353721489     1.231871090805    -0.000114692617     1.007825032230
         H           -4.354787721489    -0.140329609195     0.000009307383     1.007825032230
         H           -3.227321721489     0.155471390805    -2.109599692617     1.007825032230
         H           -2.710592721489    -1.336796609195    -1.264906692617     1.007825032230
         H           -2.710591721489    -1.336560609195     1.265151307383     1.007825032230
         H           -3.227327721489     0.155862390805     2.109567307383     1.007825032230
         H           -0.708128721489    -0.132057609195    -2.079307692617     1.007825032230
         H           -1.217208721489     1.351123390805    -1.252806692617     1.007825032230
         H           -1.217221721489     1.351363390805     1.252547307383     1.007825032230
         H           -0.708132721489    -0.131652609195     2.079335307383     1.007825032230
         H            0.809494278511     2.051165390805    -0.000173692617     1.007825032230
         H            1.137582278511    -2.243216609195     0.000194307383     1.007825032230
         H            3.277435278511     2.244557390805    -0.000192692617     1.007825032230
         H            3.631230278511    -2.045145609195     0.000177307383     1.007825032230
         H            4.691122278511     0.202606390805    -0.000024692617     1.007825032230

  Basis Set: AUG-CC-PVTZ
    Blend: AUG-CC-PVTZ
  Basis Set: (AUG-CC-PVTZ AUX)
    Blend: AUG-CC-PVTZ-JKFIT
	 Reference Energy          =    -496.2601280476585544 [Eh]
	 Singles Energy            =      -0.0000000000000000 [Eh]
	 Same-Spin Energy          =      -0.5395807538622741 [Eh]
	 Opposite-Spin Energy      =      -1.7585959740995514 [Eh]
	 Correlation Energy        =      -2.2981767279618257 [Eh]
	 Total Energy              =    -498.5583047756203996 [Eh]

	 ================> DF-SCS-MP2 Energies <==================
	-----------------------------------------------------------
	 SCS Same-Spin Scale       =       0.3333333333333333 [-]
	 SCS Opposite-Spin Scale   =       1.2000000000000000 [-]
	 SCS Same-Spin Energy      =      -0.1798602512874247 [Eh]
	 SCS Opposite-Spin Energy  =      -2.1103151689194615 [Eh]
	 SCS Correlation Energy    =      -2.2901754202068862 [Eh]
	 SCS Total Energy          =    -498.5503034678654330 [Eh]
	-----------------------------------------------------------

  Dipole Moment: [D]
     X:   -11.3931      Y:     1.0721      Z:    -0.0001     Total:    11.4434

*** Psi4 exiting successfully. Buy a developer a beer!
