                               Psi4 1.3.2 release

  ==> Input File <==

--------------------------------------------------------------------------
#psi4
#
memory 32 gb

molecule  {
1 1
  N       -3.3283680     0.1942120    -0.0000200
  N       -0.5495980    -0.2948890     0.0000300
  C       -2.6173460    -0.2537290    -1.2573450
  C       -2.6173490    -0.2534950     1.2573910
  C       -1.1824450     0.2377860    -1.2003860
  C       -1.1824500     0.2380150     1.2003390
  C        0.8881070    -0.1264310     0.0000120
  C        1.4779170     1.1432740    -0.0000950
  C        1.6780490    -1.2778510     0.0001130
  C        2.8695240     1.2540050    -0.0001090
  C        3.0687920    -1.1592000     0.0000980
  C        3.6642520     0.1047860    -0.0000090
  H       -3.4032376     1.2215878    -0.0001139
  H       -4.2988450    -0.1479970     0.0000100
  H       -3.1713790     0.1478040    -2.1095990
  H       -2.6546500    -1.3444640    -1.2649060
  H       -2.6546490    -1.3442280     1.2651520
  H       -3.1713850     0.1481950     2.1095680
  H       -0.6521860    -0.1397250    -2.0793070
  H       -1.1612660     1.3434560    -1.2528060
  H       -1.1612790     1.3436960     1.2525480
  H       -0.6521900    -0.1393200     2.0793360
  H        0.8654370     2.0434980    -0.0001730
  H        1.1935250    -2.2508840     0.0001950
  H        3.3333780     2.2368900    -0.0001920
  H        3.6871730    -2.0528130     0.0001780
  H        4.7470650     0.1949390    -0.0000240
units angstrom
no_reorient  #important for SAPT in psi4, default
symmetry c1  #important for SAPT in psi4, default
}

set PROPERTIES_ORIGIN ["COM"]
properties('MP2/aug-cc-pvtz', properties = ['dipole'])
--------------------------------------------------------------------------

    Molecular point group: c1
  Charge       = 1
  Multiplicity = 1
  Basis Set: AUG-CC-PVTZ
    Blend: AUG-CC-PVTZ
  Basis Set: (AUG-CC-PVTZ AUX)
    Blend: AUG-CC-PVTZ-JKFIT

    Orbital Energies [Eh]
    ---------------------

    Doubly Occupied:

       1A    -15.866709     2A    -15.704835     3A    -11.456883
       4A    -11.456872     5A    -11.417242     6A    -11.417227
       7A    -11.379067     8A    -11.344202     9A    -11.338888
      10A    -11.338711    11A    -11.336474    12A    -11.333484
      13A     -1.497523    14A     -1.390015    15A     -1.249631
      16A     -1.221551    17A     -1.154880    18A     -1.119379
      19A     -1.086747    20A     -1.053070    21A     -0.996721
      22A     -0.938182    23A     -0.926561    24A     -0.923467
      25A     -0.869932    26A     -0.823404    27A     -0.818349
      28A     -0.792749    29A     -0.787953    30A     -0.769003
      31A     -0.738290    32A     -0.735370    33A     -0.717233
      34A     -0.705747    35A     -0.688653    36A     -0.688042
      37A     -0.660272    38A     -0.660103    39A     -0.607178
      40A     -0.601923    41A     -0.601561    42A     -0.520403
      43A     -0.440106    44A     -0.438177

  @DF-RHF Final Energy:  -496.26087206797894

   => Energetics <=

    Nuclear Repulsion Energy =            706.6138242641161469
    One-Electron Energy =               -2060.5238536483248026
    Two-Electron Energy =                 857.6491573162297755
    Total Energy =                       -496.2608720679788803
  Basis Set: (AUG-CC-PVTZ AUX)
    Blend: AUG-CC-PVTZ-RI
    Molecular point group: c1

    Geometry (in Angstrom), charge = 1, multiplicity = 1:

       Center              X                  Y                   Z               Mass
    ------------   -----------------  -----------------  -----------------  -----------------
         N           -3.383755746375     0.201895552603    -0.000020693235    14.003074004430
         N           -0.604985746375    -0.287205447397     0.000029306765    14.003074004430
         C           -2.672733746375    -0.246045447397    -1.257345693235    12.000000000000
         C           -2.672736746375    -0.245811447397     1.257390306765    12.000000000000
         C           -1.237832746375     0.245469552603    -1.200386693235    12.000000000000
         C           -1.237837746375     0.245698552603     1.200338306765    12.000000000000
         C            0.832719253625    -0.118747447397     0.000011306765    12.000000000000
         C            1.422529253625     1.150957552603    -0.000095693235    12.000000000000
         C            1.622661253625    -1.270167447397     0.000112306765    12.000000000000
         C            2.814136253625     1.261688552603    -0.000109693235    12.000000000000
         C            3.013404253625    -1.151516447397     0.000097306765    12.000000000000
         C            3.608864253625     0.112469552603    -0.000009693235    12.000000000000
         H           -3.458625346375     1.229271352603    -0.000114593235     1.007825032230
         H           -4.354232746375    -0.140313447397     0.000009306765     1.007825032230
         H           -3.226766746375     0.155487552603    -2.109599693235     1.007825032230
         H           -2.710037746375    -1.336780447397    -1.264906693235     1.007825032230
         H           -2.710036746375    -1.336544447397     1.265151306765     1.007825032230
         H           -3.226772746375     0.155878552603     2.109567306765     1.007825032230
         H           -0.707573746375    -0.132041447397    -2.079307693235     1.007825032230
         H           -1.216653746375     1.351139552603    -1.252806693235     1.007825032230
         H           -1.216666746375     1.351379552603     1.252547306765     1.007825032230
         H           -0.707577746375    -0.131636447397     2.079335306765     1.007825032230
         H            0.810049253625     2.051181552603    -0.000173693235     1.007825032230
         H            1.138137253625    -2.243200447397     0.000194306765     1.007825032230
         H            3.277990253625     2.244573552603    -0.000192693235     1.007825032230
         H            3.631785253625    -2.045129447397     0.000177306765     1.007825032230
         H            4.691677253625     0.202622552603    -0.000024693235     1.007825032230

  Basis Set: AUG-CC-PVTZ
    Blend: AUG-CC-PVTZ
  Basis Set: (AUG-CC-PVTZ AUX)
    Blend: AUG-CC-PVTZ-JKFIT
	 Reference Energy          =    -496.2608720679789371 [Eh]
	 Singles Energy            =      -0.0000000000000000 [Eh]
	 Same-Spin Energy          =      -0.5394236906295318 [Eh]
	 Opposite-Spin Energy      =      -1.7583782414191014 [Eh]
	 Correlation Energy        =      -2.2978019320486331 [Eh]
	 Total Energy              =    -498.5586740000275654 [Eh]

	 ================> DF-SCS-MP2 Energies <==================
	-----------------------------------------------------------
	 SCS Same-Spin Scale       =       0.3333333333333333 [-]
	 SCS Opposite-Spin Scale   =       1.2000000000000000 [-]
	 SCS Same-Spin Energy      =      -0.1798078968765106 [Eh]
	 SCS Opposite-Spin Energy  =      -2.1100538897029217 [Eh]
	 SCS Correlation Energy    =      -2.2898617865794324 [Eh]
	 SCS Total Energy          =    -498.5507338545583593 [Eh]
	-----------------------------------------------------------

  Dipole Moment: [D]
     X:   -11.5046      Y:     1.0935      Z:    -0.0001     Total:    11.5564

*** Psi4 exiting successfully. Buy a developer a beer!
