                               Psi4 1.3.2 release

  ==> Input File <==

--------------------------------------------------------------------------
#psi4
#
memory 32 gb

molecule  {
1 1
  N       -3.3283680     0.1942120    -0.0000200
  N       -0.5495980    -0.2948890     0.0000300
  C       -2.6201292    -0.2788372    -1.2496967
  C       -2.6173490    -0.2534950     1.2573910
  C       -1.1824450     0.2377860    -1.2003860
  C       -1.1824500     0.2380150     1.2003390
  C        0.8881070    -0.1264310     0.0000120
  C        1.4779170     1.1432740    -0.0000950
  C        1.6780490    -1.2778510     0.0001130
  C        2.8695240     1.2540050    -0.0001090
  C        3.0687920    -1.1592000     0.0000980
  C        3.6642520     0.1047860    -0.0000090
  H       -3.3852960     1.2227380    -0.0001140
  H       -4.2988450    -0.1479970     0.0000100
  H       -3.1713790     0.1478040    -2.1095990
  H       -2.6546500    -1.3444640    -1.2649060
  H       -2.6546490    -1.3442280     1.2651520
  H       -3.1713850     0.1481950     2.1095680
  H       -0.6521860    -0.1397250    -2.0793070
  H       -1.1612660     1.3434560    -1.2528060
  H       -1.1612790     1.3436960     1.2525480
  H       -0.6521900    -0.1393200     2.0793360
  H        0.8654370     2.0434980    -0.0001730
  H        1.1935250    -2.2508840     0.0001950
  H        3.3333780     2.2368900    -0.0001920
  H        3.6871730    -2.0528130     0.0001780
  H        4.7470650     0.1949390    -0.0000240
units angstrom
no_reorient  #important for SAPT in psi4, default
symmetry c1  #important for SAPT in psi4, default
}

set PROPERTIES_ORIGIN ["COM"]
properties('MP2/aug-cc-pvtz', properties = ['dipole'])
--------------------------------------------------------------------------

    Molecular point group: c1
  Charge       = 1
  Multiplicity = 1
  Basis Set: AUG-CC-PVTZ
    Blend: AUG-CC-PVTZ
  Basis Set: (AUG-CC-PVTZ AUX)
    Blend: AUG-CC-PVTZ-JKFIT

    Orbital Energies [Eh]
    ---------------------

    Doubly Occupied:

       1A    -15.866758     2A    -15.704597     3A    -11.456651
       4A    -11.456372     5A    -11.417897     6A    -11.417305
       7A    -11.379008     8A    -11.344212     9A    -11.338925
      10A    -11.338688    11A    -11.336497    12A    -11.333467
      13A     -1.497533    14A     -1.389884    15A     -1.249564
      16A     -1.220516    17A     -1.154217    18A     -1.119398
      19A     -1.086789    20A     -1.052937    21A     -0.998370
      22A     -0.938645    23A     -0.926835    24A     -0.922721
      25A     -0.869063    26A     -0.826785    27A     -0.818317
      28A     -0.792059    29A     -0.786088    30A     -0.769032
      31A     -0.739782    32A     -0.731823    33A     -0.717172
      34A     -0.708639    35A     -0.690517    36A     -0.688616
      37A     -0.659993    38A     -0.658417    39A     -0.607155
      40A     -0.601734    41A     -0.601313    42A     -0.520429
      43A     -0.440135    44A     -0.438112

  @DF-RHF Final Energy:  -496.26011132642134

   => Energetics <=

    Nuclear Repulsion Energy =            706.6033150026422618
    One-Electron Energy =               -2060.5009132601257988
    Two-Electron Energy =                 857.6374869310620852
    Total Energy =                       -496.2601113264213382
  Basis Set: (AUG-CC-PVTZ AUX)
    Blend: AUG-CC-PVTZ-RI
    Molecular point group: c1

    Geometry (in Angstrom), charge = 1, multiplicity = 1:

       Center              X                  Y                   Z               Mass
    ------------   -----------------  -----------------  -----------------  -----------------
         N           -3.383661851846     0.203735503048    -0.000583331273    14.003074004430
         N           -0.604891851846    -0.285365496952    -0.000533331273    14.003074004430
         C           -2.675423051846    -0.269313696952    -1.250260031273    12.000000000000
         C           -2.672642851846    -0.243971496952     1.256827668727    12.000000000000
         C           -1.237738851846     0.247309503048    -1.200949331273    12.000000000000
         C           -1.237743851846     0.247538503048     1.199775668727    12.000000000000
         C            0.832813148154    -0.116907496952    -0.000551331273    12.000000000000
         C            1.422623148154     1.152797503048    -0.000658331273    12.000000000000
         C            1.622755148154    -1.268327496952    -0.000450331273    12.000000000000
         C            2.814230148154     1.263528503048    -0.000672331273    12.000000000000
         C            3.013498148154    -1.149676496952    -0.000465331273    12.000000000000
         C            3.608958148154     0.114309503048    -0.000572331273    12.000000000000
         H           -3.440589851846     1.232261503048    -0.000677331273     1.007825032230
         H           -4.354138851846    -0.138473496952    -0.000553331273     1.007825032230
         H           -3.226672851846     0.157327503048    -2.110162331273     1.007825032230
         H           -2.709943851846    -1.334940496952    -1.265469331273     1.007825032230
         H           -2.709942851846    -1.334704496952     1.264588668727     1.007825032230
         H           -3.226678851846     0.157718503048     2.109004668727     1.007825032230
         H           -0.707479851846    -0.130201496952    -2.079870331273     1.007825032230
         H           -1.216559851846     1.352979503048    -1.253369331273     1.007825032230
         H           -1.216572851846     1.353219503048     1.251984668727     1.007825032230
         H           -0.707483851846    -0.129796496952     2.078772668727     1.007825032230
         H            0.810143148154     2.053021503048    -0.000736331273     1.007825032230
         H            1.138231148154    -2.241360496952    -0.000368331273     1.007825032230
         H            3.278084148154     2.246413503048    -0.000755331273     1.007825032230
         H            3.631879148154    -2.043289496952    -0.000385331273     1.007825032230
         H            4.691771148154     0.204462503048    -0.000587331273     1.007825032230

  Basis Set: AUG-CC-PVTZ
    Blend: AUG-CC-PVTZ
  Basis Set: (AUG-CC-PVTZ AUX)
    Blend: AUG-CC-PVTZ-JKFIT
	 Reference Energy          =    -496.2601113264213382 [Eh]
	 Singles Energy            =      -0.0000000000000000 [Eh]
	 Same-Spin Energy          =      -0.5393894314527730 [Eh]
	 Opposite-Spin Energy      =      -1.7584073864904559 [Eh]
	 Correlation Energy        =      -2.2977968179432287 [Eh]
	 Total Energy              =    -498.5579081443645464 [Eh]

	 ================> DF-SCS-MP2 Energies <==================
	-----------------------------------------------------------
	 SCS Same-Spin Scale       =       0.3333333333333333 [-]
	 SCS Opposite-Spin Scale   =       1.2000000000000000 [-]
	 SCS Same-Spin Energy      =      -0.1797964771509243 [Eh]
	 SCS Opposite-Spin Energy  =      -2.1100888637885471 [Eh]
	 SCS Correlation Energy    =      -2.2898853409394713 [Eh]
	 SCS Total Energy          =    -498.5499966673608014 [Eh]
	-----------------------------------------------------------

  Dipole Moment: [D]
     X:   -11.4855      Y:     1.0836      Z:     0.0023     Total:    11.5365

*** Psi4 exiting successfully. Buy a developer a beer!
