                               Psi4 1.4a3.dev225

  ==> Input File <==

--------------------------------------------------------------------------
#psi4
#
memory 32 gb

molecule  {
1 1
  N       -3.3283680     0.1942120    -0.0000200
  N       -0.5495980    -0.2948890     0.0000300
  C       -2.6173460    -0.2537290    -1.2573450
  C       -2.6173490    -0.2534950     1.2573910
  C       -1.1824450     0.2377860    -1.2003860
  C       -1.1824500     0.2380150     1.2003390
  C        0.8881070    -0.1264310     0.0000120
  C        1.4779170     1.1432740    -0.0000950
  C        1.6780490    -1.2778510     0.0001130
  C        2.8695240     1.2540050    -0.0001090
  C        3.0687920    -1.1592000     0.0000980
  C        3.6642520     0.1047860    -0.0000090
  H       -3.3841907     1.2027686    -0.0001122
  H       -4.2988450    -0.1479970     0.0000100
  H       -3.1713790     0.1478040    -2.1095990
  H       -2.6546500    -1.3444640    -1.2649060
  H       -2.6546490    -1.3442280     1.2651520
  H       -3.1713850     0.1481950     2.1095680
  H       -0.6521860    -0.1397250    -2.0793070
  H       -1.1612660     1.3434560    -1.2528060
  H       -1.1612790     1.3436960     1.2525480
  H       -0.6521900    -0.1393200     2.0793360
  H        0.8654370     2.0434980    -0.0001730
  H        1.1935250    -2.2508840     0.0001950
  H        3.3333780     2.2368900    -0.0001920
  H        3.6871730    -2.0528130     0.0001780
  H        4.7470650     0.1949390    -0.0000240
units angstrom
no_reorient  #important for SAPT in psi4, default
symmetry c1  #important for SAPT in psi4, default
}

set PROPERTIES_ORIGIN ["COM"]
properties('MP2/aug-cc-pvtz', properties = ['dipole'])
--------------------------------------------------------------------------

    Molecular point group: c1
  Charge       = 1
  Multiplicity = 1
  Basis Set: AUG-CC-PVTZ
    Blend: AUG-CC-PVTZ
  Basis Set: (AUG-CC-PVTZ AUX)
    Blend: AUG-CC-PVTZ-JKFIT

    Orbital Energies [Eh]
    ---------------------

    Doubly Occupied:

       1A    -15.865225     2A    -15.705034     3A    -11.456982
       4A    -11.456971     5A    -11.417498     6A    -11.417483
       7A    -11.379187     8A    -11.344315     9A    -11.338986
      10A    -11.338821    11A    -11.336572    12A    -11.333582
      13A     -1.500356    14A     -1.390470    15A     -1.249789
      16A     -1.221842    17A     -1.155445    18A     -1.119486
      19A     -1.087282    20A     -1.053328    21A     -0.999650
      22A     -0.939618    23A     -0.927674    24A     -0.923637
      25A     -0.870818    26A     -0.823788    27A     -0.818569
      28A     -0.793222    29A     -0.788195    30A     -0.769092
      31A     -0.738825    32A     -0.735597    33A     -0.717439
      34A     -0.706110    35A     -0.688780    36A     -0.688248
      37A     -0.660528    38A     -0.660299    39A     -0.607289
      40A     -0.602043    41A     -0.601674    42A     -0.520599
      43A     -0.440208    44A     -0.438288

  @DF-RHF Final Energy:  -496.26134020356767

   => Energetics <=

    Nuclear Repulsion Energy =            706.7680241754960662
    One-Electron Energy =               -2060.8010363172093093
    Two-Electron Energy =                 857.7716719381455732
    Total Energy =                       -496.2613402035676700
  Basis Set: (AUG-CC-PVTZ AUX)
    Blend: AUG-CC-PVTZ-RI
    Molecular point group: c1

    Geometry (in Angstrom), charge = 1, multiplicity = 1:

       Center              X                  Y                   Z               Mass
    ------------   -----------------  -----------------  -----------------  -----------------
         N           -3.383873423717     0.202011823148    -0.000020703738    14.003074004430
         N           -0.605103423717    -0.287089176852     0.000029296262    14.003074004430
         C           -2.672851423717    -0.245929176852    -1.257345703738    12.000000000000
         C           -2.672854423717    -0.245695176852     1.257390296262    12.000000000000
         C           -1.237950423717     0.245585823148    -1.200386703738    12.000000000000
         C           -1.237955423717     0.245814823148     1.200338296262    12.000000000000
         C            0.832601576283    -0.118631176852     0.000011296262    12.000000000000
         C            1.422411576283     1.151073823148    -0.000095703738    12.000000000000
         C            1.622543576283    -1.270051176852     0.000112296262    12.000000000000
         C            2.814018576283     1.261804823148    -0.000109703738    12.000000000000
         C            3.013286576283    -1.151400176852     0.000097296262    12.000000000000
         C            3.608746576283     0.112585823148    -0.000009703738    12.000000000000
         H           -3.439696123717     1.210568423148    -0.000112903738     1.007825032230
         H           -4.354350423717    -0.140197176852     0.000009296262     1.007825032230
         H           -3.226884423717     0.155603823148    -2.109599703738     1.007825032230
         H           -2.710155423717    -1.336664176852    -1.264906703738     1.007825032230
         H           -2.710154423717    -1.336428176852     1.265151296262     1.007825032230
         H           -3.226890423717     0.155994823148     2.109567296262     1.007825032230
         H           -0.707691423717    -0.131925176852    -2.079307703738     1.007825032230
         H           -1.216771423717     1.351255823148    -1.252806703738     1.007825032230
         H           -1.216784423717     1.351495823148     1.252547296262     1.007825032230
         H           -0.707695423717    -0.131520176852     2.079335296262     1.007825032230
         H            0.809931576283     2.051297823148    -0.000173703738     1.007825032230
         H            1.138019576283    -2.243084176852     0.000194296262     1.007825032230
         H            3.277872576283     2.244689823148    -0.000192703738     1.007825032230
         H            3.631667576283    -2.045013176852     0.000177296262     1.007825032230
         H            4.691559576283     0.202738823148    -0.000024703738     1.007825032230

  Basis Set: AUG-CC-PVTZ
    Blend: AUG-CC-PVTZ
  Basis Set: (AUG-CC-PVTZ AUX)
    Blend: AUG-CC-PVTZ-JKFIT
	 Reference Energy          =    -496.2613402035676700 [Eh]
	 Singles Energy            =      -0.0000000000000000 [Eh]
	 Same-Spin Energy          =      -0.5393086789381958 [Eh]
	 Opposite-Spin Energy      =      -1.7580375814247708 [Eh]
	 Correlation Energy        =      -2.2973462603629669 [Eh]
	 Total Energy              =    -498.5586864639306555 [Eh]

	 ================> DF-SCS-MP2 Energies <==================
	-----------------------------------------------------------
	 SCS Same-Spin Scale       =       0.3333333333333333 [-]
	 SCS Opposite-Spin Scale   =       1.2000000000000000 [-]
	 SCS Same-Spin Energy      =      -0.1797695596460653 [Eh]
	 SCS Opposite-Spin Energy  =      -2.1096450977097247 [Eh]
	 SCS Correlation Energy    =      -2.2894146573557901 [Eh]
	 SCS Total Energy          =    -498.5507548609234618 [Eh]
	-----------------------------------------------------------

  Dipole Moment: [D]
     X:   -11.4782      Y:     1.0699      Z:    -0.0001     Total:    11.5279

*** Psi4 exiting successfully. Buy a developer a beer!
