                               Psi4 1.3.2 release

  ==> Input File <==

--------------------------------------------------------------------------
#psi4
#
memory 32 gb

molecule  {
1 1
  N       -3.3283680     0.1942120    -0.0000200
  N       -0.5495980    -0.2948890     0.0000300
  C       -2.7113775    -0.1944895    -1.0910658
  C       -2.6173490    -0.2534950     1.2573910
  C       -1.1824450     0.2377860    -1.2003860
  C       -1.1824500     0.2380150     1.2003390
  C        0.8881070    -0.1264310     0.0000120
  C        1.4779170     1.1432740    -0.0000950
  C        1.6780490    -1.2778510     0.0001130
  C        2.8695240     1.2540050    -0.0001090
  C        3.0687920    -1.1592000     0.0000980
  C        3.6642520     0.1047860    -0.0000090
  H       -3.3852960     1.2227380    -0.0001140
  H       -4.2988450    -0.1479970     0.0000100
  H       -3.1713790     0.1478040    -2.1095990
  H       -2.6546500    -1.3444640    -1.2649060
  H       -2.6546490    -1.3442280     1.2651520
  H       -3.1713850     0.1481950     2.1095680
  H       -0.6521860    -0.1397250    -2.0793070
  H       -1.1612660     1.3434560    -1.2528060
  H       -1.1612790     1.3436960     1.2525480
  H       -0.6521900    -0.1393200     2.0793360
  H        0.8654370     2.0434980    -0.0001730
  H        1.1935250    -2.2508840     0.0001950
  H        3.3333780     2.2368900    -0.0001920
  H        3.6871730    -2.0528130     0.0001780
  H        4.7470650     0.1949390    -0.0000240
units angstrom
no_reorient  #important for SAPT in psi4, default
symmetry c1  #important for SAPT in psi4, default
}

set PROPERTIES_ORIGIN ["COM"]
properties('MP2/aug-cc-pvtz', properties = ['dipole'])
--------------------------------------------------------------------------

    Molecular point group: c1
  Charge       = 1
  Multiplicity = 1
  Basis Set: AUG-CC-PVTZ
    Blend: AUG-CC-PVTZ
  Basis Set: (AUG-CC-PVTZ AUX)
    Blend: AUG-CC-PVTZ-JKFIT

    Orbital Energies [Eh]
    ---------------------

    Doubly Occupied:

       1A    -15.878687     2A    -15.703027     3A    -11.463220
       4A    -11.451929     5A    -11.420387     6A    -11.420270
       7A    -11.378038     8A    -11.343723     9A    -11.338498
      10A    -11.338210    11A    -11.336062    12A    -11.333122
      13A     -1.555130    14A     -1.391633    15A     -1.249738
      16A     -1.222883    17A     -1.148934    18A     -1.118928
      19A     -1.084432    20A     -1.067723    21A     -1.012441
      22A     -0.959757    23A     -0.935300    24A     -0.923897
      25A     -0.877595    26A     -0.844722    27A     -0.821777
      28A     -0.795623    29A     -0.785316    30A     -0.770897
      31A     -0.734338    32A     -0.724308    33A     -0.711059
      34A     -0.704350    35A     -0.688809    36A     -0.669446
      37A     -0.658403    38A     -0.642060    39A     -0.606544
      40A     -0.601582    41A     -0.596900    42A     -0.517483
      43A     -0.439670    44A     -0.437578

  @DF-RHF Final Energy:  -496.21830185561964

   => Energetics <=

    Nuclear Repulsion Energy =            708.7707430997892288
    One-Electron Energy =               -2064.5692333285533095
    Two-Electron Energy =                 859.5801883731443240
    Total Energy =                       -496.2183018556196430
  Basis Set: (AUG-CC-PVTZ AUX)
    Blend: AUG-CC-PVTZ-RI
    Molecular point group: c1

    Geometry (in Angstrom), charge = 1, multiplicity = 1:

       Center              X                  Y                   Z               Mass
    ------------   -----------------  -----------------  -----------------  -----------------
         N           -3.376949272467     0.197530558609    -0.012252836439    14.003074004430
         N           -0.598179272467    -0.291570441391    -0.012202836439    14.003074004430
         C           -2.759958772467    -0.191170941391    -1.103298636439    12.000000000000
         C           -2.665930272467    -0.250176441391     1.245158163561    12.000000000000
         C           -1.231026272467     0.241104558609    -1.212618836439    12.000000000000
         C           -1.231031272467     0.241333558609     1.188106163561    12.000000000000
         C            0.839525727533    -0.123112441391    -0.012220836439    12.000000000000
         C            1.429335727533     1.146592558609    -0.012327836439    12.000000000000
         C            1.629467727533    -1.274532441391    -0.012119836439    12.000000000000
         C            2.820942727533     1.257323558609    -0.012341836439    12.000000000000
         C            3.020210727533    -1.155881441391    -0.012134836439    12.000000000000
         C            3.615670727533     0.108104558609    -0.012241836439    12.000000000000
         H           -3.433877272467     1.226056558609    -0.012346836439     1.007825032230
         H           -4.347426272467    -0.144678441391    -0.012222836439     1.007825032230
         H           -3.219960272467     0.151122558609    -2.121831836439     1.007825032230
         H           -2.703231272467    -1.341145441391    -1.277138836439     1.007825032230
         H           -2.703230272467    -1.340909441391     1.252919163561     1.007825032230
         H           -3.219966272467     0.151513558609     2.097335163561     1.007825032230
         H           -0.700767272467    -0.136406441391    -2.091539836439     1.007825032230
         H           -1.209847272467     1.346774558609    -1.265038836439     1.007825032230
         H           -1.209860272467     1.347014558609     1.240315163561     1.007825032230
         H           -0.700771272467    -0.136001441391     2.067103163561     1.007825032230
         H            0.816855727533     2.046816558609    -0.012405836439     1.007825032230
         H            1.144943727533    -2.247565441391    -0.012037836439     1.007825032230
         H            3.284796727533     2.240208558609    -0.012424836439     1.007825032230
         H            3.638591727533    -2.049494441391    -0.012054836439     1.007825032230
         H            4.698483727533     0.198257558609    -0.012256836439     1.007825032230

  Basis Set: AUG-CC-PVTZ
    Blend: AUG-CC-PVTZ
  Basis Set: (AUG-CC-PVTZ AUX)
    Blend: AUG-CC-PVTZ-JKFIT
	 Reference Energy          =    -496.2183018556196430 [Eh]
	 Singles Energy            =      -0.0000000000000000 [Eh]
	 Same-Spin Energy          =      -0.5416994041288862 [Eh]
	 Opposite-Spin Energy      =      -1.7605303153408594 [Eh]
	 Correlation Energy        =      -2.3022297194697456 [Eh]
	 Total Energy              =    -498.5205315750893647 [Eh]

	 ================> DF-SCS-MP2 Energies <==================
	-----------------------------------------------------------
	 SCS Same-Spin Scale       =       0.3333333333333333 [-]
	 SCS Opposite-Spin Scale   =       1.2000000000000000 [-]
	 SCS Same-Spin Energy      =      -0.1805664680429621 [Eh]
	 SCS Opposite-Spin Energy  =      -2.1126363784090310 [Eh]
	 SCS Correlation Energy    =      -2.2932028464519929 [Eh]
	 SCS Total Energy          =    -498.5115047020716474 [Eh]
	-----------------------------------------------------------

  Dipole Moment: [D]
     X:   -11.5929      Y:     1.1437      Z:     0.2821     Total:    11.6526

*** Psi4 exiting successfully. Buy a developer a beer!
