                               Psi4 1.4a3.dev225

  ==> Input File <==

--------------------------------------------------------------------------
#psi4
#
memory 32 gb

molecule  {
1 1
  N       -3.3283680     0.1942120    -0.0000200
  N       -0.5495980    -0.2948890     0.0000300
  C       -2.6173460    -0.2537290    -1.2573450
  C       -2.6173490    -0.2534950     1.2573910
  C       -1.1824450     0.2377860    -1.2003860
  C       -1.1824500     0.2380150     1.2003390
  C        0.9377673    -0.1206122     0.0000114
  C        1.4779170     1.1432740    -0.0000950
  C        1.6780490    -1.2778510     0.0001130
  C        2.8695240     1.2540050    -0.0001090
  C        3.0687920    -1.1592000     0.0000980
  C        3.6642520     0.1047860    -0.0000090
  H       -3.3852960     1.2227380    -0.0001140
  H       -4.2988450    -0.1479970     0.0000100
  H       -3.1713790     0.1478040    -2.1095990
  H       -2.6546500    -1.3444640    -1.2649060
  H       -2.6546490    -1.3442280     1.2651520
  H       -3.1713850     0.1481950     2.1095680
  H       -0.6521860    -0.1397250    -2.0793070
  H       -1.1612660     1.3434560    -1.2528060
  H       -1.1612790     1.3436960     1.2525480
  H       -0.6521900    -0.1393200     2.0793360
  H        0.8654370     2.0434980    -0.0001730
  H        1.1935250    -2.2508840     0.0001950
  H        3.3333780     2.2368900    -0.0001920
  H        3.6871730    -2.0528130     0.0001780
  H        4.7470650     0.1949390    -0.0000240
units angstrom
no_reorient  #important for SAPT in psi4, default
symmetry c1  #important for SAPT in psi4, default
}

set PROPERTIES_ORIGIN ["COM"]
properties('MP2/aug-cc-pvtz', properties = ['dipole'])
--------------------------------------------------------------------------

    Molecular point group: c1
  Charge       = 1
  Multiplicity = 1
  Basis Set: AUG-CC-PVTZ
    Blend: AUG-CC-PVTZ
  Basis Set: (AUG-CC-PVTZ AUX)
    Blend: AUG-CC-PVTZ-JKFIT

    Orbital Energies [Eh]
    ---------------------

    Doubly Occupied:

       1A    -15.865379     2A    -15.702869     3A    -11.455387
       4A    -11.455376     5A    -11.415269     6A    -11.415254
       7A    -11.378550     8A    -11.343118     9A    -11.340248
      10A    -11.338503    11A    -11.337182    12A    -11.333804
      13A     -1.495981    14A     -1.380191    15A     -1.256208
      16A     -1.219777    17A     -1.150398    18A     -1.124018
      19A     -1.088975    20A     -1.050563    21A     -0.993675
      22A     -0.940932    23A     -0.926869    24A     -0.921568
      25A     -0.868669    26A     -0.821900    27A     -0.817824
      28A     -0.790943    29A     -0.784368    30A     -0.765048
      31A     -0.739873    32A     -0.733365    33A     -0.718801
      34A     -0.708670    35A     -0.691242    36A     -0.686104
      37A     -0.657746    38A     -0.656847    39A     -0.609192
      40A     -0.607663    41A     -0.597270    42A     -0.519357
      43A     -0.443298    44A     -0.441739

  @DF-RHF Final Energy:  -496.25856521126781

   => Energetics <=

    Nuclear Repulsion Energy =            706.5123753512566509
    One-Electron Energy =               -2060.3618527158864708
    Two-Electron Energy =                 857.5909121533620691
    Total Energy =                       -496.2585652112677508
  Basis Set: (AUG-CC-PVTZ AUX)
    Blend: AUG-CC-PVTZ-RI
    Molecular point group: c1

    Geometry (in Angstrom), charge = 1, multiplicity = 1:

       Center              X                  Y                   Z               Mass
    ------------   -----------------  -----------------  -----------------  -----------------
         N           -3.387519799410     0.201460392800    -0.000020648479    14.003074004430
         N           -0.608749799410    -0.287640607200     0.000029351521    14.003074004430
         C           -2.676497799410    -0.246480607200    -1.257345648479    12.000000000000
         C           -2.676500799410    -0.246246607200     1.257390351521    12.000000000000
         C           -1.241596799410     0.245034392800    -1.200386648479    12.000000000000
         C           -1.241601799410     0.245263392800     1.200338351521    12.000000000000
         C            0.878615500590    -0.113363807200     0.000010751521    12.000000000000
         C            1.418765200590     1.150522392800    -0.000095648479    12.000000000000
         C            1.618897200590    -1.270602607200     0.000112351521    12.000000000000
         C            2.810372200590     1.261253392800    -0.000109648479    12.000000000000
         C            3.009640200590    -1.151951607200     0.000097351521    12.000000000000
         C            3.605100200590     0.112034392800    -0.000009648479    12.000000000000
         H           -3.444447799410     1.229986392800    -0.000114648479     1.007825032230
         H           -4.357996799410    -0.140748607200     0.000009351521     1.007825032230
         H           -3.230530799410     0.155052392800    -2.109599648479     1.007825032230
         H           -2.713801799410    -1.337215607200    -1.264906648479     1.007825032230
         H           -2.713800799410    -1.336979607200     1.265151351521     1.007825032230
         H           -3.230536799410     0.155443392800     2.109567351521     1.007825032230
         H           -0.711337799410    -0.132476607200    -2.079307648479     1.007825032230
         H           -1.220417799410     1.350704392800    -1.252806648479     1.007825032230
         H           -1.220430799410     1.350944392800     1.252547351521     1.007825032230
         H           -0.711341799410    -0.132071607200     2.079335351521     1.007825032230
         H            0.806285200590     2.050746392800    -0.000173648479     1.007825032230
         H            1.134373200590    -2.243635607200     0.000194351521     1.007825032230
         H            3.274226200590     2.244138392800    -0.000192648479     1.007825032230
         H            3.628021200590    -2.045564607200     0.000177351521     1.007825032230
         H            4.687913200590     0.202187392800    -0.000024648479     1.007825032230

  Basis Set: AUG-CC-PVTZ
    Blend: AUG-CC-PVTZ
  Basis Set: (AUG-CC-PVTZ AUX)
    Blend: AUG-CC-PVTZ-JKFIT
	 Reference Energy          =    -496.2585652112678076 [Eh]
	 Singles Energy            =      -0.0000000000000000 [Eh]
	 Same-Spin Energy          =      -0.5392587666389065 [Eh]
	 Opposite-Spin Energy      =      -1.7582160051578359 [Eh]
	 Correlation Energy        =      -2.2974747717967423 [Eh]
	 Total Energy              =    -498.5560399830645224 [Eh]

	 ================> DF-SCS-MP2 Energies <==================
	-----------------------------------------------------------
	 SCS Same-Spin Scale       =       0.3333333333333333 [-]
	 SCS Opposite-Spin Scale   =       1.2000000000000000 [-]
	 SCS Same-Spin Energy      =      -0.1797529222129688 [Eh]
	 SCS Opposite-Spin Energy  =      -2.1098592061894030 [Eh]
	 SCS Correlation Energy    =      -2.2896121284023718 [Eh]
	 SCS Total Energy          =    -498.5481773396701897 [Eh]
	-----------------------------------------------------------

  Dipole Moment: [D]
     X:   -11.3182      Y:     1.0803      Z:    -0.0001     Total:    11.3696

*** Psi4 exiting successfully. Buy a developer a beer!
