                               Psi4 1.3.2 release

  ==> Input File <==

--------------------------------------------------------------------------
#psi4
#
memory 32 gb

molecule  {
1 1
  N       -3.3283680     0.1942120    -0.0000200
  N       -0.4838257    -0.3434844    -0.0605210
  C       -2.6173460    -0.2537290    -1.2573450
  C       -2.6173490    -0.2534950     1.2573910
  C       -1.1824450     0.2377860    -1.2003860
  C       -1.1824500     0.2380150     1.2003390
  C        0.8881070    -0.1264310     0.0000120
  C        1.4779170     1.1432740    -0.0000950
  C        1.6780490    -1.2778510     0.0001130
  C        2.8695240     1.2540050    -0.0001090
  C        3.0687920    -1.1592000     0.0000980
  C        3.6642520     0.1047860    -0.0000090
  H       -3.3852960     1.2227380    -0.0001140
  H       -4.2988450    -0.1479970     0.0000100
  H       -3.1713790     0.1478040    -2.1095990
  H       -2.6546500    -1.3444640    -1.2649060
  H       -2.6546490    -1.3442280     1.2651520
  H       -3.1713850     0.1481950     2.1095680
  H       -0.6521860    -0.1397250    -2.0793070
  H       -1.1612660     1.3434560    -1.2528060
  H       -1.1612790     1.3436960     1.2525480
  H       -0.6521900    -0.1393200     2.0793360
  H        0.8654370     2.0434980    -0.0001730
  H        1.1935250    -2.2508840     0.0001950
  H        3.3333780     2.2368900    -0.0001920
  H        3.6871730    -2.0528130     0.0001780
  H        4.7470650     0.1949390    -0.0000240
units angstrom
no_reorient  #important for SAPT in psi4, default
symmetry c1  #important for SAPT in psi4, default
}

set PROPERTIES_ORIGIN ["COM"]
properties('MP2/aug-cc-pvtz', properties = ['dipole'])
--------------------------------------------------------------------------

    Molecular point group: c1
  Charge       = 1
  Multiplicity = 1
  Basis Set: AUG-CC-PVTZ
    Blend: AUG-CC-PVTZ
  Basis Set: (AUG-CC-PVTZ AUX)
    Blend: AUG-CC-PVTZ-JKFIT

    Orbital Energies [Eh]
    ---------------------

    Doubly Occupied:

       1A    -15.868061     2A    -15.709181     3A    -11.460279
       4A    -11.458899     5A    -11.422944     6A    -11.417173
       7A    -11.373280     8A    -11.342528     9A    -11.337721
      10A    -11.335301    11A    -11.334067    12A    -11.331741
      13A     -1.498023    14A     -1.388200    15A     -1.246556
      16A     -1.220351    17A     -1.162067    18A     -1.117960
      19A     -1.083995    20A     -1.047541    21A     -1.002311
      22A     -0.940889    23A     -0.928062    24A     -0.920615
      25A     -0.871512    26A     -0.825373    27A     -0.818453
      28A     -0.787940    29A     -0.782263    30A     -0.767621
      31A     -0.740254    32A     -0.737412    33A     -0.715713
      34A     -0.705315    35A     -0.688867    36A     -0.686853
      37A     -0.669113    38A     -0.648308    39A     -0.608492
      40A     -0.603695    41A     -0.594401    42A     -0.524854
      43A     -0.438501    44A     -0.434146

  @DF-RHF Final Energy:  -496.25032826772338

   => Energetics <=

    Nuclear Repulsion Energy =            706.1752008513974488
    One-Electron Energy =               -2059.6573925176403463
    Two-Electron Energy =                 857.2318633985195220
    Total Energy =                       -496.2503282677233756
  Basis Set: (AUG-CC-PVTZ AUX)
    Blend: AUG-CC-PVTZ-RI
    Molecular point group: c1

    Geometry (in Angstrom), charge = 1, multiplicity = 1:

       Center              X                  Y                   Z               Mass
    ------------   -----------------  -----------------  -----------------  -----------------
         N           -3.389512711145     0.206060039537     0.005177209659    14.003074004430
         N           -0.544970411145    -0.331636360463    -0.055323790341    14.003074004430
         C           -2.678490711145    -0.241880960463    -1.252147790341    12.000000000000
         C           -2.678493711145    -0.241646960463     1.262588209659    12.000000000000
         C           -1.243589711145     0.249634039537    -1.195188790341    12.000000000000
         C           -1.243594711145     0.249863039537     1.205536209659    12.000000000000
         C            0.826962288855    -0.114582960463     0.005209209659    12.000000000000
         C            1.416772288855     1.155122039537     0.005102209659    12.000000000000
         C            1.616904288855    -1.266002960463     0.005310209659    12.000000000000
         C            2.808379288855     1.265853039537     0.005088209659    12.000000000000
         C            3.007647288855    -1.147351960463     0.005295209659    12.000000000000
         C            3.603107288855     0.116634039537     0.005188209659    12.000000000000
         H           -3.446440711145     1.234586039537     0.005083209659     1.007825032230
         H           -4.359989711145    -0.136148960463     0.005207209659     1.007825032230
         H           -3.232523711145     0.159652039537    -2.104401790341     1.007825032230
         H           -2.715794711145    -1.332615960463    -1.259708790341     1.007825032230
         H           -2.715793711145    -1.332379960463     1.270349209659     1.007825032230
         H           -3.232529711145     0.160043039537     2.114765209659     1.007825032230
         H           -0.713330711145    -0.127876960463    -2.074109790341     1.007825032230
         H           -1.222410711145     1.355304039537    -1.247608790341     1.007825032230
         H           -1.222423711145     1.355544039537     1.257745209659     1.007825032230
         H           -0.713334711145    -0.127471960463     2.084533209659     1.007825032230
         H            0.804292288855     2.055346039537     0.005024209659     1.007825032230
         H            1.132380288855    -2.239035960463     0.005392209659     1.007825032230
         H            3.272233288855     2.248738039537     0.005005209659     1.007825032230
         H            3.626028288855    -2.040964960463     0.005375209659     1.007825032230
         H            4.685920288855     0.206787039537     0.005173209659     1.007825032230

  Basis Set: AUG-CC-PVTZ
    Blend: AUG-CC-PVTZ
  Basis Set: (AUG-CC-PVTZ AUX)
    Blend: AUG-CC-PVTZ-JKFIT
	 Reference Energy          =    -496.2503282677233756 [Eh]
	 Singles Energy            =      -0.0000000000000000 [Eh]
	 Same-Spin Energy          =      -0.5400617199824609 [Eh]
	 Opposite-Spin Energy      =      -1.7599448575726961 [Eh]
	 Correlation Energy        =      -2.3000065775551573 [Eh]
	 Total Energy              =    -498.5503348452785417 [Eh]

	 ================> DF-SCS-MP2 Energies <==================
	-----------------------------------------------------------
	 SCS Same-Spin Scale       =       0.3333333333333333 [-]
	 SCS Opposite-Spin Scale   =       1.2000000000000000 [-]
	 SCS Same-Spin Energy      =      -0.1800205733274869 [Eh]
	 SCS Opposite-Spin Energy  =      -2.1119338290872354 [Eh]
	 SCS Correlation Energy    =      -2.2919544024147225 [Eh]
	 SCS Total Energy          =    -498.5422826701380927 [Eh]
	-----------------------------------------------------------

  Dipole Moment: [D]
     X:   -11.7525      Y:     1.2186      Z:     0.1337     Total:    11.8163

*** Psi4 exiting successfully. Buy a developer a beer!
