                               Psi4 1.3.2 release

  ==> Input File <==

--------------------------------------------------------------------------
#psi4
#
memory 32 gb

molecule  {
1 1
  N       -3.3283680     0.1942120    -0.0000200
  N       -0.5495980    -0.2948890     0.0000300
  C       -2.5806486    -0.2768394    -1.2272510
  C       -2.6173490    -0.2534950     1.2573910
  C       -1.1824450     0.2377860    -1.2003860
  C       -1.1824500     0.2380150     1.2003390
  C        0.8881070    -0.1264310     0.0000120
  C        1.4779170     1.1432740    -0.0000950
  C        1.6780490    -1.2778510     0.0001130
  C        2.8695240     1.2540050    -0.0001090
  C        3.0687920    -1.1592000     0.0000980
  C        3.6642520     0.1047860    -0.0000090
  H       -3.3852960     1.2227380    -0.0001140
  H       -4.2988450    -0.1479970     0.0000100
  H       -3.1713790     0.1478040    -2.1095990
  H       -2.6546500    -1.3444640    -1.2649060
  H       -2.6546490    -1.3442280     1.2651520
  H       -3.1713850     0.1481950     2.1095680
  H       -0.6521860    -0.1397250    -2.0793070
  H       -1.1612660     1.3434560    -1.2528060
  H       -1.1612790     1.3436960     1.2525480
  H       -0.6521900    -0.1393200     2.0793360
  H        0.8654370     2.0434980    -0.0001730
  H        1.1935250    -2.2508840     0.0001950
  H        3.3333780     2.2368900    -0.0001920
  H        3.6871730    -2.0528130     0.0001780
  H        4.7470650     0.1949390    -0.0000240
units angstrom
no_reorient  #important for SAPT in psi4, default
symmetry c1  #important for SAPT in psi4, default
}

set PROPERTIES_ORIGIN ["COM"]
properties('MP2/aug-cc-pvtz', properties = ['dipole'])
--------------------------------------------------------------------------

    Molecular point group: c1
  Charge       = 1
  Multiplicity = 1
  Basis Set: AUG-CC-PVTZ
    Blend: AUG-CC-PVTZ
  Basis Set: (AUG-CC-PVTZ AUX)
    Blend: AUG-CC-PVTZ-JKFIT

    Orbital Energies [Eh]
    ---------------------

    Doubly Occupied:

       1A    -15.866877     2A    -15.704462     3A    -11.458295
       4A    -11.456269     5A    -11.417607     6A    -11.416312
       7A    -11.378973     8A    -11.344283     9A    -11.339049
      10A    -11.338743    11A    -11.336597    12A    -11.333512
      13A     -1.498467    14A     -1.391063    15A     -1.250149
      16A     -1.223085    17A     -1.156621    18A     -1.119498
      19A     -1.086815    20A     -1.051764    21A     -0.999205
      22A     -0.939086    23A     -0.928249    24A     -0.922721
      25A     -0.867101    26A     -0.826961    27A     -0.819572
      28A     -0.791441    29A     -0.785590    30A     -0.769940
      31A     -0.741081    32A     -0.730721    33A     -0.718714
      34A     -0.706990    35A     -0.690160    36A     -0.688665
      37A     -0.661357    38A     -0.656978    39A     -0.607198
      40A     -0.601973    41A     -0.601280    42A     -0.521190
      43A     -0.440255    44A     -0.438154

  @DF-RHF Final Energy:  -496.25719947791868

   => Energetics <=

    Nuclear Repulsion Energy =            707.4389429157713494
    One-Electron Energy =               -2062.1462339652716764
    Two-Electron Energy =                 858.4500915715816518
    Total Energy =                       -496.2571994779186753
  Basis Set: (AUG-CC-PVTZ AUX)
    Blend: AUG-CC-PVTZ-RI
    Molecular point group: c1

    Geometry (in Angstrom), charge = 1, multiplicity = 1:

       Center              X                  Y                   Z               Mass
    ------------   -----------------  -----------------  -----------------  -----------------
         N           -3.386566198134     0.203588537120    -0.002234524150    14.003074004430
         N           -0.607796198134    -0.285512462880    -0.002184524150    14.003074004430
         C           -2.638846798134    -0.267462862880    -1.229465524150    12.000000000000
         C           -2.675547198134    -0.244118462880     1.255176475850    12.000000000000
         C           -1.240643198134     0.247162537120    -1.202600524150    12.000000000000
         C           -1.240648198134     0.247391537120     1.198124475850    12.000000000000
         C            0.829908801866    -0.117054462880    -0.002202524150    12.000000000000
         C            1.419718801866     1.152650537120    -0.002309524150    12.000000000000
         C            1.619850801866    -1.268474462880    -0.002101524150    12.000000000000
         C            2.811325801866     1.263381537120    -0.002323524150    12.000000000000
         C            3.010593801866    -1.149823462880    -0.002116524150    12.000000000000
         C            3.606053801866     0.114162537120    -0.002223524150    12.000000000000
         H           -3.443494198134     1.232114537120    -0.002328524150     1.007825032230
         H           -4.357043198134    -0.138620462880    -0.002204524150     1.007825032230
         H           -3.229577198134     0.157180537120    -2.111813524150     1.007825032230
         H           -2.712848198134    -1.335087462880    -1.267120524150     1.007825032230
         H           -2.712847198134    -1.334851462880     1.262937475850     1.007825032230
         H           -3.229583198134     0.157571537120     2.107353475850     1.007825032230
         H           -0.710384198134    -0.130348462880    -2.081521524150     1.007825032230
         H           -1.219464198134     1.352832537120    -1.255020524150     1.007825032230
         H           -1.219477198134     1.353072537120     1.250333475850     1.007825032230
         H           -0.710388198134    -0.129943462880     2.077121475850     1.007825032230
         H            0.807238801866     2.052874537120    -0.002387524150     1.007825032230
         H            1.135326801866    -2.241507462880    -0.002019524150     1.007825032230
         H            3.275179801866     2.246266537120    -0.002406524150     1.007825032230
         H            3.628974801866    -2.043436462880    -0.002036524150     1.007825032230
         H            4.688866801866     0.204315537120    -0.002238524150     1.007825032230

  Basis Set: AUG-CC-PVTZ
    Blend: AUG-CC-PVTZ
  Basis Set: (AUG-CC-PVTZ AUX)
    Blend: AUG-CC-PVTZ-JKFIT
	 Reference Energy          =    -496.2571994779186753 [Eh]
	 Singles Energy            =      -0.0000000000000000 [Eh]
	 Same-Spin Energy          =      -0.5397803631031004 [Eh]
	 Opposite-Spin Energy      =      -1.7588427303516041 [Eh]
	 Correlation Energy        =      -2.2986230934547045 [Eh]
	 Total Energy              =    -498.5558225713733691 [Eh]

	 ================> DF-SCS-MP2 Energies <==================
	-----------------------------------------------------------
	 SCS Same-Spin Scale       =       0.3333333333333333 [-]
	 SCS Opposite-Spin Scale   =       1.2000000000000000 [-]
	 SCS Same-Spin Energy      =      -0.1799267877010335 [Eh]
	 SCS Opposite-Spin Energy  =      -2.1106112764219249 [Eh]
	 SCS Correlation Energy    =      -2.2905380641229582 [Eh]
	 SCS Total Energy          =    -498.5477375420416593 [Eh]
	-----------------------------------------------------------

  Dipole Moment: [D]
     X:   -11.4744      Y:     1.0798      Z:     0.0043     Total:    11.5251

*** Psi4 exiting successfully. Buy a developer a beer!
