                               Psi4 1.3.2 release

  ==> Input File <==

--------------------------------------------------------------------------
#psi4
#
memory 32 gb

molecule  {
1 1
  N       -3.3283680     0.1942120    -0.0000200
  N       -0.5495980    -0.2948890     0.0000300
  C       -2.6173460    -0.2537290    -1.2573450
  C       -2.6173490    -0.2534950     1.2573910
  C       -1.1824450     0.2377860    -1.2003860
  C       -1.1824500     0.2380150     1.2003390
  C        0.6894659    -0.1497061     0.0000145
  C        1.4779170     1.1432740    -0.0000950
  C        1.6780490    -1.2778510     0.0001130
  C        2.8695240     1.2540050    -0.0001090
  C        3.0687920    -1.1592000     0.0000980
  C        3.6642520     0.1047860    -0.0000090
  H       -3.3852960     1.2227380    -0.0001140
  H       -4.2988450    -0.1479970     0.0000100
  H       -3.1713790     0.1478040    -2.1095990
  H       -2.6546500    -1.3444640    -1.2649060
  H       -2.6546490    -1.3442280     1.2651520
  H       -3.1713850     0.1481950     2.1095680
  H       -0.6521860    -0.1397250    -2.0793070
  H       -1.1612660     1.3434560    -1.2528060
  H       -1.1612790     1.3436960     1.2525480
  H       -0.6521900    -0.1393200     2.0793360
  H        0.8654370     2.0434980    -0.0001730
  H        1.1935250    -2.2508840     0.0001950
  H        3.3333780     2.2368900    -0.0001920
  H        3.6871730    -2.0528130     0.0001780
  H        4.7470650     0.1949390    -0.0000240
units angstrom
no_reorient  #important for SAPT in psi4, default
symmetry c1  #important for SAPT in psi4, default
}

set PROPERTIES_ORIGIN ["COM"]
properties('MP2/aug-cc-pvtz', properties = ['dipole'])
--------------------------------------------------------------------------

    Molecular point group: c1
  Charge       = 1
  Multiplicity = 1
  Basis Set: AUG-CC-PVTZ
    Blend: AUG-CC-PVTZ
  Basis Set: (AUG-CC-PVTZ AUX)
    Blend: AUG-CC-PVTZ-JKFIT

    Orbital Energies [Eh]
    ---------------------

    Doubly Occupied:

       1A    -15.872368     2A    -15.708453     3A    -11.462836
       4A    -11.462825     5A    -11.426900     6A    -11.426886
       7A    -11.385255     8A    -11.348478     9A    -11.342659
      10A    -11.334023    11A    -11.332154    12A    -11.330805
      13A     -1.506188    14A     -1.446761    15A     -1.229953
      16A     -1.228095    17A     -1.177983    18A     -1.105032
      19A     -1.071160    20A     -1.065338    21A     -1.013563
      22A     -0.943914    23A     -0.932527    24A     -0.918644
      25A     -0.870342    26A     -0.830574    27A     -0.825548
      28A     -0.807033    29A     -0.803060    30A     -0.776510
      31A     -0.744106    32A     -0.741689    33A     -0.708258
      34A     -0.699781    35A     -0.697269    36A     -0.677895
      37A     -0.672710    38A     -0.670796    39A     -0.615526
      40A     -0.602566    41A     -0.580311    42A     -0.501776
      43A     -0.431954    44A     -0.415788

  @DF-RHF Final Energy:  -496.19915413857552

   => Energetics <=

    Nuclear Repulsion Energy =            707.8116137632781601
    One-Electron Energy =               -2062.5289489232086453
    Two-Electron Energy =                 858.5181810213548488
    Total Energy =                       -496.1991541385755227
  Basis Set: (AUG-CC-PVTZ AUX)
    Blend: AUG-CC-PVTZ-RI
    Molecular point group: c1

    Geometry (in Angstrom), charge = 1, multiplicity = 1:

       Center              X                  Y                   Z               Mass
    ------------   -----------------  -----------------  -----------------  -----------------
         N           -3.369253783962     0.203600653092    -0.000020876527    14.003074004430
         N           -0.590483783962    -0.285500346908     0.000029123473    14.003074004430
         C           -2.658231783962    -0.244340346908    -1.257345876527    12.000000000000
         C           -2.658234783962    -0.244106346908     1.257390123473    12.000000000000
         C           -1.223330783962     0.247174653092    -1.200386876527    12.000000000000
         C           -1.223335783962     0.247403653092     1.200338123473    12.000000000000
         C            0.648580116038    -0.140317446908     0.000013623473    12.000000000000
         C            1.437031216038     1.152662653092    -0.000095876527    12.000000000000
         C            1.637163216038    -1.268462346908     0.000112123473    12.000000000000
         C            2.828638216038     1.263393653092    -0.000109876527    12.000000000000
         C            3.027906216038    -1.149811346908     0.000097123473    12.000000000000
         C            3.623366216038     0.114174653092    -0.000009876527    12.000000000000
         H           -3.426181783962     1.232126653092    -0.000114876527     1.007825032230
         H           -4.339730783962    -0.138608346908     0.000009123473     1.007825032230
         H           -3.212264783962     0.157192653092    -2.109599876527     1.007825032230
         H           -2.695535783962    -1.335075346908    -1.264906876527     1.007825032230
         H           -2.695534783962    -1.334839346908     1.265151123473     1.007825032230
         H           -3.212270783962     0.157583653092     2.109567123473     1.007825032230
         H           -0.693071783962    -0.130336346908    -2.079307876527     1.007825032230
         H           -1.202151783962     1.352844653092    -1.252806876527     1.007825032230
         H           -1.202164783962     1.353084653092     1.252547123473     1.007825032230
         H           -0.693075783962    -0.129931346908     2.079335123473     1.007825032230
         H            0.824551216038     2.052886653092    -0.000173876527     1.007825032230
         H            1.152639216038    -2.241495346908     0.000194123473     1.007825032230
         H            3.292492216038     2.246278653092    -0.000192876527     1.007825032230
         H            3.646287216038    -2.043424346908     0.000177123473     1.007825032230
         H            4.706179216038     0.204327653092    -0.000024876527     1.007825032230

  Basis Set: AUG-CC-PVTZ
    Blend: AUG-CC-PVTZ
  Basis Set: (AUG-CC-PVTZ AUX)
    Blend: AUG-CC-PVTZ-JKFIT
	 Reference Energy          =    -496.1991541385755227 [Eh]
	 Singles Energy            =      -0.0000000000000000 [Eh]
	 Same-Spin Energy          =      -0.5434745933530316 [Eh]
	 Opposite-Spin Energy      =      -1.7642881373576360 [Eh]
	 Correlation Energy        =      -2.3077627307106674 [Eh]
	 Total Energy              =    -498.5069168692862149 [Eh]

	 ================> DF-SCS-MP2 Energies <==================
	-----------------------------------------------------------
	 SCS Same-Spin Scale       =       0.3333333333333333 [-]
	 SCS Opposite-Spin Scale   =       1.2000000000000000 [-]
	 SCS Same-Spin Energy      =      -0.1811581977843439 [Eh]
	 SCS Opposite-Spin Energy  =      -2.1171457648291629 [Eh]
	 SCS Correlation Energy    =      -2.2983039626135069 [Eh]
	 SCS Total Energy          =    -498.4974581011890109 [Eh]
	-----------------------------------------------------------

  Dipole Moment: [D]
     X:   -12.2353      Y:     1.1268      Z:    -0.0001     Total:    12.2871

*** Psi4 exiting successfully. Buy a developer a beer!
