                               Psi4 1.3.2 release

  ==> Input File <==

--------------------------------------------------------------------------
#psi4
#
memory 32 gb

molecule  {
1 1
  N       -3.3283680     0.1942120    -0.0000200
  N       -0.5328531    -0.3072906    -0.0145705
  C       -2.6173460    -0.2537290    -1.2573450
  C       -2.6173490    -0.2534950     1.2573910
  C       -1.1824450     0.2377860    -1.2003860
  C       -1.1824500     0.2380150     1.2003390
  C        0.8881070    -0.1264310     0.0000120
  C        1.4779170     1.1432740    -0.0000950
  C        1.6780490    -1.2778510     0.0001130
  C        2.8695240     1.2540050    -0.0001090
  C        3.0687920    -1.1592000     0.0000980
  C        3.6642520     0.1047860    -0.0000090
  H       -3.3852960     1.2227380    -0.0001140
  H       -4.2988450    -0.1479970     0.0000100
  H       -3.1713790     0.1478040    -2.1095990
  H       -2.6546500    -1.3444640    -1.2649060
  H       -2.6546490    -1.3442280     1.2651520
  H       -3.1713850     0.1481950     2.1095680
  H       -0.6521860    -0.1397250    -2.0793070
  H       -1.1612660     1.3434560    -1.2528060
  H       -1.1612790     1.3436960     1.2525480
  H       -0.6521900    -0.1393200     2.0793360
  H        0.8654370     2.0434980    -0.0001730
  H        1.1935250    -2.2508840     0.0001950
  H        3.3333780     2.2368900    -0.0001920
  H        3.6871730    -2.0528130     0.0001780
  H        4.7470650     0.1949390    -0.0000240
units angstrom
no_reorient  #important for SAPT in psi4, default
symmetry c1  #important for SAPT in psi4, default
}

set PROPERTIES_ORIGIN ["COM"]
properties('MP2/aug-cc-pvtz', properties = ['dipole'])
--------------------------------------------------------------------------

    Molecular point group: c1
  Charge       = 1
  Multiplicity = 1
  Basis Set: AUG-CC-PVTZ
    Blend: AUG-CC-PVTZ
  Basis Set: (AUG-CC-PVTZ AUX)
    Blend: AUG-CC-PVTZ-JKFIT

    Orbital Energies [Eh]
    ---------------------

    Doubly Occupied:

       1A    -15.867068     2A    -15.706010     3A    -11.457757
       4A    -11.457320     5A    -11.418929     6A    -11.417214
       7A    -11.377573     8A    -11.343796     9A    -11.338601
      10A    -11.337823    11A    -11.335910    12A    -11.333068
      13A     -1.497676    14A     -1.389013    15A     -1.248833
      16A     -1.221288    17A     -1.156516    18A     -1.119029
      19A     -1.085785    20A     -1.051758    21A     -0.998483
      22A     -0.939172    23A     -0.927413    24A     -0.922728
      25A     -0.870196    26A     -0.823907    27A     -0.818128
      28A     -0.791488    29A     -0.786444    30A     -0.768632
      31A     -0.738747    32A     -0.735966    33A     -0.716896
      34A     -0.705513    35A     -0.688300    36A     -0.688047
      37A     -0.662676    38A     -0.657253    39A     -0.607555
      40A     -0.602511    41A     -0.600136    42A     -0.521848
      43A     -0.439706    44A     -0.437320

  @DF-RHF Final Energy:  -496.25997061445793

   => Energetics <=

    Nuclear Repulsion Energy =            706.5260691128501094
    One-Electron Energy =               -2060.3520172973367153
    Two-Electron Energy =                 857.5659775700287355
    Total Energy =                       -496.2599706144578704
  Basis Set: (AUG-CC-PVTZ AUX)
    Blend: AUG-CC-PVTZ-RI
    Molecular point group: c1

    Geometry (in Angstrom), charge = 1, multiplicity = 1:

       Center              X                  Y                   Z               Mass
    ------------   -----------------  -----------------  -----------------  -----------------
         N           -3.385304033600     0.202953041545     0.001232663598    14.003074004430
         N           -0.589789133600    -0.298549558455    -0.013317836402    14.003074004430
         C           -2.674282033600    -0.244987958455    -1.256092336402    12.000000000000
         C           -2.674285033600    -0.244753958455     1.258643663598    12.000000000000
         C           -1.239381033600     0.246527041545    -1.199133336402    12.000000000000
         C           -1.239386033600     0.246756041545     1.201591663598    12.000000000000
         C            0.831170966400    -0.117689958455     0.001264663598    12.000000000000
         C            1.420980966400     1.152015041545     0.001157663598    12.000000000000
         C            1.621112966400    -1.269109958455     0.001365663598    12.000000000000
         C            2.812587966400     1.262746041545     0.001143663598    12.000000000000
         C            3.011855966400    -1.150458958455     0.001350663598    12.000000000000
         C            3.607315966400     0.113527041545     0.001243663598    12.000000000000
         H           -3.442232033600     1.231479041545     0.001138663598     1.007825032230
         H           -4.355781033600    -0.139255958455     0.001262663598     1.007825032230
         H           -3.228315033600     0.156545041545    -2.108346336402     1.007825032230
         H           -2.711586033600    -1.335722958455    -1.263653336402     1.007825032230
         H           -2.711585033600    -1.335486958455     1.266404663598     1.007825032230
         H           -3.228321033600     0.156936041545     2.110820663598     1.007825032230
         H           -0.709122033600    -0.130983958455    -2.078054336402     1.007825032230
         H           -1.218202033600     1.352197041545    -1.251553336402     1.007825032230
         H           -1.218215033600     1.352437041545     1.253800663598     1.007825032230
         H           -0.709126033600    -0.130578958455     2.080588663598     1.007825032230
         H            0.808500966400     2.052239041545     0.001079663598     1.007825032230
         H            1.136588966400    -2.242142958455     0.001447663598     1.007825032230
         H            3.276441966400     2.245631041545     0.001060663598     1.007825032230
         H            3.630236966400    -2.044071958455     0.001430663598     1.007825032230
         H            4.690128966400     0.203680041545     0.001228663598     1.007825032230

  Basis Set: AUG-CC-PVTZ
    Blend: AUG-CC-PVTZ
  Basis Set: (AUG-CC-PVTZ AUX)
    Blend: AUG-CC-PVTZ-JKFIT
	 Reference Energy          =    -496.2599706144579272 [Eh]
	 Singles Energy            =      -0.0000000000000000 [Eh]
	 Same-Spin Energy          =      -0.5395146641346100 [Eh]
	 Opposite-Spin Energy      =      -1.7586379076699112 [Eh]
	 Correlation Energy        =      -2.2981525718045210 [Eh]
	 Total Energy              =    -498.5581231862624350 [Eh]

	 ================> DF-SCS-MP2 Energies <==================
	-----------------------------------------------------------
	 SCS Same-Spin Scale       =       0.3333333333333333 [-]
	 SCS Opposite-Spin Scale   =       1.2000000000000000 [-]
	 SCS Same-Spin Energy      =      -0.1798382213782033 [Eh]
	 SCS Opposite-Spin Energy  =      -2.1103654892038932 [Eh]
	 SCS Correlation Energy    =      -2.2902037105820967 [Eh]
	 SCS Total Energy          =    -498.5501743250400182 [Eh]
	-----------------------------------------------------------

  Dipole Moment: [D]
     X:   -11.5568      Y:     1.1253      Z:     0.0369     Total:    11.6115

*** Psi4 exiting successfully. Buy a developer a beer!
