                               Psi4 1.3.2 release

  ==> Input File <==

--------------------------------------------------------------------------
#psi4
#
memory 32 gb

molecule  {
1 1
  N       -3.3283680     0.1942120    -0.0000200
  N       -0.5546013    -0.2446112     0.0000258
  C       -2.6173460    -0.2537290    -1.2573450
  C       -2.6173490    -0.2534950     1.2573910
  C       -1.1824450     0.2377860    -1.2003860
  C       -1.1824500     0.2380150     1.2003390
  C        0.8881070    -0.1264310     0.0000120
  C        1.4779170     1.1432740    -0.0000950
  C        1.6780490    -1.2778510     0.0001130
  C        2.8695240     1.2540050    -0.0001090
  C        3.0687920    -1.1592000     0.0000980
  C        3.6642520     0.1047860    -0.0000090
  H       -3.3852960     1.2227380    -0.0001140
  H       -4.2988450    -0.1479970     0.0000100
  H       -3.1713790     0.1478040    -2.1095990
  H       -2.6546500    -1.3444640    -1.2649060
  H       -2.6546490    -1.3442280     1.2651520
  H       -3.1713850     0.1481950     2.1095680
  H       -0.6521860    -0.1397250    -2.0793070
  H       -1.1612660     1.3434560    -1.2528060
  H       -1.1612790     1.3436960     1.2525480
  H       -0.6521900    -0.1393200     2.0793360
  H        0.8654370     2.0434980    -0.0001730
  H        1.1935250    -2.2508840     0.0001950
  H        3.3333780     2.2368900    -0.0001920
  H        3.6871730    -2.0528130     0.0001780
  H        4.7470650     0.1949390    -0.0000240
units angstrom
no_reorient  #important for SAPT in psi4, default
symmetry c1  #important for SAPT in psi4, default
}

set PROPERTIES_ORIGIN ["COM"]
properties('MP2/aug-cc-pvtz', properties = ['dipole'])
--------------------------------------------------------------------------

    Molecular point group: c1
  Charge       = 1
  Multiplicity = 1
  Basis Set: AUG-CC-PVTZ
    Blend: AUG-CC-PVTZ
  Basis Set: (AUG-CC-PVTZ AUX)
    Blend: AUG-CC-PVTZ-JKFIT

    Orbital Energies [Eh]
    ---------------------

    Doubly Occupied:

       1A    -15.866653     2A    -15.699929     3A    -11.456741
       4A    -11.456730     5A    -11.416674     6A    -11.416657
       7A    -11.379778     8A    -11.343572     9A    -11.340047
      10A    -11.338670    11A    -11.337163    12A    -11.333933
      13A     -1.497933    14A     -1.395017    15A     -1.250427
      16A     -1.222521    17A     -1.154311    18A     -1.119641
      19A     -1.087842    20A     -1.056389    21A     -0.995806
      22A     -0.938387    23A     -0.927723    24A     -0.924564
      25A     -0.868836    26A     -0.823066    27A     -0.818455
      28A     -0.796761    29A     -0.791734    30A     -0.770265
      31A     -0.738332    32A     -0.735682    33A     -0.717599
      34A     -0.706122    35A     -0.689075    36A     -0.686837
      37A     -0.666176    38A     -0.660537    39A     -0.606699
      40A     -0.603146    41A     -0.602744    42A     -0.512162
      43A     -0.440331    44A     -0.439056

  @DF-RHF Final Energy:  -496.26104575201009

   => Energetics <=

    Nuclear Repulsion Energy =            707.2150028272521922
    One-Electron Energy =               -2061.6906507362900811
    Two-Electron Energy =                 858.2146021570277981
    Total Energy =                       -496.2610457520100908
  Basis Set: (AUG-CC-PVTZ AUX)
    Blend: AUG-CC-PVTZ-RI
    Molecular point group: c1

    Geometry (in Angstrom), charge = 1, multiplicity = 1:

       Center              X                  Y                   Z               Mass
    ------------   -----------------  -----------------  -----------------  -----------------
         N           -3.383437094684     0.197572430227    -0.000020332075    14.003074004430
         N           -0.609670394684    -0.241250769773     0.000025467925    14.003074004430
         C           -2.672415094684    -0.250368569773    -1.257345332075    12.000000000000
         C           -2.672418094684    -0.250134569773     1.257390667925    12.000000000000
         C           -1.237514094684     0.241146430227    -1.200386332075    12.000000000000
         C           -1.237519094684     0.241375430227     1.200338667925    12.000000000000
         C            0.833037905316    -0.123070569773     0.000011667925    12.000000000000
         C            1.422847905316     1.146634430227    -0.000095332075    12.000000000000
         C            1.622979905316    -1.274490569773     0.000112667925    12.000000000000
         C            2.814454905316     1.257365430227    -0.000109332075    12.000000000000
         C            3.013722905316    -1.155839569773     0.000097667925    12.000000000000
         C            3.609182905316     0.108146430227    -0.000009332075    12.000000000000
         H           -3.440365094684     1.226098430227    -0.000114332075     1.007825032230
         H           -4.353914094684    -0.144636569773     0.000009667925     1.007825032230
         H           -3.226448094684     0.151164430227    -2.109599332075     1.007825032230
         H           -2.709719094684    -1.341103569773    -1.264906332075     1.007825032230
         H           -2.709718094684    -1.340867569773     1.265151667925     1.007825032230
         H           -3.226454094684     0.151555430227     2.109567667925     1.007825032230
         H           -0.707255094684    -0.136364569773    -2.079307332075     1.007825032230
         H           -1.216335094684     1.346816430227    -1.252806332075     1.007825032230
         H           -1.216348094684     1.347056430227     1.252547667925     1.007825032230
         H           -0.707259094684    -0.135959569773     2.079335667925     1.007825032230
         H            0.810367905316     2.046858430227    -0.000173332075     1.007825032230
         H            1.138455905316    -2.247523569773     0.000194667925     1.007825032230
         H            3.278308905316     2.240250430227    -0.000192332075     1.007825032230
         H            3.632103905316    -2.049452569773     0.000177667925     1.007825032230
         H            4.691995905316     0.198299430227    -0.000024332075     1.007825032230

  Basis Set: AUG-CC-PVTZ
    Blend: AUG-CC-PVTZ
  Basis Set: (AUG-CC-PVTZ AUX)
    Blend: AUG-CC-PVTZ-JKFIT
	 Reference Energy          =    -496.2610457520100908 [Eh]
	 Singles Energy            =      -0.0000000000000000 [Eh]
	 Same-Spin Energy          =      -0.5393951617070771 [Eh]
	 Opposite-Spin Energy      =      -1.7577351360241389 [Eh]
	 Correlation Energy        =      -2.2971302977312158 [Eh]
	 Total Energy              =    -498.5581760497412915 [Eh]

	 ================> DF-SCS-MP2 Energies <==================
	-----------------------------------------------------------
	 SCS Same-Spin Scale       =       0.3333333333333333 [-]
	 SCS Opposite-Spin Scale   =       1.2000000000000000 [-]
	 SCS Same-Spin Energy      =      -0.1797983872356924 [Eh]
	 SCS Opposite-Spin Energy  =      -2.1092821632289667 [Eh]
	 SCS Correlation Energy    =      -2.2890805504646590 [Eh]
	 SCS Total Energy          =    -498.5501263024747232 [Eh]
	-----------------------------------------------------------

  Dipole Moment: [D]
     X:   -11.4329      Y:     0.9481      Z:    -0.0001     Total:    11.4722

*** Psi4 exiting successfully. Buy a developer a beer!
