                               Psi4 1.4a3.dev225

  ==> Input File <==

--------------------------------------------------------------------------
#psi4
#
memory 32 gb

molecule  {
1 1
  N       -3.3283680     0.1942120    -0.0000200
  N       -0.5495980    -0.2948890     0.0000300
  C       -2.6173460    -0.2537290    -1.2573450
  C       -2.6173490    -0.2534950     1.2573910
  C       -1.1824450     0.2377860    -1.2003860
  C       -1.1824500     0.2380150     1.2003390
  C        0.8881070    -0.1264310     0.0000120
  C        1.4779170     1.1432740    -0.0000950
  C        1.6780490    -1.2778510     0.0001130
  C        2.8695240     1.2540050    -0.0001090
  C        3.0687920    -1.1592000     0.0000980
  C        3.6642520     0.1047860    -0.0000090
  H       -3.3825328     1.1728144    -0.0001094
  H       -4.2988450    -0.1479970     0.0000100
  H       -3.1713790     0.1478040    -2.1095990
  H       -2.6546500    -1.3444640    -1.2649060
  H       -2.6546490    -1.3442280     1.2651520
  H       -3.1713850     0.1481950     2.1095680
  H       -0.6521860    -0.1397250    -2.0793070
  H       -1.1612660     1.3434560    -1.2528060
  H       -1.1612790     1.3436960     1.2525480
  H       -0.6521900    -0.1393200     2.0793360
  H        0.8654370     2.0434980    -0.0001730
  H        1.1935250    -2.2508840     0.0001950
  H        3.3333780     2.2368900    -0.0001920
  H        3.6871730    -2.0528130     0.0001780
  H        4.7470650     0.1949390    -0.0000240
units angstrom
no_reorient  #important for SAPT in psi4, default
symmetry c1  #important for SAPT in psi4, default
}

set PROPERTIES_ORIGIN ["COM"]
properties('MP2/aug-cc-pvtz', properties = ['dipole'])
--------------------------------------------------------------------------

    Molecular point group: c1
  Charge       = 1
  Multiplicity = 1
  Basis Set: AUG-CC-PVTZ
    Blend: AUG-CC-PVTZ
  Basis Set: (AUG-CC-PVTZ AUX)
    Blend: AUG-CC-PVTZ-JKFIT

    Orbital Energies [Eh]
    ---------------------

    Doubly Occupied:

       1A    -15.862876     2A    -15.705149     3A    -11.457233
       4A    -11.457223     5A    -11.417653     6A    -11.417638
       7A    -11.379251     8A    -11.344366     9A    -11.339029
      10A    -11.338882    11A    -11.336622    12A    -11.333632
      13A     -1.504830    14A     -1.391065    15A     -1.249956
      16A     -1.222139    17A     -1.156744    18A     -1.119543
      19A     -1.088415    20A     -1.053603    21A     -1.003611
      22A     -0.940946    23A     -0.928336    24A     -0.923985
      25A     -0.872459    26A     -0.824243    27A     -0.819223
      28A     -0.793748    29A     -0.788472    30A     -0.769246
      31A     -0.739546    32A     -0.735843    33A     -0.717574
      34A     -0.706635    35A     -0.688859    36A     -0.688428
      37A     -0.660743    38A     -0.660470    39A     -0.607345
      40A     -0.602113    41A     -0.601736    42A     -0.520704
      43A     -0.440257    44A     -0.438349

  @DF-RHF Final Energy:  -496.26074779286319

   => Energetics <=

    Nuclear Repulsion Energy =            706.9451376694452165
    One-Electron Energy =               -2061.1143275505014572
    Two-Electron Energy =                 857.9084420881931692
    Total Energy =                       -496.2607477928631852
  Basis Set: (AUG-CC-PVTZ AUX)
    Blend: AUG-CC-PVTZ-RI
    Molecular point group: c1

    Geometry (in Angstrom), charge = 1, multiplicity = 1:

       Center              X                  Y                   Z               Mass
    ------------   -----------------  -----------------  -----------------  -----------------
         N           -3.383883666710     0.202196888992    -0.000020721038    14.003074004430
         N           -0.605113666710    -0.286904111008     0.000029278962    14.003074004430
         C           -2.672861666710    -0.245744111008    -1.257345721038    12.000000000000
         C           -2.672864666710    -0.245510111008     1.257390278962    12.000000000000
         C           -1.237960666710     0.245770888992    -1.200386721038    12.000000000000
         C           -1.237965666710     0.245999888992     1.200338278962    12.000000000000
         C            0.832591333290    -0.118446111008     0.000011278962    12.000000000000
         C            1.422401333290     1.151258888992    -0.000095721038    12.000000000000
         C            1.622533333290    -1.269866111008     0.000112278962    12.000000000000
         C            2.814008333290     1.261989888992    -0.000109721038    12.000000000000
         C            3.013276333290    -1.151215111008     0.000097278962    12.000000000000
         C            3.608736333290     0.112770888992    -0.000009721038    12.000000000000
         H           -3.438048466710     1.180799288992    -0.000110121038     1.007825032230
         H           -4.354360666710    -0.140012111008     0.000009278962     1.007825032230
         H           -3.226894666710     0.155788888992    -2.109599721038     1.007825032230
         H           -2.710165666710    -1.336479111008    -1.264906721038     1.007825032230
         H           -2.710164666710    -1.336243111008     1.265151278962     1.007825032230
         H           -3.226900666710     0.156179888992     2.109567278962     1.007825032230
         H           -0.707701666710    -0.131740111008    -2.079307721038     1.007825032230
         H           -1.216781666710     1.351440888992    -1.252806721038     1.007825032230
         H           -1.216794666710     1.351680888992     1.252547278962     1.007825032230
         H           -0.707705666710    -0.131335111008     2.079335278962     1.007825032230
         H            0.809921333290     2.051482888992    -0.000173721038     1.007825032230
         H            1.138009333290    -2.242899111008     0.000194278962     1.007825032230
         H            3.277862333290     2.244874888992    -0.000192721038     1.007825032230
         H            3.631657333290    -2.044828111008     0.000177278962     1.007825032230
         H            4.691549333290     0.202923888992    -0.000024721038     1.007825032230

  Basis Set: AUG-CC-PVTZ
    Blend: AUG-CC-PVTZ
  Basis Set: (AUG-CC-PVTZ AUX)
    Blend: AUG-CC-PVTZ-JKFIT
	 Reference Energy          =    -496.2607477928631852 [Eh]
	 Singles Energy            =      -0.0000000000000000 [Eh]
	 Same-Spin Energy          =      -0.5391057149467473 [Eh]
	 Opposite-Spin Energy      =      -1.7575037685508006 [Eh]
	 Correlation Energy        =      -2.2966094834975479 [Eh]
	 Total Energy              =    -498.5573572763607331 [Eh]

	 ================> DF-SCS-MP2 Energies <==================
	-----------------------------------------------------------
	 SCS Same-Spin Scale       =       0.3333333333333333 [-]
	 SCS Opposite-Spin Scale   =       1.2000000000000000 [-]
	 SCS Same-Spin Energy      =      -0.1797019049822491 [Eh]
	 SCS Opposite-Spin Energy  =      -2.1090045222609608 [Eh]
	 SCS Correlation Energy    =      -2.2887064272432101 [Eh]
	 SCS Total Energy          =    -498.5494542201063837 [Eh]
	-----------------------------------------------------------

  Dipole Moment: [D]
     X:   -11.4716      Y:     1.0400      Z:    -0.0001     Total:    11.5187

*** Psi4 exiting successfully. Buy a developer a beer!
