                               Psi4 1.3.2 release

  ==> Input File <==

--------------------------------------------------------------------------
#psi4
#
memory 32 gb

molecule  {
1 1
  N       -3.3283680     0.1942120    -0.0000200
  N       -0.5495980    -0.2948890     0.0000300
  C       -2.6173460    -0.2537290    -1.2573450
  C       -2.6173490    -0.2534950     1.2573910
  C       -1.1824450     0.2377860    -1.2003860
  C       -1.1824500     0.2380150     1.2003390
  C        0.8881070    -0.1264310     0.0000120
  C        1.4779170     1.1432740    -0.0000950
  C        1.6780490    -1.2778510     0.0001130
  C        2.8695240     1.2540050    -0.0001090
  C        3.0687920    -1.1592000     0.0000980
  C        3.6642520     0.1047860    -0.0000090
  H       -3.4569037     1.2162615    -0.0001135
  H       -4.2988450    -0.1479970     0.0000100
  H       -3.1713790     0.1478040    -2.1095990
  H       -2.6546500    -1.3444640    -1.2649060
  H       -2.6546490    -1.3442280     1.2651520
  H       -3.1713850     0.1481950     2.1095680
  H       -0.6521860    -0.1397250    -2.0793070
  H       -1.1612660     1.3434560    -1.2528060
  H       -1.1612790     1.3436960     1.2525480
  H       -0.6521900    -0.1393200     2.0793360
  H        0.8654370     2.0434980    -0.0001730
  H        1.1935250    -2.2508840     0.0001950
  H        3.3333780     2.2368900    -0.0001920
  H        3.6871730    -2.0528130     0.0001780
  H        4.7470650     0.1949390    -0.0000240
units angstrom
no_reorient  #important for SAPT in psi4, default
symmetry c1  #important for SAPT in psi4, default
}

set PROPERTIES_ORIGIN ["COM"]
properties('MP2/aug-cc-pvtz', properties = ['dipole'])
--------------------------------------------------------------------------

    Molecular point group: c1
  Charge       = 1
  Multiplicity = 1
  Basis Set: AUG-CC-PVTZ
    Blend: AUG-CC-PVTZ
  Basis Set: (AUG-CC-PVTZ AUX)
    Blend: AUG-CC-PVTZ-JKFIT

    Orbital Energies [Eh]
    ---------------------

    Doubly Occupied:

       1A    -15.866655     2A    -15.704485     3A    -11.457091
       4A    -11.457080     5A    -11.416808     6A    -11.416793
       7A    -11.378844     8A    -11.343973     9A    -11.338692
      10A    -11.338513    11A    -11.336289    12A    -11.333297
      13A     -1.497337    14A     -1.389835    15A     -1.249484
      16A     -1.221287    17A     -1.155592    18A     -1.119180
      19A     -1.087234    20A     -1.052848    21A     -0.995533
      22A     -0.936720    23A     -0.924701    24A     -0.923487
      25A     -0.870596    26A     -0.823152    27A     -0.819034
      28A     -0.792427    29A     -0.787779    30A     -0.769059
      31A     -0.738126    32A     -0.735200    33A     -0.716892
      34A     -0.705743    35A     -0.688444    36A     -0.687798
      37A     -0.659947    38A     -0.659873    39A     -0.606965
      40A     -0.601713    41A     -0.601353    42A     -0.520040
      43A     -0.439905    44A     -0.437971

  @DF-RHF Final Energy:  -496.26040119493302

   => Energetics <=

    Nuclear Repulsion Energy =            706.4986232810095999
    One-Electron Energy =               -2060.3104950505103261
    Two-Electron Energy =                 857.5514705745675883
    Total Energy =                       -496.2604011949330243
  Basis Set: (AUG-CC-PVTZ AUX)
    Blend: AUG-CC-PVTZ-RI
    Molecular point group: c1

    Geometry (in Angstrom), charge = 1, multiplicity = 1:

       Center              X                  Y                   Z               Mass
    ------------   -----------------  -----------------  -----------------  -----------------
         N           -3.383424181449     0.201928460049    -0.000020695707    14.003074004430
         N           -0.604654181449    -0.287172539951     0.000029304293    14.003074004430
         C           -2.672402181449    -0.246012539951    -1.257345695707    12.000000000000
         C           -2.672405181449    -0.245778539951     1.257390304293    12.000000000000
         C           -1.237501181449     0.245502460049    -1.200386695707    12.000000000000
         C           -1.237506181449     0.245731460049     1.200338304293    12.000000000000
         C            0.833050818551    -0.118714539951     0.000011304293    12.000000000000
         C            1.422860818551     1.150990460049    -0.000095695707    12.000000000000
         C            1.622992818551    -1.270134539951     0.000112304293    12.000000000000
         C            2.814467818551     1.261721460049    -0.000109695707    12.000000000000
         C            3.013735818551    -1.151483539951     0.000097304293    12.000000000000
         C            3.609195818551     0.112502460049    -0.000009695707    12.000000000000
         H           -3.511959881449     1.223977960049    -0.000114195707     1.007825032230
         H           -4.353901181449    -0.140280539951     0.000009304293     1.007825032230
         H           -3.226435181449     0.155520460049    -2.109599695707     1.007825032230
         H           -2.709706181449    -1.336747539951    -1.264906695707     1.007825032230
         H           -2.709705181449    -1.336511539951     1.265151304293     1.007825032230
         H           -3.226441181449     0.155911460049     2.109567304293     1.007825032230
         H           -0.707242181449    -0.132008539951    -2.079307695707     1.007825032230
         H           -1.216322181449     1.351172460049    -1.252806695707     1.007825032230
         H           -1.216335181449     1.351412460049     1.252547304293     1.007825032230
         H           -0.707246181449    -0.131603539951     2.079335304293     1.007825032230
         H            0.810380818551     2.051214460049    -0.000173695707     1.007825032230
         H            1.138468818551    -2.243167539951     0.000194304293     1.007825032230
         H            3.278321818551     2.244606460049    -0.000192695707     1.007825032230
         H            3.632116818551    -2.045096539951     0.000177304293     1.007825032230
         H            4.692008818551     0.202655460049    -0.000024695707     1.007825032230

  Basis Set: AUG-CC-PVTZ
    Blend: AUG-CC-PVTZ
  Basis Set: (AUG-CC-PVTZ AUX)
    Blend: AUG-CC-PVTZ-JKFIT
	 Reference Energy          =    -496.2604011949330243 [Eh]
	 Singles Energy            =      -0.0000000000000000 [Eh]
	 Same-Spin Energy          =      -0.5393747519051646 [Eh]
	 Opposite-Spin Energy      =      -1.7583161831564373 [Eh]
	 Correlation Energy        =      -2.2976909350616017 [Eh]
	 Total Energy              =    -498.5580921299946340 [Eh]

	 ================> DF-SCS-MP2 Energies <==================
	-----------------------------------------------------------
	 SCS Same-Spin Scale       =       0.3333333333333333 [-]
	 SCS Opposite-Spin Scale   =       1.2000000000000000 [-]
	 SCS Same-Spin Energy      =      -0.1797915839683882 [Eh]
	 SCS Opposite-Spin Energy  =      -2.1099794197877246 [Eh]
	 SCS Correlation Energy    =      -2.2897710037561128 [Eh]
	 SCS Total Energy          =    -498.5501721986891539 [Eh]
	-----------------------------------------------------------

  Dipole Moment: [D]
     X:   -11.5707      Y:     1.1017      Z:    -0.0001     Total:    11.6230

*** Psi4 exiting successfully. Buy a developer a beer!
