                               Psi4 1.3.2 release

  ==> Input File <==

--------------------------------------------------------------------------
#psi4
#
memory 32 gb

molecule  {
1 1
  N       -3.3283680     0.1942120    -0.0000200
  N       -0.5343448    -0.3947679     0.0000382
  C       -2.6173460    -0.2537290    -1.2573450
  C       -2.6173490    -0.2534950     1.2573910
  C       -1.1824450     0.2377860    -1.2003860
  C       -1.1824500     0.2380150     1.2003390
  C        0.8881070    -0.1264310     0.0000120
  C        1.4779170     1.1432740    -0.0000950
  C        1.6780490    -1.2778510     0.0001130
  C        2.8695240     1.2540050    -0.0001090
  C        3.0687920    -1.1592000     0.0000980
  C        3.6642520     0.1047860    -0.0000090
  H       -3.3852960     1.2227380    -0.0001140
  H       -4.2988450    -0.1479970     0.0000100
  H       -3.1713790     0.1478040    -2.1095990
  H       -2.6546500    -1.3444640    -1.2649060
  H       -2.6546490    -1.3442280     1.2651520
  H       -3.1713850     0.1481950     2.1095680
  H       -0.6521860    -0.1397250    -2.0793070
  H       -1.1612660     1.3434560    -1.2528060
  H       -1.1612790     1.3436960     1.2525480
  H       -0.6521900    -0.1393200     2.0793360
  H        0.8654370     2.0434980    -0.0001730
  H        1.1935250    -2.2508840     0.0001950
  H        3.3333780     2.2368900    -0.0001920
  H        3.6871730    -2.0528130     0.0001780
  H        4.7470650     0.1949390    -0.0000240
units angstrom
no_reorient  #important for SAPT in psi4, default
symmetry c1  #important for SAPT in psi4, default
}

set PROPERTIES_ORIGIN ["COM"]
properties('MP2/aug-cc-pvtz', properties = ['dipole'])
--------------------------------------------------------------------------

    Molecular point group: c1
  Charge       = 1
  Multiplicity = 1
  Basis Set: AUG-CC-PVTZ
    Blend: AUG-CC-PVTZ
  Basis Set: (AUG-CC-PVTZ AUX)
    Blend: AUG-CC-PVTZ-JKFIT

    Orbital Energies [Eh]
    ---------------------

    Doubly Occupied:

       1A    -15.866848     2A    -15.716073     3A    -11.457128
       4A    -11.457117     5A    -11.419261     6A    -11.419248
       7A    -11.378188     8A    -11.345661     9A    -11.339513
      10A    -11.336402    11A    -11.335147    12A    -11.332694
      13A     -1.497006    14A     -1.379462    15A     -1.247951
      16A     -1.219922    17A     -1.155822    18A     -1.119064
      19A     -1.083961    20A     -1.046870    21A     -1.000107
      22A     -0.939750    23A     -0.926463    24A     -0.920301
      25A     -0.871358    26A     -0.824476    27A     -0.817098
      28A     -0.785714    29A     -0.780291    30A     -0.765513
      31A     -0.738440    32A     -0.735010    33A     -0.716734
      34A     -0.705353    35A     -0.690115    36A     -0.688075
      37A     -0.658763    38A     -0.648410    39A     -0.607905
      40A     -0.599573    41A     -0.598322    42A     -0.537067
      43A     -0.439890    44A     -0.436310

  @DF-RHF Final Energy:  -496.25220004054654

   => Energetics <=

    Nuclear Repulsion Energy =            705.3956327338781875
    One-Electron Energy =               -2058.1269152493518959
    Two-Electron Energy =                 856.4790824749270541
    Total Energy =                       -496.2522000405465405
  Basis Set: (AUG-CC-PVTZ AUX)
    Blend: AUG-CC-PVTZ-RI
    Molecular point group: c1

    Geometry (in Angstrom), charge = 1, multiplicity = 1:

       Center              X                  Y                   Z               Mass
    ------------   -----------------  -----------------  -----------------  -----------------
         N           -3.385175981035     0.210462388323    -0.000021396533    14.003074004430
         N           -0.591152781036    -0.378517511677     0.000036803467    14.003074004430
         C           -2.674153981035    -0.237478611677    -1.257346396533    12.000000000000
         C           -2.674156981035    -0.237244611677     1.257389603467    12.000000000000
         C           -1.239252981036     0.254036388323    -1.200387396533    12.000000000000
         C           -1.239257981036     0.254265388323     1.200337603467    12.000000000000
         C            0.831299018964    -0.110180611677     0.000010603467    12.000000000000
         C            1.421109018964     1.159524388323    -0.000096396533    12.000000000000
         C            1.621241018964    -1.261600611677     0.000111603467    12.000000000000
         C            2.812716018965     1.270255388323    -0.000110396533    12.000000000000
         C            3.011984018965    -1.142949611677     0.000096603467    12.000000000000
         C            3.607444018965     0.121036388323    -0.000010396533    12.000000000000
         H           -3.442103981035     1.238988388323    -0.000115396533     1.007825032230
         H           -4.355652981035    -0.131746611677     0.000008603467     1.007825032230
         H           -3.228186981035     0.164054388323    -2.109600396533     1.007825032230
         H           -2.711457981036    -1.328213611677    -1.264907396533     1.007825032230
         H           -2.711456981036    -1.327977611677     1.265150603467     1.007825032230
         H           -3.228192981035     0.164445388323     2.109566603467     1.007825032230
         H           -0.708993981036    -0.123474611677    -2.079308396533     1.007825032230
         H           -1.218073981036     1.359706388323    -1.252807396533     1.007825032230
         H           -1.218086981036     1.359946388323     1.252546603467     1.007825032230
         H           -0.708997981036    -0.123069611677     2.079334603467     1.007825032230
         H            0.808629018964     2.059748388323    -0.000174396533     1.007825032230
         H            1.136717018964    -2.234633611677     0.000193603467     1.007825032230
         H            3.276570018965     2.253140388323    -0.000193396533     1.007825032230
         H            3.630365018965    -2.036562611677     0.000176603467     1.007825032230
         H            4.690257018965     0.211189388323    -0.000025396533     1.007825032230

  Basis Set: AUG-CC-PVTZ
    Blend: AUG-CC-PVTZ
  Basis Set: (AUG-CC-PVTZ AUX)
    Blend: AUG-CC-PVTZ-JKFIT
	 Reference Energy          =    -496.2522000405465405 [Eh]
	 Singles Energy            =      -0.0000000000000000 [Eh]
	 Same-Spin Energy          =      -0.5400008581914868 [Eh]
	 Opposite-Spin Energy      =      -1.7607945137007484 [Eh]
	 Correlation Energy        =      -2.3007953718922352 [Eh]
	 Total Energy              =    -498.5529954124388041 [Eh]

	 ================> DF-SCS-MP2 Energies <==================
	-----------------------------------------------------------
	 SCS Same-Spin Scale       =       0.3333333333333333 [-]
	 SCS Opposite-Spin Scale   =       1.2000000000000000 [-]
	 SCS Same-Spin Energy      =      -0.1800002860638289 [Eh]
	 SCS Opposite-Spin Energy  =      -2.1129534164408978 [Eh]
	 SCS Correlation Energy    =      -2.2929537025047266 [Eh]
	 SCS Total Energy          =    -498.5451537430512872 [Eh]
	-----------------------------------------------------------

  Dipole Moment: [D]
     X:   -11.5753      Y:     1.3428      Z:    -0.0001     Total:    11.6529

*** Psi4 exiting successfully. Buy a developer a beer!
