                               Psi4 1.3.2 release

  ==> Input File <==

--------------------------------------------------------------------------
#psi4
#
memory 32 gb

molecule  {
1 1
  N       -3.3283680     0.1942120    -0.0000200
  N       -0.5495980    -0.2948890     0.0000300
  C       -2.6173460    -0.2537290    -1.2573450
  C       -2.6173490    -0.2534950     1.2573910
  C       -1.1500123     0.2104786    -1.2285231
  C       -1.1824500     0.2380150     1.2003390
  C        0.8881070    -0.1264310     0.0000120
  C        1.4779170     1.1432740    -0.0000950
  C        1.6780490    -1.2778510     0.0001130
  C        2.8695240     1.2540050    -0.0001090
  C        3.0687920    -1.1592000     0.0000980
  C        3.6642520     0.1047860    -0.0000090
  H       -3.3852960     1.2227380    -0.0001140
  H       -4.2988450    -0.1479970     0.0000100
  H       -3.1713790     0.1478040    -2.1095990
  H       -2.6546500    -1.3444640    -1.2649060
  H       -2.6546490    -1.3442280     1.2651520
  H       -3.1713850     0.1481950     2.1095680
  H       -0.6521860    -0.1397250    -2.0793070
  H       -1.1612660     1.3434560    -1.2528060
  H       -1.1612790     1.3436960     1.2525480
  H       -0.6521900    -0.1393200     2.0793360
  H        0.8654370     2.0434980    -0.0001730
  H        1.1935250    -2.2508840     0.0001950
  H        3.3333780     2.2368900    -0.0001920
  H        3.6871730    -2.0528130     0.0001780
  H        4.7470650     0.1949390    -0.0000240
units angstrom
no_reorient  #important for SAPT in psi4, default
symmetry c1  #important for SAPT in psi4, default
}

set PROPERTIES_ORIGIN ["COM"]
properties('MP2/aug-cc-pvtz', properties = ['dipole'])
--------------------------------------------------------------------------

    Molecular point group: c1
  Charge       = 1
  Multiplicity = 1
  Basis Set: AUG-CC-PVTZ
    Blend: AUG-CC-PVTZ
  Basis Set: (AUG-CC-PVTZ AUX)
    Blend: AUG-CC-PVTZ-JKFIT

    Orbital Energies [Eh]
    ---------------------

    Doubly Occupied:

       1A    -15.867748     2A    -15.704874     3A    -11.457099
       4A    -11.456590     5A    -11.418638     6A    -11.418506
       7A    -11.378701     8A    -11.344023     9A    -11.338814
      10A    -11.338526    11A    -11.336389    12A    -11.333380
      13A     -1.497053    14A     -1.389966    15A     -1.249280
      16A     -1.220384    17A     -1.153334    18A     -1.119282
      19A     -1.085929    20A     -1.056230    21A     -0.996171
      22A     -0.938773    23A     -0.928658    24A     -0.923154
      25A     -0.868973    26A     -0.822041    27A     -0.816758
      28A     -0.796829    29A     -0.788222    30A     -0.770135
      31A     -0.737919    32A     -0.735129    33A     -0.717322
      34A     -0.704751    35A     -0.688708    36A     -0.683620
      37A     -0.670962    38A     -0.657979    39A     -0.606790
      40A     -0.601904    41A     -0.601039    42A     -0.518260
      43A     -0.440028    44A     -0.438071

  @DF-RHF Final Energy:  -496.25828737896558

   => Energetics <=

    Nuclear Repulsion Energy =            706.3358504356081085
    One-Electron Energy =               -2059.9543905654900300
    Two-Electron Energy =                 857.3602527509164020
    Total Energy =                       -496.2582873789655196
  Basis Set: (AUG-CC-PVTZ AUX)
    Blend: AUG-CC-PVTZ-RI
    Molecular point group: c1

    Geometry (in Angstrom), charge = 1, multiplicity = 1:

       Center              X                  Y                   Z               Mass
    ------------   -----------------  -----------------  -----------------  -----------------
         N           -3.386252470237     0.203897284743     0.002049181750    14.003074004430
         N           -0.607482470237    -0.285203715257     0.002099181750    14.003074004430
         C           -2.675230470237    -0.244043715257    -1.255275818250    12.000000000000
         C           -2.675233470237    -0.243809715257     1.259460181750    12.000000000000
         C           -1.207896770237     0.220163884743    -1.226453918250    12.000000000000
         C           -1.240334470237     0.247700284743     1.202408181750    12.000000000000
         C            0.830222529763    -0.116745715257     0.002081181750    12.000000000000
         C            1.420032529763     1.152959284743     0.001974181750    12.000000000000
         C            1.620164529763    -1.268165715257     0.002182181750    12.000000000000
         C            2.811639529763     1.263690284743     0.001960181750    12.000000000000
         C            3.010907529763    -1.149514715257     0.002167181750    12.000000000000
         C            3.606367529763     0.114471284743     0.002060181750    12.000000000000
         H           -3.443180470237     1.232423284743     0.001955181750     1.007825032230
         H           -4.356729470237    -0.138311715257     0.002079181750     1.007825032230
         H           -3.229263470237     0.157489284743    -2.107529818250     1.007825032230
         H           -2.712534470237    -1.334778715257    -1.262836818250     1.007825032230
         H           -2.712533470237    -1.334542715257     1.267221181750     1.007825032230
         H           -3.229269470237     0.157880284743     2.111637181750     1.007825032230
         H           -0.710070470237    -0.130039715257    -2.077237818250     1.007825032230
         H           -1.219150470237     1.353141284743    -1.250736818250     1.007825032230
         H           -1.219163470237     1.353381284743     1.254617181750     1.007825032230
         H           -0.710074470237    -0.129634715257     2.081405181750     1.007825032230
         H            0.807552529763     2.053183284743     0.001896181750     1.007825032230
         H            1.135640529763    -2.241198715257     0.002264181750     1.007825032230
         H            3.275493529763     2.246575284743     0.001877181750     1.007825032230
         H            3.629288529763    -2.043127715257     0.002247181750     1.007825032230
         H            4.689180529763     0.204624284743     0.002045181750     1.007825032230

  Basis Set: AUG-CC-PVTZ
    Blend: AUG-CC-PVTZ
  Basis Set: (AUG-CC-PVTZ AUX)
    Blend: AUG-CC-PVTZ-JKFIT
	 Reference Energy          =    -496.2582873789655764 [Eh]
	 Singles Energy            =      -0.0000000000000000 [Eh]
	 Same-Spin Energy          =      -0.5392317232675150 [Eh]
	 Opposite-Spin Energy      =      -1.7582683761996065 [Eh]
	 Correlation Energy        =      -2.2975000994671215 [Eh]
	 Total Energy              =    -498.5557874784327055 [Eh]

	 ================> DF-SCS-MP2 Energies <==================
	-----------------------------------------------------------
	 SCS Same-Spin Scale       =       0.3333333333333333 [-]
	 SCS Opposite-Spin Scale   =       1.2000000000000000 [-]
	 SCS Same-Spin Energy      =      -0.1797439077558383 [Eh]
	 SCS Opposite-Spin Energy  =      -2.1099220514395278 [Eh]
	 SCS Correlation Energy    =      -2.2896659591953661 [Eh]
	 SCS Total Energy          =    -498.5479533381609372 [Eh]
	-----------------------------------------------------------

  Dipole Moment: [D]
     X:   -11.4935      Y:     1.0716      Z:     0.0241     Total:    11.5434

*** Psi4 exiting successfully. Buy a developer a beer!
