                               Psi4 1.3.2 release

  ==> Input File <==

--------------------------------------------------------------------------
#psi4
#
memory 32 gb

molecule  {
1 1
  N       -3.3283680     0.1942120    -0.0000200
  N       -0.5495980    -0.2948890     0.0000300
  C       -2.6173460    -0.2537290    -1.2573450
  C       -2.6173490    -0.2534950     1.2573910
  C       -1.1595817     0.2448394    -1.2090398
  C       -1.1824500     0.2380150     1.2003390
  C        0.8881070    -0.1264310     0.0000120
  C        1.4779170     1.1432740    -0.0000950
  C        1.6780490    -1.2778510     0.0001130
  C        2.8695240     1.2540050    -0.0001090
  C        3.0687920    -1.1592000     0.0000980
  C        3.6642520     0.1047860    -0.0000090
  H       -3.3852960     1.2227380    -0.0001140
  H       -4.2988450    -0.1479970     0.0000100
  H       -3.1713790     0.1478040    -2.1095990
  H       -2.6546500    -1.3444640    -1.2649060
  H       -2.6546490    -1.3442280     1.2651520
  H       -3.1713850     0.1481950     2.1095680
  H       -0.6521860    -0.1397250    -2.0793070
  H       -1.1612660     1.3434560    -1.2528060
  H       -1.1612790     1.3436960     1.2525480
  H       -0.6521900    -0.1393200     2.0793360
  H        0.8654370     2.0434980    -0.0001730
  H        1.1935250    -2.2508840     0.0001950
  H        3.3333780     2.2368900    -0.0001920
  H        3.6871730    -2.0528130     0.0001780
  H        4.7470650     0.1949390    -0.0000240
units angstrom
no_reorient  #important for SAPT in psi4, default
symmetry c1  #important for SAPT in psi4, default
}

set PROPERTIES_ORIGIN ["COM"]
properties('MP2/aug-cc-pvtz', properties = ['dipole'])
--------------------------------------------------------------------------

    Molecular point group: c1
  Charge       = 1
  Multiplicity = 1
  Basis Set: AUG-CC-PVTZ
    Blend: AUG-CC-PVTZ
  Basis Set: (AUG-CC-PVTZ AUX)
    Blend: AUG-CC-PVTZ-JKFIT

    Orbital Energies [Eh]
    ---------------------

    Doubly Occupied:

       1A    -15.866722     2A    -15.705161     3A    -11.456748
       4A    -11.456570     5A    -11.417876     6A    -11.417336
       7A    -11.378886     8A    -11.344207     9A    -11.338980
      10A    -11.338636    11A    -11.336514    12A    -11.333446
      13A     -1.496782    14A     -1.390377    15A     -1.249439
      16A     -1.219517    17A     -1.153047    18A     -1.119423
      19A     -1.085862    20A     -1.054648    21A     -0.997274
      22A     -0.938801    23A     -0.927445    24A     -0.922918
      25A     -0.869604    26A     -0.822842    27A     -0.817786
      28A     -0.794278    29A     -0.787570    30A     -0.769152
      31A     -0.738076    32A     -0.733012    33A     -0.716777
      34A     -0.706124    35A     -0.688732    36A     -0.688687
      37A     -0.664809    38A     -0.657674    39A     -0.607290
      40A     -0.601913    41A     -0.600968    42A     -0.521190
      43A     -0.440162    44A     -0.438077

  @DF-RHF Final Energy:  -496.26045756092316

   => Energetics <=

    Nuclear Repulsion Energy =            706.4744857792501307
    One-Electron Energy =               -2060.2472060937584502
    Two-Electron Energy =                 857.5122627535849915
    Total Energy =                       -496.2604575609232143
  Basis Set: (AUG-CC-PVTZ AUX)
    Blend: AUG-CC-PVTZ-RI
    Molecular point group: c1

    Geometry (in Angstrom), charge = 1, multiplicity = 1:

       Center              X                  Y                   Z               Mass
    ------------   -----------------  -----------------  -----------------  -----------------
         N           -3.385548508003     0.201369570829     0.000615914524    14.003074004430
         N           -0.606778508003    -0.287731429171     0.000665914524    14.003074004430
         C           -2.674526508003    -0.246571429171    -1.256709085476    12.000000000000
         C           -2.674529508003    -0.246337429171     1.258026914524    12.000000000000
         C           -1.216762208003     0.251996970829    -1.208403885476    12.000000000000
         C           -1.239630508003     0.245172570829     1.200974914524    12.000000000000
         C            0.830926491997    -0.119273429171     0.000647914524    12.000000000000
         C            1.420736491997     1.150431570829     0.000540914524    12.000000000000
         C            1.620868491997    -1.270693429171     0.000748914524    12.000000000000
         C            2.812343491997     1.261162570829     0.000526914524    12.000000000000
         C            3.011611491997    -1.152042429171     0.000733914524    12.000000000000
         C            3.607071491997     0.111943570829     0.000626914524    12.000000000000
         H           -3.442476508003     1.229895570829     0.000521914524     1.007825032230
         H           -4.356025508003    -0.140839429171     0.000645914524     1.007825032230
         H           -3.228559508003     0.154961570829    -2.108963085476     1.007825032230
         H           -2.711830508003    -1.337306429171    -1.264270085476     1.007825032230
         H           -2.711829508003    -1.337070429171     1.265787914524     1.007825032230
         H           -3.228565508003     0.155352570829     2.110203914524     1.007825032230
         H           -0.709366508003    -0.132567429171    -2.078671085476     1.007825032230
         H           -1.218446508003     1.350613570829    -1.252170085476     1.007825032230
         H           -1.218459508003     1.350853570829     1.253183914524     1.007825032230
         H           -0.709370508003    -0.132162429171     2.079971914524     1.007825032230
         H            0.808256491997     2.050655570829     0.000462914524     1.007825032230
         H            1.136344491997    -2.243726429171     0.000830914524     1.007825032230
         H            3.276197491997     2.244047570829     0.000443914524     1.007825032230
         H            3.629992491997    -2.045655429171     0.000813914524     1.007825032230
         H            4.689884491997     0.202096570829     0.000611914524     1.007825032230

  Basis Set: AUG-CC-PVTZ
    Blend: AUG-CC-PVTZ
  Basis Set: (AUG-CC-PVTZ AUX)
    Blend: AUG-CC-PVTZ-JKFIT
	 Reference Energy          =    -496.2604575609231574 [Eh]
	 Singles Energy            =      -0.0000000000000000 [Eh]
	 Same-Spin Energy          =      -0.5392756446635493 [Eh]
	 Opposite-Spin Energy      =      -1.7583402255492246 [Eh]
	 Correlation Energy        =      -2.2976158702127738 [Eh]
	 Total Energy              =    -498.5580734311359379 [Eh]

	 ================> DF-SCS-MP2 Energies <==================
	-----------------------------------------------------------
	 SCS Same-Spin Scale       =       0.3333333333333333 [-]
	 SCS Opposite-Spin Scale   =       1.2000000000000000 [-]
	 SCS Same-Spin Energy      =      -0.1797585482211831 [Eh]
	 SCS Opposite-Spin Energy  =      -2.1100082706590695 [Eh]
	 SCS Correlation Energy    =      -2.2897668188802527 [Eh]
	 SCS Total Energy          =    -498.5502243798034101 [Eh]
	-----------------------------------------------------------

  Dipole Moment: [D]
     X:   -11.4838      Y:     1.1023      Z:     0.0116     Total:    11.5366

*** Psi4 exiting successfully. Buy a developer a beer!
