                               Psi4 1.3.2 release

  ==> Input File <==

--------------------------------------------------------------------------
#psi4
#
memory 32 gb

molecule  {
1 1
  N       -3.3283680     0.1942120    -0.0000200
  N       -0.5495980    -0.2948890     0.0000300
  C       -2.6643617    -0.2241093    -1.1742054
  C       -2.6173490    -0.2534950     1.2573910
  C       -1.1824450     0.2377860    -1.2003860
  C       -1.1824500     0.2380150     1.2003390
  C        0.8881070    -0.1264310     0.0000120
  C        1.4779170     1.1432740    -0.0000950
  C        1.6780490    -1.2778510     0.0001130
  C        2.8695240     1.2540050    -0.0001090
  C        3.0687920    -1.1592000     0.0000980
  C        3.6642520     0.1047860    -0.0000090
  H       -3.3852960     1.2227380    -0.0001140
  H       -4.2988450    -0.1479970     0.0000100
  H       -3.1713790     0.1478040    -2.1095990
  H       -2.6546500    -1.3444640    -1.2649060
  H       -2.6546490    -1.3442280     1.2651520
  H       -3.1713850     0.1481950     2.1095680
  H       -0.6521860    -0.1397250    -2.0793070
  H       -1.1612660     1.3434560    -1.2528060
  H       -1.1612790     1.3436960     1.2525480
  H       -0.6521900    -0.1393200     2.0793360
  H        0.8654370     2.0434980    -0.0001730
  H        1.1935250    -2.2508840     0.0001950
  H        3.3333780     2.2368900    -0.0001920
  H        3.6871730    -2.0528130     0.0001780
  H        4.7470650     0.1949390    -0.0000240
units angstrom
no_reorient  #important for SAPT in psi4, default
symmetry c1  #important for SAPT in psi4, default
}

set PROPERTIES_ORIGIN ["COM"]
properties('MP2/aug-cc-pvtz', properties = ['dipole'])
--------------------------------------------------------------------------

    Molecular point group: c1
  Charge       = 1
  Multiplicity = 1
  Basis Set: AUG-CC-PVTZ
    Blend: AUG-CC-PVTZ
  Basis Set: (AUG-CC-PVTZ AUX)
    Blend: AUG-CC-PVTZ-JKFIT

    Orbital Energies [Eh]
    ---------------------

    Doubly Occupied:

       1A    -15.874535     2A    -15.703776     3A    -11.460340
       4A    -11.452905     5A    -11.418931     6A    -11.418081
       7A    -11.378484     8A    -11.343896     9A    -11.338636
      10A    -11.338391    11A    -11.336208    12A    -11.333239
      13A     -1.523204    14A     -1.390799    15A     -1.249436
      16A     -1.221307    17A     -1.152111    18A     -1.119090
      19A     -1.085277    20A     -1.059286    21A     -1.003462
      22A     -0.946628    23A     -0.932988    24A     -0.924034
      25A     -0.873880    26A     -0.831884    27A     -0.820347
      28A     -0.793305    29A     -0.788213    30A     -0.770293
      31A     -0.735951    32A     -0.728165    33A     -0.715760
      34A     -0.703948    35A     -0.688781    36A     -0.676901
      37A     -0.665582    38A     -0.652737    39A     -0.606833
      40A     -0.601626    41A     -0.599920    42A     -0.518949
      43A     -0.439829    44A     -0.437818

  @DF-RHF Final Energy:  -496.25165332221013

   => Energetics <=

    Nuclear Repulsion Energy =            707.6621889442307065
    One-Electron Energy =               -2062.5161561554186846
    Two-Electron Energy =                 858.6023138889777329
    Total Energy =                       -496.2516533222101316
  Basis Set: (AUG-CC-PVTZ AUX)
    Blend: AUG-CC-PVTZ-RI
    Molecular point group: c1

    Geometry (in Angstrom), charge = 1, multiplicity = 1:

       Center              X                  Y                   Z               Mass
    ------------   -----------------  -----------------  -----------------  -----------------
         N           -3.380407937336     0.199709506148    -0.006136764528    14.003074004430
         N           -0.601637937336    -0.289391493852    -0.006086764528    14.003074004430
         C           -2.716401637336    -0.218611793852    -1.180322164528    12.000000000000
         C           -2.669388937336    -0.247997493852     1.251274235472    12.000000000000
         C           -1.234484937336     0.243283506148    -1.206502764528    12.000000000000
         C           -1.234489937336     0.243512506148     1.194222235472    12.000000000000
         C            0.836067062664    -0.120933493852    -0.006104764528    12.000000000000
         C            1.425877062664     1.148771506148    -0.006211764528    12.000000000000
         C            1.626009062664    -1.272353493852    -0.006003764528    12.000000000000
         C            2.817484062664     1.259502506148    -0.006225764528    12.000000000000
         C            3.016752062664    -1.153702493852    -0.006018764528    12.000000000000
         C            3.612212062664     0.110283506148    -0.006125764528    12.000000000000
         H           -3.437335937336     1.228235506148    -0.006230764528     1.007825032230
         H           -4.350884937336    -0.142499493852    -0.006106764528     1.007825032230
         H           -3.223418937336     0.153301506148    -2.115715764528     1.007825032230
         H           -2.706689937336    -1.338966493852    -1.271022764528     1.007825032230
         H           -2.706688937336    -1.338730493852     1.259035235472     1.007825032230
         H           -3.223424937336     0.153692506148     2.103451235472     1.007825032230
         H           -0.704225937336    -0.134227493852    -2.085423764528     1.007825032230
         H           -1.213305937336     1.348953506148    -1.258922764528     1.007825032230
         H           -1.213318937336     1.349193506148     1.246431235472     1.007825032230
         H           -0.704229937336    -0.133822493852     2.073219235472     1.007825032230
         H            0.813397062664     2.048995506148    -0.006289764528     1.007825032230
         H            1.141485062664    -2.245386493852    -0.005921764528     1.007825032230
         H            3.281338062664     2.242387506148    -0.006308764528     1.007825032230
         H            3.635133062664    -2.047315493852    -0.005938764528     1.007825032230
         H            4.695025062664     0.200436506148    -0.006140764528     1.007825032230

  Basis Set: AUG-CC-PVTZ
    Blend: AUG-CC-PVTZ
  Basis Set: (AUG-CC-PVTZ AUX)
    Blend: AUG-CC-PVTZ-JKFIT
	 Reference Energy          =    -496.2516533222101316 [Eh]
	 Singles Energy            =      -0.0000000000000000 [Eh]
	 Same-Spin Energy          =      -0.5402059107815058 [Eh]
	 Opposite-Spin Energy      =      -1.7588289132313011 [Eh]
	 Correlation Energy        =      -2.2990348240128071 [Eh]
	 Total Energy              =    -498.5506881462229103 [Eh]

	 ================> DF-SCS-MP2 Energies <==================
	-----------------------------------------------------------
	 SCS Same-Spin Scale       =       0.3333333333333333 [-]
	 SCS Opposite-Spin Scale   =       1.2000000000000000 [-]
	 SCS Same-Spin Energy      =      -0.1800686369271686 [Eh]
	 SCS Opposite-Spin Energy  =      -2.1105946958775612 [Eh]
	 SCS Correlation Energy    =      -2.2906633328047299 [Eh]
	 SCS Total Energy          =    -498.5423166550148721 [Eh]
	-----------------------------------------------------------

  Dipole Moment: [D]
     X:   -11.5645      Y:     1.1216      Z:     0.1608     Total:    11.6199

*** Psi4 exiting successfully. Buy a developer a beer!
