                               Psi4 1.3.2 release

  ==> Input File <==

--------------------------------------------------------------------------
#psi4
#
memory 32 gb

molecule  {
1 1
  N       -3.3283680     0.1942120    -0.0000200
  N       -0.5495980    -0.2948890     0.0000300
  C       -2.6083865    -0.1520089    -1.2840867
  C       -2.6173490    -0.2534950     1.2573910
  C       -1.1824450     0.2377860    -1.2003860
  C       -1.1824500     0.2380150     1.2003390
  C        0.8881070    -0.1264310     0.0000120
  C        1.4779170     1.1432740    -0.0000950
  C        1.6780490    -1.2778510     0.0001130
  C        2.8695240     1.2540050    -0.0001090
  C        3.0687920    -1.1592000     0.0000980
  C        3.6642520     0.1047860    -0.0000090
  H       -3.3852960     1.2227380    -0.0001140
  H       -4.2988450    -0.1479970     0.0000100
  H       -3.1713790     0.1478040    -2.1095990
  H       -2.6546500    -1.3444640    -1.2649060
  H       -2.6546490    -1.3442280     1.2651520
  H       -3.1713850     0.1481950     2.1095680
  H       -0.6521860    -0.1397250    -2.0793070
  H       -1.1612660     1.3434560    -1.2528060
  H       -1.1612790     1.3436960     1.2525480
  H       -0.6521900    -0.1393200     2.0793360
  H        0.8654370     2.0434980    -0.0001730
  H        1.1935250    -2.2508840     0.0001950
  H        3.3333780     2.2368900    -0.0001920
  H        3.6871730    -2.0528130     0.0001780
  H        4.7470650     0.1949390    -0.0000240
units angstrom
no_reorient  #important for SAPT in psi4, default
symmetry c1  #important for SAPT in psi4, default
}

set PROPERTIES_ORIGIN ["COM"]
properties('MP2/aug-cc-pvtz', properties = ['dipole'])
--------------------------------------------------------------------------

    Molecular point group: c1
  Charge       = 1
  Multiplicity = 1
  Basis Set: AUG-CC-PVTZ
    Blend: AUG-CC-PVTZ
  Basis Set: (AUG-CC-PVTZ AUX)
    Blend: AUG-CC-PVTZ-JKFIT

    Orbital Energies [Eh]
    ---------------------

    Doubly Occupied:

       1A    -15.867361     2A    -15.706685     3A    -11.460114
       4A    -11.457704     5A    -11.417945     6A    -11.416437
       7A    -11.379802     8A    -11.344674     9A    -11.339259
      10A    -11.339170    11A    -11.336791    12A    -11.333969
      13A     -1.498455    14A     -1.391107    15A     -1.250319
      16A     -1.226607    17A     -1.156878    18A     -1.119751
      19A     -1.086779    20A     -1.055044    21A     -0.992838
      22A     -0.939660    23A     -0.928838    24A     -0.926219
      25A     -0.874070    26A     -0.818740    27A     -0.813198
      28A     -0.796680    29A     -0.794207    30A     -0.769016
      31A     -0.749801    32A     -0.734792    33A     -0.718192
      34A     -0.699136    35A     -0.688912    36A     -0.670310
      37A     -0.666001    38A     -0.657374    39A     -0.607682
      40A     -0.603524    41A     -0.602088    42A     -0.520865
      43A     -0.440434    44A     -0.438876

  @DF-RHF Final Energy:  -496.24802249033723

   => Energetics <=

    Nuclear Repulsion Energy =            706.8223727394254183
    One-Electron Energy =               -2060.8681861834052143
    Two-Electron Energy =                 857.7977909536425614
    Total Energy =                       -496.2480224903372346
  Basis Set: (AUG-CC-PVTZ AUX)
    Blend: AUG-CC-PVTZ-RI
    Molecular point group: c1

    Geometry (in Angstrom), charge = 1, multiplicity = 1:

       Center              X                  Y                   Z               Mass
    ------------   -----------------  -----------------  -----------------  -----------------
         N           -3.384525690470     0.194405520668     0.001946530706    14.003074004430
         N           -0.605755690470    -0.294695479332     0.001996530706    14.003074004430
         C           -2.664544190470    -0.151815379332    -1.282120169294    12.000000000000
         C           -2.673506690470    -0.253301479332     1.259357530706    12.000000000000
         C           -1.238602690470     0.237979520668    -1.198419469294    12.000000000000
         C           -1.238607690470     0.238208520668     1.202305530706    12.000000000000
         C            0.831949309530    -0.126237479332     0.001978530706    12.000000000000
         C            1.421759309530     1.143467520668     0.001871530706    12.000000000000
         C            1.621891309530    -1.277657479332     0.002079530706    12.000000000000
         C            2.813366309530     1.254198520668     0.001857530706    12.000000000000
         C            3.012634309530    -1.159006479332     0.002064530706    12.000000000000
         C            3.608094309530     0.104979520668     0.001957530706    12.000000000000
         H           -3.441453690470     1.222931520668     0.001852530706     1.007825032230
         H           -4.355002690470    -0.147803479332     0.001976530706     1.007825032230
         H           -3.227536690470     0.147997520668    -2.107632469294     1.007825032230
         H           -2.710807690470    -1.344270479332    -1.262939469294     1.007825032230
         H           -2.710806690470    -1.344034479332     1.267118530706     1.007825032230
         H           -3.227542690470     0.148388520668     2.111534530706     1.007825032230
         H           -0.708343690470    -0.139531479332    -2.077340469294     1.007825032230
         H           -1.217423690470     1.343649520668    -1.250839469294     1.007825032230
         H           -1.217436690470     1.343889520668     1.254514530706     1.007825032230
         H           -0.708347690470    -0.139126479332     2.081302530706     1.007825032230
         H            0.809279309530     2.043691520668     0.001793530706     1.007825032230
         H            1.137367309530    -2.250690479332     0.002161530706     1.007825032230
         H            3.277220309530     2.237083520668     0.001774530706     1.007825032230
         H            3.631015309530    -2.052619479332     0.002144530706     1.007825032230
         H            4.690907309530     0.195132520668     0.001942530706     1.007825032230

  Basis Set: AUG-CC-PVTZ
    Blend: AUG-CC-PVTZ
  Basis Set: (AUG-CC-PVTZ AUX)
    Blend: AUG-CC-PVTZ-JKFIT
	 Reference Energy          =    -496.2480224903372346 [Eh]
	 Singles Energy            =      -0.0000000000000000 [Eh]
	 Same-Spin Energy          =      -0.5400191699658663 [Eh]
	 Opposite-Spin Energy      =      -1.7593437883249012 [Eh]
	 Correlation Energy        =      -2.2993629582907675 [Eh]
	 Total Energy              =    -498.5473854486280061 [Eh]

	 ================> DF-SCS-MP2 Energies <==================
	-----------------------------------------------------------
	 SCS Same-Spin Scale       =       0.3333333333333333 [-]
	 SCS Opposite-Spin Scale   =       1.2000000000000000 [-]
	 SCS Same-Spin Energy      =      -0.1800063899886221 [Eh]
	 SCS Opposite-Spin Energy  =      -2.1112125459898814 [Eh]
	 SCS Correlation Energy    =      -2.2912189359785033 [Eh]
	 SCS Total Energy          =    -498.5392414263157548 [Eh]
	-----------------------------------------------------------

  Dipole Moment: [D]
     X:   -11.4505      Y:     1.1356      Z:     0.0119     Total:    11.5067

*** Psi4 exiting successfully. Buy a developer a beer!
