                               Psi4 1.4a3.dev225

  ==> Input File <==

--------------------------------------------------------------------------
#psi4
#
memory 32 gb

molecule  {
1 1
  N       -3.3283680     0.1942120    -0.0000200
  N       -0.5495980    -0.2948890     0.0000300
  C       -2.6173460    -0.2537290    -1.2573450
  C       -2.6173490    -0.2534950     1.2573910
  C       -1.1824450     0.2377860    -1.2003860
  C       -1.1824500     0.2380150     1.2003390
  C        0.9079711    -0.1241035     0.0000118
  C        1.4779170     1.1432740    -0.0000950
  C        1.6780490    -1.2778510     0.0001130
  C        2.8695240     1.2540050    -0.0001090
  C        3.0687920    -1.1592000     0.0000980
  C        3.6642520     0.1047860    -0.0000090
  H       -3.3852960     1.2227380    -0.0001140
  H       -4.2988450    -0.1479970     0.0000100
  H       -3.1713790     0.1478040    -2.1095990
  H       -2.6546500    -1.3444640    -1.2649060
  H       -2.6546490    -1.3442280     1.2651520
  H       -3.1713850     0.1481950     2.1095680
  H       -0.6521860    -0.1397250    -2.0793070
  H       -1.1612660     1.3434560    -1.2528060
  H       -1.1612790     1.3436960     1.2525480
  H       -0.6521900    -0.1393200     2.0793360
  H        0.8654370     2.0434980    -0.0001730
  H        1.1935250    -2.2508840     0.0001950
  H        3.3333780     2.2368900    -0.0001920
  H        3.6871730    -2.0528130     0.0001780
  H        4.7470650     0.1949390    -0.0000240
units angstrom
no_reorient  #important for SAPT in psi4, default
symmetry c1  #important for SAPT in psi4, default
}

set PROPERTIES_ORIGIN ["COM"]
properties('MP2/aug-cc-pvtz', properties = ['dipole'])
--------------------------------------------------------------------------

    Molecular point group: c1
  Charge       = 1
  Multiplicity = 1
  Basis Set: AUG-CC-PVTZ
    Blend: AUG-CC-PVTZ
  Basis Set: (AUG-CC-PVTZ AUX)
    Blend: AUG-CC-PVTZ-JKFIT

    Orbital Energies [Eh]
    ---------------------

    Doubly Occupied:

       1A    -15.866182     2A    -15.704207     3A    -11.456252
       4A    -11.456241     5A    -11.416547     6A    -11.416532
       7A    -11.378840     8A    -11.343787     9A    -11.339463
      10A    -11.338463    11A    -11.336957    12A    -11.333649
      13A     -1.496953    14A     -1.385963    15A     -1.252239
      16A     -1.220900    17A     -1.152874    18A     -1.121208
      19A     -1.087622    20A     -1.052107    21A     -0.995731
      22A     -0.939482    23A     -0.927169    24A     -0.922621
      25A     -0.869299    26A     -0.822857    27A     -0.817909
      28A     -0.792088    29A     -0.786527    30A     -0.767458
      31A     -0.738769    32A     -0.734610    33A     -0.717970
      34A     -0.706857    35A     -0.689854    36A     -0.687319
      37A     -0.659319    38A     -0.658787    39A     -0.607625
      40A     -0.604007    41A     -0.600641    42A     -0.520275
      43A     -0.441234    44A     -0.439856

  @DF-RHF Final Energy:  -496.26065928748369

   => Energetics <=

    Nuclear Repulsion Energy =            706.5912797911399821
    One-Electron Energy =               -2060.4933760689700648
    Two-Electron Energy =                 857.6414369903462784
    Total Energy =                       -496.2606592874836906
  Basis Set: (AUG-CC-PVTZ AUX)
    Blend: AUG-CC-PVTZ-RI
    Molecular point group: c1

    Geometry (in Angstrom), charge = 1, multiplicity = 1:

       Center              X                  Y                   Z               Mass
    ------------   -----------------  -----------------  -----------------  -----------------
         N           -3.385327875202     0.201717226389    -0.000020677905    14.003074004430
         N           -0.606557875202    -0.287383773611     0.000029322095    14.003074004430
         C           -2.674305875202    -0.246223773611    -1.257345677905    12.000000000000
         C           -2.674308875202    -0.245989773611     1.257390322095    12.000000000000
         C           -1.239404875202     0.245291226389    -1.200386677905    12.000000000000
         C           -1.239409875202     0.245520226389     1.200338322095    12.000000000000
         C            0.851011224798    -0.116598273611     0.000011122095    12.000000000000
         C            1.420957124798     1.150779226389    -0.000095677905    12.000000000000
         C            1.621089124798    -1.270345773611     0.000112322095    12.000000000000
         C            2.812564124798     1.261510226389    -0.000109677905    12.000000000000
         C            3.011832124798    -1.151694773611     0.000097322095    12.000000000000
         C            3.607292124798     0.112291226389    -0.000009677905    12.000000000000
         H           -3.442255875202     1.230243226389    -0.000114677905     1.007825032230
         H           -4.355804875202    -0.140491773611     0.000009322095     1.007825032230
         H           -3.228338875202     0.155309226389    -2.109599677905     1.007825032230
         H           -2.711609875202    -1.336958773611    -1.264906677905     1.007825032230
         H           -2.711608875202    -1.336722773611     1.265151322095     1.007825032230
         H           -3.228344875202     0.155700226389     2.109567322095     1.007825032230
         H           -0.709145875202    -0.132219773611    -2.079307677905     1.007825032230
         H           -1.218225875202     1.350961226389    -1.252806677905     1.007825032230
         H           -1.218238875202     1.351201226389     1.252547322095     1.007825032230
         H           -0.709149875202    -0.131814773611     2.079335322095     1.007825032230
         H            0.808477124798     2.051003226389    -0.000173677905     1.007825032230
         H            1.136565124798    -2.243378773611     0.000194322095     1.007825032230
         H            3.276418124798     2.244395226389    -0.000192677905     1.007825032230
         H            3.630213124798    -2.045307773611     0.000177322095     1.007825032230
         H            4.690105124798     0.202444226389    -0.000024677905     1.007825032230

  Basis Set: AUG-CC-PVTZ
    Blend: AUG-CC-PVTZ
  Basis Set: (AUG-CC-PVTZ AUX)
    Blend: AUG-CC-PVTZ-JKFIT
	 Reference Energy          =    -496.2606592874836906 [Eh]
	 Singles Energy            =      -0.0000000000000000 [Eh]
	 Same-Spin Energy          =      -0.5393352839254082 [Eh]
	 Opposite-Spin Energy      =      -1.7582733938779660 [Eh]
	 Correlation Energy        =      -2.2976086778033742 [Eh]
	 Total Energy              =    -498.5582679652870866 [Eh]

	 ================> DF-SCS-MP2 Energies <==================
	-----------------------------------------------------------
	 SCS Same-Spin Scale       =       0.3333333333333333 [-]
	 SCS Opposite-Spin Scale   =       1.2000000000000000 [-]
	 SCS Same-Spin Energy      =      -0.1797784279751360 [Eh]
	 SCS Opposite-Spin Energy  =      -2.1099280726535592 [Eh]
	 SCS Correlation Energy    =      -2.2897065006286952 [Eh]
	 SCS Total Energy          =    -498.5503657881124013 [Eh]
	-----------------------------------------------------------

  Dipole Moment: [D]
     X:   -11.4169      Y:     1.0861      Z:    -0.0001     Total:    11.4684

*** Psi4 exiting successfully. Buy a developer a beer!
