                               Psi4 1.4a3.dev225

  ==> Input File <==

--------------------------------------------------------------------------
#psi4
#
memory 32 gb

molecule  {
1 1
  N       -3.3283680     0.1942120    -0.0000200
  N       -0.5495980    -0.2948890     0.0000300
  C       -2.6173460    -0.2537290    -1.2573450
  C       -2.6173490    -0.2534950     1.2573910
  C       -1.2041503     0.2560556    -1.2415576
  C       -1.1824500     0.2380150     1.2003390
  C        0.8881070    -0.1264310     0.0000120
  C        1.4779170     1.1432740    -0.0000950
  C        1.6780490    -1.2778510     0.0001130
  C        2.8695240     1.2540050    -0.0001090
  C        3.0687920    -1.1592000     0.0000980
  C        3.6642520     0.1047860    -0.0000090
  H       -3.3852960     1.2227380    -0.0001140
  H       -4.2988450    -0.1479970     0.0000100
  H       -3.1713790     0.1478040    -2.1095990
  H       -2.6546500    -1.3444640    -1.2649060
  H       -2.6546490    -1.3442280     1.2651520
  H       -3.1713850     0.1481950     2.1095680
  H       -0.6521860    -0.1397250    -2.0793070
  H       -1.1612660     1.3434560    -1.2528060
  H       -1.1612790     1.3436960     1.2525480
  H       -0.6521900    -0.1393200     2.0793360
  H        0.8654370     2.0434980    -0.0001730
  H        1.1935250    -2.2508840     0.0001950
  H        3.3333780     2.2368900    -0.0001920
  H        3.6871730    -2.0528130     0.0001780
  H        4.7470650     0.1949390    -0.0000240
units angstrom
no_reorient  #important for SAPT in psi4, default
symmetry c1  #important for SAPT in psi4, default
}

set PROPERTIES_ORIGIN ["COM"]
properties('MP2/aug-cc-pvtz', properties = ['dipole'])
--------------------------------------------------------------------------

    Molecular point group: c1
  Charge       = 1
  Multiplicity = 1
  Basis Set: AUG-CC-PVTZ
    Blend: AUG-CC-PVTZ
  Basis Set: (AUG-CC-PVTZ AUX)
    Blend: AUG-CC-PVTZ-JKFIT

    Orbital Energies [Eh]
    ---------------------

    Doubly Occupied:

       1A    -15.867798     2A    -15.704290     3A    -11.457692
       4A    -11.456470     5A    -11.416880     6A    -11.416344
       7A    -11.378067     8A    -11.343455     9A    -11.338372
      10A    -11.337914    11A    -11.335917    12A    -11.332844
      13A     -1.497927    14A     -1.380435    15A     -1.248422
      16A     -1.223746    17A     -1.155255    18A     -1.118734
      19A     -1.084993    20A     -1.051819    21A     -0.998395
      22A     -0.938695    23A     -0.928026    24A     -0.921444
      25A     -0.869858    26A     -0.825641    27A     -0.816385
      28A     -0.792137    29A     -0.783544    30A     -0.767226
      31A     -0.738493    32A     -0.736314    33A     -0.717494
      34A     -0.706951    35A     -0.691344    36A     -0.687963
      37A     -0.665568    38A     -0.654806    39A     -0.606462
      40A     -0.601381    41A     -0.599740    42A     -0.519551
      43A     -0.439565    44A     -0.437044

  @DF-RHF Final Energy:  -496.25871357173287

   => Energetics <=

    Nuclear Repulsion Energy =            705.7842994278578317
    One-Electron Energy =               -2058.9032206030219641
    Two-Electron Energy =                 856.8602076034312631
    Total Energy =                       -496.2587135717328692
  Basis Set: (AUG-CC-PVTZ AUX)
    Blend: AUG-CC-PVTZ-RI
    Molecular point group: c1

    Geometry (in Angstrom), charge = 1, multiplicity = 1:

       Center              X                  Y                   Z               Mass
    ------------   -----------------  -----------------  -----------------  -----------------
         N           -3.382269868672     0.200544463590     0.003008050199    14.003074004430
         N           -0.603499868672    -0.288556536410     0.003058050199    14.003074004430
         C           -2.671247868672    -0.247396536410    -1.254316949801    12.000000000000
         C           -2.671250868672    -0.247162536410     1.260419050199    12.000000000000
         C           -1.258052168672     0.262388063590    -1.238529549801    12.000000000000
         C           -1.236351868672     0.244347463590     1.203367050199    12.000000000000
         C            0.834205131328    -0.120098536410     0.003040050199    12.000000000000
         C            1.424015131328     1.149606463590     0.002933050199    12.000000000000
         C            1.624147131328    -1.271518536410     0.003141050199    12.000000000000
         C            2.815622131328     1.260337463590     0.002919050199    12.000000000000
         C            3.014890131328    -1.152867536410     0.003126050199    12.000000000000
         C            3.610350131328     0.111118463590     0.003019050199    12.000000000000
         H           -3.439197868672     1.229070463590     0.002914050199     1.007825032230
         H           -4.352746868672    -0.141664536410     0.003038050199     1.007825032230
         H           -3.225280868672     0.154136463590    -2.106570949801     1.007825032230
         H           -2.708551868672    -1.338131536410    -1.261877949801     1.007825032230
         H           -2.708550868672    -1.337895536410     1.268180050199     1.007825032230
         H           -3.225286868672     0.154527463590     2.112596050199     1.007825032230
         H           -0.706087868672    -0.133392536410    -2.076278949801     1.007825032230
         H           -1.215167868672     1.349788463590    -1.249777949801     1.007825032230
         H           -1.215180868672     1.350028463590     1.255576050199     1.007825032230
         H           -0.706091868672    -0.132987536410     2.082364050199     1.007825032230
         H            0.811535131328     2.049830463590     0.002855050199     1.007825032230
         H            1.139623131328    -2.244551536410     0.003223050199     1.007825032230
         H            3.279476131328     2.243222463590     0.002836050199     1.007825032230
         H            3.633271131328    -2.046480536410     0.003206050199     1.007825032230
         H            4.693163131328     0.201271463590     0.003004050199     1.007825032230

  Basis Set: AUG-CC-PVTZ
    Blend: AUG-CC-PVTZ
  Basis Set: (AUG-CC-PVTZ AUX)
    Blend: AUG-CC-PVTZ-JKFIT
	 Reference Energy          =    -496.2587135717328692 [Eh]
	 Singles Energy            =      -0.0000000000000000 [Eh]
	 Same-Spin Energy          =      -0.5393130765231225 [Eh]
	 Opposite-Spin Energy      =      -1.7586039688270327 [Eh]
	 Correlation Energy        =      -2.2979170453501552 [Eh]
	 Total Energy              =    -498.5566306170830444 [Eh]

	 ================> DF-SCS-MP2 Energies <==================
	-----------------------------------------------------------
	 SCS Same-Spin Scale       =       0.3333333333333333 [-]
	 SCS Opposite-Spin Scale   =       1.2000000000000000 [-]
	 SCS Same-Spin Energy      =      -0.1797710255077075 [Eh]
	 SCS Opposite-Spin Energy  =      -2.1103247625924393 [Eh]
	 SCS Correlation Energy    =      -2.2900957881001469 [Eh]
	 SCS Total Energy          =    -498.5488093598330011 [Eh]
	-----------------------------------------------------------

  Dipole Moment: [D]
     X:   -11.5521      Y:     1.1297      Z:    -0.0593     Total:    11.6073

*** Psi4 exiting successfully. Buy a developer a beer!
