                               Psi4 1.3.2 release

  ==> Input File <==

--------------------------------------------------------------------------
#psi4
#
memory 32 gb

molecule  {
1 1
  N       -3.3283680     0.1942120    -0.0000200
  N       -0.5495980    -0.2948890     0.0000300
  C       -2.6173460    -0.2537290    -1.2573450
  C       -2.6173490    -0.2534950     1.2573910
  C       -1.1983747     0.2511984    -1.1857668
  C       -1.1824500     0.2380150     1.2003390
  C        0.8881070    -0.1264310     0.0000120
  C        1.4779170     1.1432740    -0.0000950
  C        1.6780490    -1.2778510     0.0001130
  C        2.8695240     1.2540050    -0.0001090
  C        3.0687920    -1.1592000     0.0000980
  C        3.6642520     0.1047860    -0.0000090
  H       -3.3852960     1.2227380    -0.0001140
  H       -4.2988450    -0.1479970     0.0000100
  H       -3.1713790     0.1478040    -2.1095990
  H       -2.6546500    -1.3444640    -1.2649060
  H       -2.6546490    -1.3442280     1.2651520
  H       -3.1713850     0.1481950     2.1095680
  H       -0.6521860    -0.1397250    -2.0793070
  H       -1.1612660     1.3434560    -1.2528060
  H       -1.1612790     1.3436960     1.2525480
  H       -0.6521900    -0.1393200     2.0793360
  H        0.8654370     2.0434980    -0.0001730
  H        1.1935250    -2.2508840     0.0001950
  H        3.3333780     2.2368900    -0.0001920
  H        3.6871730    -2.0528130     0.0001780
  H        4.7470650     0.1949390    -0.0000240
units angstrom
no_reorient  #important for SAPT in psi4, default
symmetry c1  #important for SAPT in psi4, default
}

set PROPERTIES_ORIGIN ["COM"]
properties('MP2/aug-cc-pvtz', properties = ['dipole'])
--------------------------------------------------------------------------

    Molecular point group: c1
  Charge       = 1
  Multiplicity = 1
  Basis Set: AUG-CC-PVTZ
    Blend: AUG-CC-PVTZ
  Basis Set: (AUG-CC-PVTZ AUX)
    Blend: AUG-CC-PVTZ-JKFIT

    Orbital Energies [Eh]
    ---------------------

    Doubly Occupied:

       1A    -15.866167     2A    -15.705127     3A    -11.457000
       4A    -11.456694     5A    -11.417110     6A    -11.416839
       7A    -11.379403     8A    -11.344430     9A    -11.339044
      10A    -11.338935    11A    -11.336633    12A    -11.333649
      13A     -1.497927    14A     -1.390231    15A     -1.249918
      16A     -1.222344    17A     -1.155303    18A     -1.119552
      19A     -1.086937    20A     -1.051790    21A     -0.997802
      22A     -0.938839    23A     -0.926684    24A     -0.923472
      25A     -0.870110    26A     -0.824441    27A     -0.818669
      28A     -0.791418    29A     -0.787793    30A     -0.768416
      31A     -0.738570    32A     -0.735728    33A     -0.717604
      34A     -0.706413    35A     -0.690306    36A     -0.688691
      37A     -0.661077    38A     -0.653986    39A     -0.607479
      40A     -0.602308    41A     -0.601595    42A     -0.521610
      43A     -0.440264    44A     -0.438349

  @DF-RHF Final Energy:  -496.25978611744370

   => Energetics <=

    Nuclear Repulsion Energy =            706.8180305807625246
    One-Electron Energy =               -2060.9223282637476586
    Two-Electron Energy =                 857.8445115655414384
    Total Energy =                       -496.2597861174436957
  Basis Set: (AUG-CC-PVTZ AUX)
    Blend: AUG-CC-PVTZ-RI
    Molecular point group: c1

    Geometry (in Angstrom), charge = 1, multiplicity = 1:

       Center              X                  Y                   Z               Mass
    ------------   -----------------  -----------------  -----------------  -----------------
         N           -3.382694744242     0.200901778089    -0.001096137754    14.003074004430
         N           -0.603924744242    -0.288199221911    -0.001046137754    14.003074004430
         C           -2.671672744242    -0.247039221911    -1.258421137754    12.000000000000
         C           -2.671675744242    -0.246805221911     1.256314862246    12.000000000000
         C           -1.252701444242     0.257888178089    -1.186842937754    12.000000000000
         C           -1.236776744242     0.244704778089     1.199262862246    12.000000000000
         C            0.833780255758    -0.119741221911    -0.001064137754    12.000000000000
         C            1.423590255758     1.149963778089    -0.001171137754    12.000000000000
         C            1.623722255758    -1.271161221911    -0.000963137754    12.000000000000
         C            2.815197255758     1.260694778089    -0.001185137754    12.000000000000
         C            3.014465255758    -1.152510221911    -0.000978137754    12.000000000000
         C            3.609925255758     0.111475778089    -0.001085137754    12.000000000000
         H           -3.439622744242     1.229427778089    -0.001190137754     1.007825032230
         H           -4.353171744242    -0.141307221911    -0.001066137754     1.007825032230
         H           -3.225705744242     0.154493778089    -2.110675137754     1.007825032230
         H           -2.708976744242    -1.337774221911    -1.265982137754     1.007825032230
         H           -2.708975744242    -1.337538221911     1.264075862246     1.007825032230
         H           -3.225711744242     0.154884778089     2.108491862246     1.007825032230
         H           -0.706512744242    -0.133035221911    -2.080383137754     1.007825032230
         H           -1.215592744242     1.350145778089    -1.253882137754     1.007825032230
         H           -1.215605744242     1.350385778089     1.251471862246     1.007825032230
         H           -0.706516744242    -0.132630221911     2.078259862246     1.007825032230
         H            0.811110255758     2.050187778089    -0.001249137754     1.007825032230
         H            1.139198255758    -2.244194221911    -0.000881137754     1.007825032230
         H            3.279051255758     2.243579778089    -0.001268137754     1.007825032230
         H            3.632846255758    -2.046123221911    -0.000898137754     1.007825032230
         H            4.692738255758     0.201628778089    -0.001100137754     1.007825032230

  Basis Set: AUG-CC-PVTZ
    Blend: AUG-CC-PVTZ
  Basis Set: (AUG-CC-PVTZ AUX)
    Blend: AUG-CC-PVTZ-JKFIT
	 Reference Energy          =    -496.2597861174436957 [Eh]
	 Singles Energy            =      -0.0000000000000000 [Eh]
	 Same-Spin Energy          =      -0.5396147263016202 [Eh]
	 Opposite-Spin Energy      =      -1.7586225194748093 [Eh]
	 Correlation Energy        =      -2.2982372457764297 [Eh]
	 Total Energy              =    -498.5580233632201157 [Eh]

	 ================> DF-SCS-MP2 Energies <==================
	-----------------------------------------------------------
	 SCS Same-Spin Scale       =       0.3333333333333333 [-]
	 SCS Opposite-Spin Scale   =       1.2000000000000000 [-]
	 SCS Same-Spin Energy      =      -0.1798715754338734 [Eh]
	 SCS Opposite-Spin Energy  =      -2.1103470233697710 [Eh]
	 SCS Correlation Energy    =      -2.2902185988036443 [Eh]
	 SCS Total Energy          =    -498.5500047162473152 [Eh]
	-----------------------------------------------------------

  Dipole Moment: [D]
     X:   -11.4745      Y:     1.0972      Z:    -0.0093     Total:    11.5269

*** Psi4 exiting successfully. Buy a developer a beer!
