                               Psi4 1.3.2 release

  ==> Input File <==

--------------------------------------------------------------------------
#psi4
#
memory 32 gb

molecule  {
1 1
  N       -3.3283680     0.1942120    -0.0000200
  N       -0.5495980    -0.2948890     0.0000300
  C       -2.6297696    -0.3532668    -1.2244778
  C       -2.6173490    -0.2534950     1.2573910
  C       -1.1824450     0.2377860    -1.2003860
  C       -1.1824500     0.2380150     1.2003390
  C        0.8881070    -0.1264310     0.0000120
  C        1.4779170     1.1432740    -0.0000950
  C        1.6780490    -1.2778510     0.0001130
  C        2.8695240     1.2540050    -0.0001090
  C        3.0687920    -1.1592000     0.0000980
  C        3.6642520     0.1047860    -0.0000090
  H       -3.3852960     1.2227380    -0.0001140
  H       -4.2988450    -0.1479970     0.0000100
  H       -3.1713790     0.1478040    -2.1095990
  H       -2.6546500    -1.3444640    -1.2649060
  H       -2.6546490    -1.3442280     1.2651520
  H       -3.1713850     0.1481950     2.1095680
  H       -0.6521860    -0.1397250    -2.0793070
  H       -1.1612660     1.3434560    -1.2528060
  H       -1.1612790     1.3436960     1.2525480
  H       -0.6521900    -0.1393200     2.0793360
  H        0.8654370     2.0434980    -0.0001730
  H        1.1935250    -2.2508840     0.0001950
  H        3.3333780     2.2368900    -0.0001920
  H        3.6871730    -2.0528130     0.0001780
  H        4.7470650     0.1949390    -0.0000240
units angstrom
no_reorient  #important for SAPT in psi4, default
symmetry c1  #important for SAPT in psi4, default
}

set PROPERTIES_ORIGIN ["COM"]
properties('MP2/aug-cc-pvtz', properties = ['dipole'])
--------------------------------------------------------------------------

    Molecular point group: c1
  Charge       = 1
  Multiplicity = 1
  Basis Set: AUG-CC-PVTZ
    Blend: AUG-CC-PVTZ
  Basis Set: (AUG-CC-PVTZ AUX)
    Blend: AUG-CC-PVTZ-JKFIT

    Orbital Energies [Eh]
    ---------------------

    Doubly Occupied:

       1A    -15.867430     2A    -15.703712     3A    -11.456336
       4A    -11.455921     5A    -11.420037     6A    -11.417212
       7A    -11.378674     8A    -11.344081     9A    -11.338891
      10A    -11.338489    11A    -11.336433    12A    -11.333293
      13A     -1.497642    14A     -1.389440    15A     -1.249301
      16A     -1.217544    17A     -1.153375    18A     -1.119318
      19A     -1.088296    20A     -1.052974    21A     -1.001959
      22A     -0.938454    23A     -0.926077    24A     -0.921057
      25A     -0.870252    26A     -0.837593    27A     -0.818737
      28A     -0.790117    29A     -0.780230    30A     -0.769372
      31A     -0.745132    32A     -0.722654    33A     -0.718728
      34A     -0.712723    35A     -0.693525    36A     -0.688580
      37A     -0.658454    38A     -0.652195    39A     -0.606942
      40A     -0.601545    41A     -0.599440    42A     -0.520089
      43A     -0.440078    44A     -0.437770

  @DF-RHF Final Energy:  -496.24637111809403

   => Energetics <=

    Nuclear Repulsion Energy =            706.4411430888931136
    One-Electron Energy =               -2060.1548214441650089
    Two-Electron Energy =                 857.4673072371779199
    Total Energy =                       -496.2463711180939754
  Basis Set: (AUG-CC-PVTZ AUX)
    Blend: AUG-CC-PVTZ-RI
    Molecular point group: c1

    Geometry (in Angstrom), charge = 1, multiplicity = 1:

       Center              X                  Y                   Z               Mass
    ------------   -----------------  -----------------  -----------------  -----------------
         N           -3.382952666576     0.209210833527    -0.002438531514    14.003074004430
         N           -0.604182666576    -0.279890166473    -0.002388531514    14.003074004430
         C           -2.684354266576    -0.338267966473    -1.226896331514    12.000000000000
         C           -2.671933666576    -0.238496166473     1.254972468486    12.000000000000
         C           -1.237029666576     0.252784833527    -1.202804531514    12.000000000000
         C           -1.237034666576     0.253013833527     1.197920468486    12.000000000000
         C            0.833522333424    -0.111432166473    -0.002406531514    12.000000000000
         C            1.423332333424     1.158272833527    -0.002513531514    12.000000000000
         C            1.623464333424    -1.262852166473    -0.002305531514    12.000000000000
         C            2.814939333424     1.269003833527    -0.002527531514    12.000000000000
         C            3.014207333424    -1.144201166473    -0.002320531514    12.000000000000
         C            3.609667333424     0.119784833527    -0.002427531514    12.000000000000
         H           -3.439880666576     1.237736833527    -0.002532531514     1.007825032230
         H           -4.353429666576    -0.132998166473    -0.002408531514     1.007825032230
         H           -3.225963666576     0.162802833527    -2.112017531514     1.007825032230
         H           -2.709234666576    -1.329465166473    -1.267324531514     1.007825032230
         H           -2.709233666576    -1.329229166473     1.262733468486     1.007825032230
         H           -3.225969666576     0.163193833527     2.107149468486     1.007825032230
         H           -0.706770666576    -0.124726166473    -2.081725531514     1.007825032230
         H           -1.215850666576     1.358454833527    -1.255224531514     1.007825032230
         H           -1.215863666576     1.358694833527     1.250129468486     1.007825032230
         H           -0.706774666576    -0.124321166473     2.076917468486     1.007825032230
         H            0.810852333424     2.058496833527    -0.002591531514     1.007825032230
         H            1.138940333424    -2.235885166473    -0.002223531514     1.007825032230
         H            3.278793333424     2.251888833527    -0.002610531514     1.007825032230
         H            3.632588333424    -2.037814166473    -0.002240531514     1.007825032230
         H            4.692480333424     0.209937833527    -0.002442531514     1.007825032230

  Basis Set: AUG-CC-PVTZ
    Blend: AUG-CC-PVTZ
  Basis Set: (AUG-CC-PVTZ AUX)
    Blend: AUG-CC-PVTZ-JKFIT
	 Reference Energy          =    -496.2463711180940322 [Eh]
	 Singles Energy            =      -0.0000000000000000 [Eh]
	 Same-Spin Energy          =      -0.5394292100604310 [Eh]
	 Opposite-Spin Energy      =      -1.7590098407908976 [Eh]
	 Correlation Energy        =      -2.2984390508513286 [Eh]
	 Total Energy              =    -498.5448101689453324 [Eh]

	 ================> DF-SCS-MP2 Energies <==================
	-----------------------------------------------------------
	 SCS Same-Spin Scale       =       0.3333333333333333 [-]
	 SCS Opposite-Spin Scale   =       1.2000000000000000 [-]
	 SCS Same-Spin Energy      =      -0.1798097366868103 [Eh]
	 SCS Opposite-Spin Energy  =      -2.1108118089490771 [Eh]
	 SCS Correlation Energy    =      -2.2906215456358874 [Eh]
	 SCS Total Energy          =    -498.5369926637299045 [Eh]
	-----------------------------------------------------------

  Dipole Moment: [D]
     X:   -11.4830      Y:     1.0772      Z:     0.0233     Total:    11.5335

*** Psi4 exiting successfully. Buy a developer a beer!
