                               Psi4 1.3.2 release

  ==> Input File <==

--------------------------------------------------------------------------
#psi4
#
memory 32 gb

molecule  {
1 1
  N       -3.3283680     0.1942120    -0.0000200
  N       -0.5495980    -0.2948890     0.0000300
  C       -2.7324517    -0.1812391    -1.3382987
  C       -2.6173490    -0.2534950     1.2573910
  C       -1.1824450     0.2377860    -1.2003860
  C       -1.1824500     0.2380150     1.2003390
  C        0.8881070    -0.1264310     0.0000120
  C        1.4779170     1.1432740    -0.0000950
  C        1.6780490    -1.2778510     0.0001130
  C        2.8695240     1.2540050    -0.0001090
  C        3.0687920    -1.1592000     0.0000980
  C        3.6642520     0.1047860    -0.0000090
  H       -3.3852960     1.2227380    -0.0001140
  H       -4.2988450    -0.1479970     0.0000100
  H       -3.1713790     0.1478040    -2.1095990
  H       -2.6546500    -1.3444640    -1.2649060
  H       -2.6546490    -1.3442280     1.2651520
  H       -3.1713850     0.1481950     2.1095680
  H       -0.6521860    -0.1397250    -2.0793070
  H       -1.1612660     1.3434560    -1.2528060
  H       -1.1612790     1.3436960     1.2525480
  H       -0.6521900    -0.1393200     2.0793360
  H        0.8654370     2.0434980    -0.0001730
  H        1.1935250    -2.2508840     0.0001950
  H        3.3333780     2.2368900    -0.0001920
  H        3.6871730    -2.0528130     0.0001780
  H        4.7470650     0.1949390    -0.0000240
units angstrom
no_reorient  #important for SAPT in psi4, default
symmetry c1  #important for SAPT in psi4, default
}

set PROPERTIES_ORIGIN ["COM"]
properties('MP2/aug-cc-pvtz', properties = ['dipole'])
--------------------------------------------------------------------------

    Molecular point group: c1
  Charge       = 1
  Multiplicity = 1
  Basis Set: AUG-CC-PVTZ
    Blend: AUG-CC-PVTZ
  Basis Set: (AUG-CC-PVTZ AUX)
    Blend: AUG-CC-PVTZ-JKFIT

    Orbital Energies [Eh]
    ---------------------

    Doubly Occupied:

       1A    -15.867839     2A    -15.707159     3A    -11.459580
       4A    -11.455346     5A    -11.422237     6A    -11.417526
       7A    -11.380130     8A    -11.344734     9A    -11.339328
      10A    -11.339061    11A    -11.336740    12A    -11.334037
      13A     -1.496361    14A     -1.388849    15A     -1.249353
      16A     -1.219559    17A     -1.149637    18A     -1.119709
      19A     -1.088065    20A     -1.058613    21A     -0.993077
      22A     -0.938804    23A     -0.929885    24A     -0.923659
      25A     -0.885331    26A     -0.820972    27A     -0.814231
      28A     -0.799732    29A     -0.789136    30A     -0.767626
      31A     -0.747758    32A     -0.733722    33A     -0.715299
      34A     -0.700358    35A     -0.688929    36A     -0.677796
      37A     -0.661082    38A     -0.648904    39A     -0.607756
      40A     -0.602176    41A     -0.601689    42A     -0.518889
      43A     -0.440328    44A     -0.438874

  @DF-RHF Final Energy:  -496.22743429748522

   => Energetics <=

    Nuclear Repulsion Energy =            704.3994899132480896
    One-Electron Energy =               -2056.0140904535710433
    Two-Electron Energy =                 855.3871662428377931
    Total Energy =                       -496.2274342974851606
  Basis Set: (AUG-CC-PVTZ AUX)
    Blend: AUG-CC-PVTZ-RI
    Molecular point group: c1

    Geometry (in Angstrom), charge = 1, multiplicity = 1:

       Center              X                  Y                   Z               Mass
    ------------   -----------------  -----------------  -----------------  -----------------
         N           -3.375398972458     0.196555807717     0.005934575999    14.003074004430
         N           -0.596628972458    -0.292545192283     0.005984575999    14.003074004430
         C           -2.779482672458    -0.178895292283    -1.332344124001    12.000000000000
         C           -2.664379972458    -0.251151192283     1.263345575999    12.000000000000
         C           -1.229475972458     0.240129807717    -1.194431424001    12.000000000000
         C           -1.229480972458     0.240358807717     1.206293575999    12.000000000000
         C            0.841076027542    -0.124087192283     0.005966575999    12.000000000000
         C            1.430886027542     1.145617807717     0.005859575999    12.000000000000
         C            1.631018027542    -1.275507192283     0.006067575999    12.000000000000
         C            2.822493027542     1.256348807717     0.005845575999    12.000000000000
         C            3.021761027542    -1.156856192283     0.006052575999    12.000000000000
         C            3.617221027542     0.107129807717     0.005945575999    12.000000000000
         H           -3.432326972458     1.225081807717     0.005840575999     1.007825032230
         H           -4.345875972458    -0.145653192283     0.005964575999     1.007825032230
         H           -3.218409972458     0.150147807717    -2.103644424001     1.007825032230
         H           -2.701680972458    -1.342120192283    -1.258951424001     1.007825032230
         H           -2.701679972458    -1.341884192283     1.271106575999     1.007825032230
         H           -3.218415972458     0.150538807717     2.115522575999     1.007825032230
         H           -0.699216972458    -0.137381192283    -2.073352424001     1.007825032230
         H           -1.208296972458     1.345799807717    -1.246851424001     1.007825032230
         H           -1.208309972458     1.346039807717     1.258502575999     1.007825032230
         H           -0.699220972458    -0.136976192283     2.085290575999     1.007825032230
         H            0.818406027542     2.045841807717     0.005781575999     1.007825032230
         H            1.146494027542    -2.248540192283     0.006149575999     1.007825032230
         H            3.286347027542     2.239233807717     0.005762575999     1.007825032230
         H            3.640142027542    -2.050469192283     0.006132575999     1.007825032230
         H            4.700034027542     0.197282807717     0.005930575999     1.007825032230

  Basis Set: AUG-CC-PVTZ
    Blend: AUG-CC-PVTZ
  Basis Set: (AUG-CC-PVTZ AUX)
    Blend: AUG-CC-PVTZ-JKFIT
	 Reference Energy          =    -496.2274342974852175 [Eh]
	 Singles Energy            =      -0.0000000000000000 [Eh]
	 Same-Spin Energy          =      -0.5394637500814081 [Eh]
	 Opposite-Spin Energy      =      -1.7595798609780249 [Eh]
	 Correlation Energy        =      -2.2990436110594330 [Eh]
	 Total Energy              =    -498.5264779085446776 [Eh]

	 ================> DF-SCS-MP2 Energies <==================
	-----------------------------------------------------------
	 SCS Same-Spin Scale       =       0.3333333333333333 [-]
	 SCS Opposite-Spin Scale   =       1.2000000000000000 [-]
	 SCS Same-Spin Energy      =      -0.1798212500271360 [Eh]
	 SCS Opposite-Spin Energy  =      -2.1114958331736298 [Eh]
	 SCS Correlation Energy    =      -2.2913170832007657 [Eh]
	 SCS Total Energy          =    -498.5187513806859556 [Eh]
	-----------------------------------------------------------

  Dipole Moment: [D]
     X:   -11.4265      Y:     1.1295      Z:     0.0740     Total:    11.4824

*** Psi4 exiting successfully. Buy a developer a beer!
