                               Psi4 1.3.2 release

  ==> Input File <==

--------------------------------------------------------------------------
#psi4
#
memory 32 gb

molecule  {
1 1
  N       -3.3283680     0.1942120    -0.0000200
  N       -0.5495980    -0.2948890     0.0000300
  C       -2.6173460    -0.2537290    -1.2573450
  C       -2.6173490    -0.2534950     1.2573910
  C       -1.1824450     0.2377860    -1.2003860
  C       -1.1824500     0.2380150     1.2003390
  C        0.8881070    -0.1264310     0.0000120
  C        1.4779170     1.1432740    -0.0000950
  C        1.6780490    -1.2778510     0.0001130
  C        2.8695240     1.2540050    -0.0001090
  C        3.0687920    -1.1592000     0.0000980
  C        3.6642520     0.1047860    -0.0000090
  H       -3.4924944     1.2111530    -0.0001131
  H       -4.2988450    -0.1479970     0.0000100
  H       -3.1713790     0.1478040    -2.1095990
  H       -2.6546500    -1.3444640    -1.2649060
  H       -2.6546490    -1.3442280     1.2651520
  H       -3.1713850     0.1481950     2.1095680
  H       -0.6521860    -0.1397250    -2.0793070
  H       -1.1612660     1.3434560    -1.2528060
  H       -1.1612790     1.3436960     1.2525480
  H       -0.6521900    -0.1393200     2.0793360
  H        0.8654370     2.0434980    -0.0001730
  H        1.1935250    -2.2508840     0.0001950
  H        3.3333780     2.2368900    -0.0001920
  H        3.6871730    -2.0528130     0.0001780
  H        4.7470650     0.1949390    -0.0000240
units angstrom
no_reorient  #important for SAPT in psi4, default
symmetry c1  #important for SAPT in psi4, default
}

set PROPERTIES_ORIGIN ["COM"]
properties('MP2/aug-cc-pvtz', properties = ['dipole'])
--------------------------------------------------------------------------

    Molecular point group: c1
  Charge       = 1
  Multiplicity = 1
  Basis Set: AUG-CC-PVTZ
    Blend: AUG-CC-PVTZ
  Basis Set: (AUG-CC-PVTZ AUX)
    Blend: AUG-CC-PVTZ-JKFIT

    Orbital Energies [Eh]
    ---------------------

    Doubly Occupied:

       1A    -15.866578     2A    -15.704263     3A    -11.457236
       4A    -11.457226     5A    -11.416532     6A    -11.416517
       7A    -11.378701     8A    -11.343826     9A    -11.338565
      10A    -11.338387    11A    -11.336170    12A    -11.333178
      13A     -1.497264    14A     -1.389730    15A     -1.249395
      16A     -1.221121    17A     -1.156101    18A     -1.119053
      19A     -1.087566    20A     -1.052707    21A     -0.994824
      22A     -0.935976    23A     -0.924367    24A     -0.922411
      25A     -0.870897    26A     -0.822987    27A     -0.819472
      28A     -0.792203    29A     -0.787668    30A     -0.769104
      31A     -0.737968    32A     -0.735098    33A     -0.716671
      34A     -0.705694    35A     -0.688307    36A     -0.687642
      37A     -0.659742    38A     -0.659728    39A     -0.606830
      40A     -0.601579    41A     -0.601219    42A     -0.519811
      43A     -0.439777    44A     -0.437840

  @DF-RHF Final Energy:  -496.25970588777830

   => Energetics <=

    Nuclear Repulsion Energy =            706.4254323639813720
    One-Electron Energy =               -2060.1744238905862403
    Two-Electron Energy =                 857.4892856388265727
    Total Energy =                       -496.2597058877782956
  Basis Set: (AUG-CC-PVTZ AUX)
    Blend: AUG-CC-PVTZ-RI
    Molecular point group: c1

    Geometry (in Angstrom), charge = 1, multiplicity = 1:

       Center              X                  Y                   Z               Mass
    ------------   -----------------  -----------------  -----------------  -----------------
         N           -3.383204291653     0.201960021862    -0.000020698178    14.003074004430
         N           -0.604434291653    -0.287140978138     0.000029301822    14.003074004430
         C           -2.672182291653    -0.245980978138    -1.257345698178    12.000000000000
         C           -2.672185291653    -0.245746978138     1.257390301822    12.000000000000
         C           -1.237281291653     0.245534021862    -1.200386698178    12.000000000000
         C           -1.237286291653     0.245763021862     1.200338301822    12.000000000000
         C            0.833270708347    -0.118682978138     0.000011301822    12.000000000000
         C            1.423080708347     1.151022021862    -0.000095698178    12.000000000000
         C            1.623212708347    -1.270102978138     0.000112301822    12.000000000000
         C            2.814687708347     1.261753021862    -0.000109698178    12.000000000000
         C            3.013955708347    -1.151451978138     0.000097301822    12.000000000000
         C            3.609415708347     0.112534021862    -0.000009698178    12.000000000000
         H           -3.547330691653     1.218901021862    -0.000113798178     1.007825032230
         H           -4.353681291653    -0.140248978138     0.000009301822     1.007825032230
         H           -3.226215291653     0.155552021862    -2.109599698178     1.007825032230
         H           -2.709486291653    -1.336715978138    -1.264906698178     1.007825032230
         H           -2.709485291653    -1.336479978138     1.265151301822     1.007825032230
         H           -3.226221291653     0.155943021862     2.109567301822     1.007825032230
         H           -0.707022291653    -0.131976978138    -2.079307698178     1.007825032230
         H           -1.216102291653     1.351204021862    -1.252806698178     1.007825032230
         H           -1.216115291653     1.351444021862     1.252547301822     1.007825032230
         H           -0.707026291653    -0.131571978138     2.079335301822     1.007825032230
         H            0.810600708347     2.051246021862    -0.000173698178     1.007825032230
         H            1.138688708347    -2.243135978138     0.000194301822     1.007825032230
         H            3.278541708347     2.244638021862    -0.000192698178     1.007825032230
         H            3.632336708347    -2.045064978138     0.000177301822     1.007825032230
         H            4.692228708347     0.202687021862    -0.000024698178     1.007825032230

  Basis Set: AUG-CC-PVTZ
    Blend: AUG-CC-PVTZ
  Basis Set: (AUG-CC-PVTZ AUX)
    Blend: AUG-CC-PVTZ-JKFIT
	 Reference Energy          =    -496.2597058877782956 [Eh]
	 Singles Energy            =      -0.0000000000000000 [Eh]
	 Same-Spin Energy          =      -0.5393606255120372 [Eh]
	 Opposite-Spin Energy      =      -1.7583034830220305 [Eh]
	 Correlation Energy        =      -2.2976641085340677 [Eh]
	 Total Energy              =    -498.5573699963123886 [Eh]

	 ================> DF-SCS-MP2 Energies <==================
	-----------------------------------------------------------
	 SCS Same-Spin Scale       =       0.3333333333333333 [-]
	 SCS Opposite-Spin Scale   =       1.2000000000000000 [-]
	 SCS Same-Spin Energy      =      -0.1797868751706791 [Eh]
	 SCS Opposite-Spin Energy  =      -2.1099641796264366 [Eh]
	 SCS Correlation Energy    =      -2.2897510547971156 [Eh]
	 SCS Total Energy          =    -498.5494569425754321 [Eh]
	-----------------------------------------------------------

  Dipole Moment: [D]
     X:   -11.6144      Y:     1.1052      Z:    -0.0001     Total:    11.6669

*** Psi4 exiting successfully. Buy a developer a beer!
