                               Psi4 1.3.2 release

  ==> Input File <==

--------------------------------------------------------------------------
#psi4
#
memory 32 gb

molecule  {
1 1
  N       -3.3283680     0.1942120    -0.0000200
  N       -0.5495980    -0.2948890     0.0000300
  C       -2.6173460    -0.2537290    -1.2573450
  C       -2.6173490    -0.2534950     1.2573910
  C       -1.1365326     0.2517283    -1.2173253
  C       -1.1824500     0.2380150     1.2003390
  C        0.8881070    -0.1264310     0.0000120
  C        1.4779170     1.1432740    -0.0000950
  C        1.6780490    -1.2778510     0.0001130
  C        2.8695240     1.2540050    -0.0001090
  C        3.0687920    -1.1592000     0.0000980
  C        3.6642520     0.1047860    -0.0000090
  H       -3.3852960     1.2227380    -0.0001140
  H       -4.2988450    -0.1479970     0.0000100
  H       -3.1713790     0.1478040    -2.1095990
  H       -2.6546500    -1.3444640    -1.2649060
  H       -2.6546490    -1.3442280     1.2651520
  H       -3.1713850     0.1481950     2.1095680
  H       -0.6521860    -0.1397250    -2.0793070
  H       -1.1612660     1.3434560    -1.2528060
  H       -1.1612790     1.3436960     1.2525480
  H       -0.6521900    -0.1393200     2.0793360
  H        0.8654370     2.0434980    -0.0001730
  H        1.1935250    -2.2508840     0.0001950
  H        3.3333780     2.2368900    -0.0001920
  H        3.6871730    -2.0528130     0.0001780
  H        4.7470650     0.1949390    -0.0000240
units angstrom
no_reorient  #important for SAPT in psi4, default
symmetry c1  #important for SAPT in psi4, default
}

set PROPERTIES_ORIGIN ["COM"]
properties('MP2/aug-cc-pvtz', properties = ['dipole'])
--------------------------------------------------------------------------

    Molecular point group: c1
  Charge       = 1
  Multiplicity = 1
  Basis Set: AUG-CC-PVTZ
    Blend: AUG-CC-PVTZ
  Basis Set: (AUG-CC-PVTZ AUX)
    Blend: AUG-CC-PVTZ-JKFIT

    Orbital Energies [Eh]
    ---------------------

    Doubly Occupied:

       1A    -15.866677     2A    -15.705437     3A    -11.456676
       4A    -11.456186     5A    -11.418382     6A    -11.417491
       7A    -11.378682     8A    -11.344170     9A    -11.339034
      10A    -11.338527    11A    -11.336519    12A    -11.333375
      13A     -1.495972    14A     -1.390734    15A     -1.249256
      16A     -1.217614    17A     -1.151430    18A     -1.119432
      19A     -1.085154    20A     -1.056152    21A     -0.997405
      22A     -0.938841    23A     -0.927744    24A     -0.922478
      25A     -0.869528    26A     -0.822260    27A     -0.817439
      28A     -0.796088    29A     -0.787231    30A     -0.769236
      31A     -0.737864    32A     -0.731090    33A     -0.716265
      34A     -0.706343    35A     -0.689061    36A     -0.688755
      37A     -0.668867    38A     -0.654795    39A     -0.607356
      40A     -0.602064    41A     -0.599965    42A     -0.521799
      43A     -0.440182    44A     -0.437924

  @DF-RHF Final Energy:  -496.25870740985340

   => Energetics <=

    Nuclear Repulsion Energy =            706.3052214890717551
    One-Electron Energy =               -2059.9129020005179882
    Two-Electron Energy =                 857.3489731015928328
    Total Energy =                       -496.2587074098534003
  Basis Set: (AUG-CC-PVTZ AUX)
    Blend: AUG-CC-PVTZ-RI
    Molecular point group: c1

    Geometry (in Angstrom), charge = 1, multiplicity = 1:

       Center              X                  Y                   Z               Mass
    ------------   -----------------  -----------------  -----------------  -----------------
         N           -3.387244089328     0.200862796587     0.001225428087    14.003074004430
         N           -0.608474089328    -0.288238203413     0.001275428087    14.003074004430
         C           -2.676222089328    -0.247078203413    -1.256099571913    12.000000000000
         C           -2.676225089328    -0.246844203413     1.258636428087    12.000000000000
         C           -1.195408689328     0.258379096587    -1.216079871913    12.000000000000
         C           -1.241326089328     0.244665796587     1.201584428087    12.000000000000
         C            0.829230910672    -0.119780203413     0.001257428087    12.000000000000
         C            1.419040910672     1.149924796587     0.001150428087    12.000000000000
         C            1.619172910672    -1.271200203413     0.001358428087    12.000000000000
         C            2.810647910672     1.260655796587     0.001136428087    12.000000000000
         C            3.009915910672    -1.152549203413     0.001343428087    12.000000000000
         C            3.605375910672     0.111436796587     0.001236428087    12.000000000000
         H           -3.444172089328     1.229388796587     0.001131428087     1.007825032230
         H           -4.357721089328    -0.141346203413     0.001255428087     1.007825032230
         H           -3.230255089328     0.154454796587    -2.108353571913     1.007825032230
         H           -2.713526089328    -1.337813203413    -1.263660571913     1.007825032230
         H           -2.713525089328    -1.337577203413     1.266397428087     1.007825032230
         H           -3.230261089328     0.154845796587     2.110813428087     1.007825032230
         H           -0.711062089328    -0.133074203413    -2.078061571913     1.007825032230
         H           -1.220142089328     1.350106796587    -1.251560571913     1.007825032230
         H           -1.220155089328     1.350346796587     1.253793428087     1.007825032230
         H           -0.711066089328    -0.132669203413     2.080581428087     1.007825032230
         H            0.806560910672     2.050148796587     0.001072428087     1.007825032230
         H            1.134648910672    -2.244233203413     0.001440428087     1.007825032230
         H            3.274501910672     2.243540796587     0.001053428087     1.007825032230
         H            3.628296910672    -2.046162203413     0.001423428087     1.007825032230
         H            4.688188910672     0.201589796587     0.001221428087     1.007825032230

  Basis Set: AUG-CC-PVTZ
    Blend: AUG-CC-PVTZ
  Basis Set: (AUG-CC-PVTZ AUX)
    Blend: AUG-CC-PVTZ-JKFIT
	 Reference Energy          =    -496.2587074098534003 [Eh]
	 Singles Energy            =      -0.0000000000000000 [Eh]
	 Same-Spin Energy          =      -0.5391607142191173 [Eh]
	 Opposite-Spin Energy      =      -1.7583715880300081 [Eh]
	 Correlation Energy        =      -2.2975323022491256 [Eh]
	 Total Energy              =    -498.5562397121025242 [Eh]

	 ================> DF-SCS-MP2 Energies <==================
	-----------------------------------------------------------
	 SCS Same-Spin Scale       =       0.3333333333333333 [-]
	 SCS Opposite-Spin Scale   =       1.2000000000000000 [-]
	 SCS Same-Spin Energy      =      -0.1797202380730391 [Eh]
	 SCS Opposite-Spin Energy  =      -2.1100459056360097 [Eh]
	 SCS Correlation Energy    =      -2.2897661437090489 [Eh]
	 SCS Total Energy          =    -498.5484735535624736 [Eh]
	-----------------------------------------------------------

  Dipole Moment: [D]
     X:   -11.4807      Y:     1.1146      Z:     0.0240     Total:    11.5347

*** Psi4 exiting successfully. Buy a developer a beer!
