                               Psi4 1.3.2 release

  ==> Input File <==

--------------------------------------------------------------------------
#psi4
#
memory 32 gb

molecule  {
1 1
  N       -3.3283680     0.1942120    -0.0000200
  N       -0.5495980    -0.2948890     0.0000300
  C       -2.6173460    -0.2537290    -1.2573450
  C       -2.6173490    -0.2534950     1.2573910
  C       -1.2719017     0.2079722    -1.1621423
  C       -1.1824500     0.2380150     1.2003390
  C        0.8881070    -0.1264310     0.0000120
  C        1.4779170     1.1432740    -0.0000950
  C        1.6780490    -1.2778510     0.0001130
  C        2.8695240     1.2540050    -0.0001090
  C        3.0687920    -1.1592000     0.0000980
  C        3.6642520     0.1047860    -0.0000090
  H       -3.3852960     1.2227380    -0.0001140
  H       -4.2988450    -0.1479970     0.0000100
  H       -3.1713790     0.1478040    -2.1095990
  H       -2.6546500    -1.3444640    -1.2649060
  H       -2.6546490    -1.3442280     1.2651520
  H       -3.1713850     0.1481950     2.1095680
  H       -0.6521860    -0.1397250    -2.0793070
  H       -1.1612660     1.3434560    -1.2528060
  H       -1.1612790     1.3436960     1.2525480
  H       -0.6521900    -0.1393200     2.0793360
  H        0.8654370     2.0434980    -0.0001730
  H        1.1935250    -2.2508840     0.0001950
  H        3.3333780     2.2368900    -0.0001920
  H        3.6871730    -2.0528130     0.0001780
  H        4.7470650     0.1949390    -0.0000240
units angstrom
no_reorient  #important for SAPT in psi4, default
symmetry c1  #important for SAPT in psi4, default
}

set PROPERTIES_ORIGIN ["COM"]
properties('MP2/aug-cc-pvtz', properties = ['dipole'])
--------------------------------------------------------------------------

    Molecular point group: c1
  Charge       = 1
  Multiplicity = 1
  Basis Set: AUG-CC-PVTZ
    Blend: AUG-CC-PVTZ
  Basis Set: (AUG-CC-PVTZ AUX)
    Blend: AUG-CC-PVTZ-JKFIT

    Orbital Energies [Eh]
    ---------------------

    Doubly Occupied:

       1A    -15.866097     2A    -15.704859     3A    -11.456984
       4A    -11.456489     5A    -11.419432     6A    -11.415584
       7A    -11.380686     8A    -11.344904     9A    -11.339665
      10A    -11.339131    11A    -11.336895    12A    -11.334223
      13A     -1.501168    14A     -1.389472    15A     -1.251536
      16A     -1.232405    17A     -1.160726    18A     -1.119844
      19A     -1.089640    20A     -1.047281    21A     -0.996765
      22A     -0.938760    23A     -0.927043    24A     -0.924722
      25A     -0.869844    26A     -0.826753    27A     -0.819207
      28A     -0.794070    29A     -0.788654    30A     -0.767517
      31A     -0.747928    32A     -0.739179    33A     -0.718893
      34A     -0.703814    35A     -0.688965    36A     -0.684511
      37A     -0.666423    38A     -0.639815    39A     -0.607303
      40A     -0.604579    41A     -0.601143    42A     -0.517413
      43A     -0.440533    44A     -0.439076

  @DF-RHF Final Energy:  -496.24777407878531

   => Energetics <=

    Nuclear Repulsion Energy =            707.4734684237433839
    One-Electron Energy =               -2062.1626224072933837
    Two-Electron Energy =                 858.4413799047647444
    Total Energy =                       -496.2477740787853691
  Basis Set: (AUG-CC-PVTZ AUX)
    Blend: AUG-CC-PVTZ-RI
    Molecular point group: c1

    Geometry (in Angstrom), charge = 1, multiplicity = 1:

       Center              X                  Y                   Z               Mass
    ------------   -----------------  -----------------  -----------------  -----------------
         N           -3.377285812525     0.204081665262    -0.002834047737    14.003074004430
         N           -0.598515812525    -0.285019334738    -0.002784047737    14.003074004430
         C           -2.666263812525    -0.243859334738    -1.260159047737    12.000000000000
         C           -2.666266812525    -0.243625334738     1.254576952263    12.000000000000
         C           -1.320819512525     0.217841865262    -1.164956347737    12.000000000000
         C           -1.231367812525     0.247884665262     1.197524952263    12.000000000000
         C            0.839189187475    -0.116561334738    -0.002802047737    12.000000000000
         C            1.428999187475     1.153143665262    -0.002909047737    12.000000000000
         C            1.629131187475    -1.267981334738    -0.002701047737    12.000000000000
         C            2.820606187475     1.263874665262    -0.002923047737    12.000000000000
         C            3.019874187475    -1.149330334738    -0.002716047737    12.000000000000
         C            3.615334187475     0.114655665262    -0.002823047737    12.000000000000
         H           -3.434213812525     1.232607665262    -0.002928047737     1.007825032230
         H           -4.347762812525    -0.138127334738    -0.002804047737     1.007825032230
         H           -3.220296812525     0.157673665262    -2.112413047737     1.007825032230
         H           -2.703567812525    -1.334594334738    -1.267720047737     1.007825032230
         H           -2.703566812525    -1.334358334738     1.262337952263     1.007825032230
         H           -3.220302812525     0.158064665262     2.106753952263     1.007825032230
         H           -0.701103812525    -0.129855334738    -2.082121047737     1.007825032230
         H           -1.210183812525     1.353325665262    -1.255620047737     1.007825032230
         H           -1.210196812525     1.353565665262     1.249733952263     1.007825032230
         H           -0.701107812525    -0.129450334738     2.076521952263     1.007825032230
         H            0.816519187475     2.053367665262    -0.002987047737     1.007825032230
         H            1.144607187475    -2.241014334738    -0.002619047737     1.007825032230
         H            3.284460187475     2.246759665262    -0.003006047737     1.007825032230
         H            3.638255187475    -2.042943334738    -0.002636047737     1.007825032230
         H            4.698147187475     0.204808665262    -0.002838047737     1.007825032230

  Basis Set: AUG-CC-PVTZ
    Blend: AUG-CC-PVTZ
  Basis Set: (AUG-CC-PVTZ AUX)
    Blend: AUG-CC-PVTZ-JKFIT
	 Reference Energy          =    -496.2477740787853122 [Eh]
	 Singles Energy            =      -0.0000000000000000 [Eh]
	 Same-Spin Energy          =      -0.5407235704566137 [Eh]
	 Opposite-Spin Energy      =      -1.7597386810668025 [Eh]
	 Correlation Energy        =      -2.3004622515234163 [Eh]
	 Total Energy              =    -498.5482363303087254 [Eh]

	 ================> DF-SCS-MP2 Energies <==================
	-----------------------------------------------------------
	 SCS Same-Spin Scale       =       0.3333333333333333 [-]
	 SCS Opposite-Spin Scale   =       1.2000000000000000 [-]
	 SCS Same-Spin Energy      =      -0.1802411901522046 [Eh]
	 SCS Opposite-Spin Energy  =      -2.1116864172801630 [Eh]
	 SCS Correlation Energy    =      -2.2919276074323678 [Eh]
	 SCS Total Energy          =    -498.5397016862176542 [Eh]
	-----------------------------------------------------------

  Dipole Moment: [D]
     X:   -11.4342      Y:     1.0388      Z:    -0.0406     Total:    11.4814

*** Psi4 exiting successfully. Buy a developer a beer!
