                               Psi4 1.3.2 release

  ==> Input File <==

--------------------------------------------------------------------------
#psi4
#
memory 32 gb

molecule  {
1 1
  N       -3.3283680     0.1942120    -0.0000200
  N       -0.5495980    -0.2948890     0.0000300
  C       -2.6173460    -0.2537290    -1.2573450
  C       -2.6173490    -0.2534950     1.2573910
  C       -1.3153370     0.1921371    -1.1408845
  C       -1.1824500     0.2380150     1.2003390
  C        0.8881070    -0.1264310     0.0000120
  C        1.4779170     1.1432740    -0.0000950
  C        1.6780490    -1.2778510     0.0001130
  C        2.8695240     1.2540050    -0.0001090
  C        3.0687920    -1.1592000     0.0000980
  C        3.6642520     0.1047860    -0.0000090
  H       -3.3852960     1.2227380    -0.0001140
  H       -4.2988450    -0.1479970     0.0000100
  H       -3.1713790     0.1478040    -2.1095990
  H       -2.6546500    -1.3444640    -1.2649060
  H       -2.6546490    -1.3442280     1.2651520
  H       -3.1713850     0.1481950     2.1095680
  H       -0.6521860    -0.1397250    -2.0793070
  H       -1.1612660     1.3434560    -1.2528060
  H       -1.1612790     1.3436960     1.2525480
  H       -0.6521900    -0.1393200     2.0793360
  H        0.8654370     2.0434980    -0.0001730
  H        1.1935250    -2.2508840     0.0001950
  H        3.3333780     2.2368900    -0.0001920
  H        3.6871730    -2.0528130     0.0001780
  H        4.7470650     0.1949390    -0.0000240
units angstrom
no_reorient  #important for SAPT in psi4, default
symmetry c1  #important for SAPT in psi4, default
}

set PROPERTIES_ORIGIN ["COM"]
properties('MP2/aug-cc-pvtz', properties = ['dipole'])
--------------------------------------------------------------------------

    Molecular point group: c1
  Charge       = 1
  Multiplicity = 1
  Basis Set: AUG-CC-PVTZ
    Blend: AUG-CC-PVTZ
  Basis Set: (AUG-CC-PVTZ AUX)
    Blend: AUG-CC-PVTZ-JKFIT

    Orbital Energies [Eh]
    ---------------------

    Doubly Occupied:

       1A    -15.865485     2A    -15.705234     3A    -11.457043
       4A    -11.455679     5A    -11.421422     6A    -11.414792
       7A    -11.381729     8A    -11.345384     9A    -11.340268
      10A    -11.339362    11A    -11.337210    12A    -11.334698
      13A     -1.503244    14A     -1.389474    15A     -1.253568
      16A     -1.238642    17A     -1.163371    18A     -1.120197
      19A     -1.091243    20A     -1.044520    21A     -0.996652
      22A     -0.938890    23A     -0.928259    24A     -0.924418
      25A     -0.870004    26A     -0.828817    27A     -0.819621
      28A     -0.798638    29A     -0.788690    30A     -0.766691
      31A     -0.753083    32A     -0.739688    33A     -0.719251
      34A     -0.703100    35A     -0.689219    36A     -0.682847
      37A     -0.666861    38A     -0.628998    39A     -0.607412
      40A     -0.605344    41A     -0.600511    42A     -0.515566
      43A     -0.440882    44A     -0.439560

  @DF-RHF Final Energy:  -496.23143494485385

   => Energetics <=

    Nuclear Repulsion Energy =            707.9468837054185997
    One-Electron Energy =               -2063.0455087307245776
    Two-Electron Energy =                 858.8671900804520192
    Total Energy =                       -496.2314349448538451
  Basis Set: (AUG-CC-PVTZ AUX)
    Blend: AUG-CC-PVTZ-RI
    Molecular point group: c1

    Geometry (in Angstrom), charge = 1, multiplicity = 1:

       Center              X                  Y                   Z               Mass
    ------------   -----------------  -----------------  -----------------  -----------------
         N           -3.374090543143     0.205246556726    -0.004397854076    14.003074004430
         N           -0.595320543143    -0.283854443274    -0.004347854076    14.003074004430
         C           -2.663068543143    -0.242694443274    -1.261722854076    12.000000000000
         C           -2.663071543143    -0.242460443274     1.253013145924    12.000000000000
         C           -1.361059543143     0.203171656726    -1.145262354076    12.000000000000
         C           -1.228172543143     0.249049556726     1.195961145924    12.000000000000
         C            0.842384456857    -0.115396443274    -0.004365854076    12.000000000000
         C            1.432194456857     1.154308556726    -0.004472854076    12.000000000000
         C            1.632326456857    -1.266816443274    -0.004264854076    12.000000000000
         C            2.823801456857     1.265039556726    -0.004486854076    12.000000000000
         C            3.023069456857    -1.148165443274    -0.004279854076    12.000000000000
         C            3.618529456857     0.115820556726    -0.004386854076    12.000000000000
         H           -3.431018543143     1.233772556726    -0.004491854076     1.007825032230
         H           -4.344567543143    -0.136962443274    -0.004367854076     1.007825032230
         H           -3.217101543143     0.158838556726    -2.113976854076     1.007825032230
         H           -2.700372543143    -1.333429443274    -1.269283854076     1.007825032230
         H           -2.700371543143    -1.333193443274     1.260774145924     1.007825032230
         H           -3.217107543143     0.159229556726     2.105190145924     1.007825032230
         H           -0.697908543143    -0.128690443274    -2.083684854076     1.007825032230
         H           -1.206988543143     1.354490556726    -1.257183854076     1.007825032230
         H           -1.207001543143     1.354730556726     1.248170145924     1.007825032230
         H           -0.697912543143    -0.128285443274     2.074958145924     1.007825032230
         H            0.819714456857     2.054532556726    -0.004550854076     1.007825032230
         H            1.147802456857    -2.239849443274    -0.004182854076     1.007825032230
         H            3.287655456857     2.247924556726    -0.004569854076     1.007825032230
         H            3.641450456857    -2.041778443274    -0.004199854076     1.007825032230
         H            4.701342456857     0.205973556726    -0.004401854076     1.007825032230

  Basis Set: AUG-CC-PVTZ
    Blend: AUG-CC-PVTZ
  Basis Set: (AUG-CC-PVTZ AUX)
    Blend: AUG-CC-PVTZ-JKFIT
	 Reference Energy          =    -496.2314349448538451 [Eh]
	 Singles Energy            =      -0.0000000000000000 [Eh]
	 Same-Spin Energy          =      -0.5417288677119274 [Eh]
	 Opposite-Spin Energy      =      -1.7610527208384847 [Eh]
	 Correlation Energy        =      -2.3027815885504124 [Eh]
	 Total Energy              =    -498.5342165334042761 [Eh]

	 ================> DF-SCS-MP2 Energies <==================
	-----------------------------------------------------------
	 SCS Same-Spin Scale       =       0.3333333333333333 [-]
	 SCS Opposite-Spin Scale   =       1.2000000000000000 [-]
	 SCS Same-Spin Energy      =      -0.1805762892373091 [Eh]
	 SCS Opposite-Spin Energy  =      -2.1132632650061818 [Eh]
	 SCS Correlation Energy    =      -2.2938395542434908 [Eh]
	 SCS Total Energy          =    -498.5252744990973497 [Eh]
	-----------------------------------------------------------

  Dipole Moment: [D]
     X:   -11.3867      Y:     1.0116      Z:    -0.0576     Total:    11.4317

*** Psi4 exiting successfully. Buy a developer a beer!
