                               Psi4 1.3.2 release

  ==> Input File <==

--------------------------------------------------------------------------
#psi4
#
memory 32 gb

molecule  {
1 1
  N       -3.3283680     0.1942120    -0.0000200
  N       -0.5495980    -0.2948890     0.0000300
  C       -2.5703303    -0.2833487    -1.3404846
  C       -2.6173490    -0.2534950     1.2573910
  C       -1.1824450     0.2377860    -1.2003860
  C       -1.1824500     0.2380150     1.2003390
  C        0.8881070    -0.1264310     0.0000120
  C        1.4779170     1.1432740    -0.0000950
  C        1.6780490    -1.2778510     0.0001130
  C        2.8695240     1.2540050    -0.0001090
  C        3.0687920    -1.1592000     0.0000980
  C        3.6642520     0.1047860    -0.0000090
  H       -3.3852960     1.2227380    -0.0001140
  H       -4.2988450    -0.1479970     0.0000100
  H       -3.1713790     0.1478040    -2.1095990
  H       -2.6546500    -1.3444640    -1.2649060
  H       -2.6546490    -1.3442280     1.2651520
  H       -3.1713850     0.1481950     2.1095680
  H       -0.6521860    -0.1397250    -2.0793070
  H       -1.1612660     1.3434560    -1.2528060
  H       -1.1612790     1.3436960     1.2525480
  H       -0.6521900    -0.1393200     2.0793360
  H        0.8654370     2.0434980    -0.0001730
  H        1.1935250    -2.2508840     0.0001950
  H        3.3333780     2.2368900    -0.0001920
  H        3.6871730    -2.0528130     0.0001780
  H        4.7470650     0.1949390    -0.0000240
units angstrom
no_reorient  #important for SAPT in psi4, default
symmetry c1  #important for SAPT in psi4, default
}

set PROPERTIES_ORIGIN ["COM"]
properties('MP2/aug-cc-pvtz', properties = ['dipole'])
--------------------------------------------------------------------------

    Molecular point group: c1
  Charge       = 1
  Multiplicity = 1
  Basis Set: AUG-CC-PVTZ
    Blend: AUG-CC-PVTZ
  Basis Set: (AUG-CC-PVTZ AUX)
    Blend: AUG-CC-PVTZ-JKFIT

    Orbital Energies [Eh]
    ---------------------

    Doubly Occupied:

       1A    -15.854921     2A    -15.706525     3A    -11.463875
       4A    -11.452412     5A    -11.418462     6A    -11.415665
       7A    -11.379994     8A    -11.344868     9A    -11.339453
      10A    -11.339369    11A    -11.337051    12A    -11.334043
      13A     -1.476401    14A     -1.389258    15A     -1.250442
      16A     -1.223871    17A     -1.156025    18A     -1.119994
      19A     -1.087957    20A     -1.049081    21A     -0.992929
      22A     -0.936450    23A     -0.923617    24A     -0.916219
      25A     -0.865245    26A     -0.823241    27A     -0.816449
      28A     -0.796906    29A     -0.781092    30A     -0.765647
      31A     -0.742853    32A     -0.739338    33A     -0.718791
      34A     -0.710075    35A     -0.691567    36A     -0.687722
      37A     -0.664797    38A     -0.652833    39A     -0.607798
      40A     -0.603353    41A     -0.601979    42A     -0.522246
      43A     -0.440705    44A     -0.438863

  @DF-RHF Final Energy:  -496.25389670413688

   => Energetics <=

    Nuclear Repulsion Energy =            705.6959758571186967
    One-Electron Energy =               -2058.7389894824395924
    Two-Electron Energy =                 856.7891169211839042
    Total Energy =                       -496.2538967041368778
  Basis Set: (AUG-CC-PVTZ AUX)
    Blend: AUG-CC-PVTZ-RI
    Molecular point group: c1

    Geometry (in Angstrom), charge = 1, multiplicity = 1:

       Center              X                  Y                   Z               Mass
    ------------   -----------------  -----------------  -----------------  -----------------
         N           -3.387325252361     0.204067386512     0.006095379293    14.003074004430
         N           -0.608555252361    -0.285033613488     0.006145379293    14.003074004430
         C           -2.629287552361    -0.273493313488    -1.334369220707    12.000000000000
         C           -2.676306252361    -0.243639613488     1.263506379293    12.000000000000
         C           -1.241402252361     0.247641386512    -1.194270620707    12.000000000000
         C           -1.241407252361     0.247870386512     1.206454379293    12.000000000000
         C            0.829149747639    -0.116575613488     0.006127379293    12.000000000000
         C            1.418959747639     1.153129386512     0.006020379293    12.000000000000
         C            1.619091747639    -1.267995613488     0.006228379293    12.000000000000
         C            2.810566747639     1.263860386512     0.006006379293    12.000000000000
         C            3.009834747639    -1.149344613488     0.006213379293    12.000000000000
         C            3.605294747639     0.114641386512     0.006106379293    12.000000000000
         H           -3.444253252361     1.232593386512     0.006001379293     1.007825032230
         H           -4.357802252361    -0.138141613488     0.006125379293     1.007825032230
         H           -3.230336252361     0.157659386512    -2.103483620707     1.007825032230
         H           -2.713607252361    -1.334608613488    -1.258790620707     1.007825032230
         H           -2.713606252361    -1.334372613488     1.271267379293     1.007825032230
         H           -3.230342252361     0.158050386512     2.115683379293     1.007825032230
         H           -0.711143252361    -0.129869613488    -2.073191620707     1.007825032230
         H           -1.220223252361     1.353311386512    -1.246690620707     1.007825032230
         H           -1.220236252361     1.353551386512     1.258663379293     1.007825032230
         H           -0.711147252361    -0.129464613488     2.085451379293     1.007825032230
         H            0.806479747639     2.053353386512     0.005942379293     1.007825032230
         H            1.134567747639    -2.241028613488     0.006310379293     1.007825032230
         H            3.274420747639     2.246745386512     0.005923379293     1.007825032230
         H            3.628215747639    -2.042957613488     0.006293379293     1.007825032230
         H            4.688107747639     0.204794386512     0.006091379293     1.007825032230

  Basis Set: AUG-CC-PVTZ
    Blend: AUG-CC-PVTZ
  Basis Set: (AUG-CC-PVTZ AUX)
    Blend: AUG-CC-PVTZ-JKFIT
	 Reference Energy          =    -496.2538967041368778 [Eh]
	 Singles Energy            =      -0.0000000000000000 [Eh]
	 Same-Spin Energy          =      -0.5392339186030324 [Eh]
	 Opposite-Spin Energy      =      -1.7588790496380167 [Eh]
	 Correlation Energy        =      -2.2981129682410488 [Eh]
	 Total Energy              =    -498.5520096723779488 [Eh]

	 ================> DF-SCS-MP2 Energies <==================
	-----------------------------------------------------------
	 SCS Same-Spin Scale       =       0.3333333333333333 [-]
	 SCS Opposite-Spin Scale   =       1.2000000000000000 [-]
	 SCS Same-Spin Energy      =      -0.1797446395343441 [Eh]
	 SCS Opposite-Spin Energy  =      -2.1106548595656198 [Eh]
	 SCS Correlation Energy    =      -2.2903994990999639 [Eh]
	 SCS Total Energy          =    -498.5442962032368541 [Eh]
	-----------------------------------------------------------

  Dipole Moment: [D]
     X:   -11.3456      Y:     1.0475      Z:    -0.2060     Total:    11.3957

*** Psi4 exiting successfully. Buy a developer a beer!
