                               Psi4 1.3.2 release

  ==> Input File <==

--------------------------------------------------------------------------
#psi4
#
memory 32 gb

molecule  {
1 1
  N       -3.3283680     0.1942120    -0.0000200
  N       -0.5495980    -0.2948890     0.0000300
  C       -2.6147794    -0.2284844    -1.2646103
  C       -2.6173490    -0.2534950     1.2573910
  C       -1.1824450     0.2377860    -1.2003860
  C       -1.1824500     0.2380150     1.2003390
  C        0.8881070    -0.1264310     0.0000120
  C        1.4779170     1.1432740    -0.0000950
  C        1.6780490    -1.2778510     0.0001130
  C        2.8695240     1.2540050    -0.0001090
  C        3.0687920    -1.1592000     0.0000980
  C        3.6642520     0.1047860    -0.0000090
  H       -3.3852960     1.2227380    -0.0001140
  H       -4.2988450    -0.1479970     0.0000100
  H       -3.1713790     0.1478040    -2.1095990
  H       -2.6546500    -1.3444640    -1.2649060
  H       -2.6546490    -1.3442280     1.2651520
  H       -3.1713850     0.1481950     2.1095680
  H       -0.6521860    -0.1397250    -2.0793070
  H       -1.1612660     1.3434560    -1.2528060
  H       -1.1612790     1.3436960     1.2525480
  H       -0.6521900    -0.1393200     2.0793360
  H        0.8654370     2.0434980    -0.0001730
  H        1.1935250    -2.2508840     0.0001950
  H        3.3333780     2.2368900    -0.0001920
  H        3.6871730    -2.0528130     0.0001780
  H        4.7470650     0.1949390    -0.0000240
units angstrom
no_reorient  #important for SAPT in psi4, default
symmetry c1  #important for SAPT in psi4, default
}

set PROPERTIES_ORIGIN ["COM"]
properties('MP2/aug-cc-pvtz', properties = ['dipole'])
--------------------------------------------------------------------------

    Molecular point group: c1
  Charge       = 1
  Multiplicity = 1
  Basis Set: AUG-CC-PVTZ
    Blend: AUG-CC-PVTZ
  Basis Set: (AUG-CC-PVTZ AUX)
    Blend: AUG-CC-PVTZ-JKFIT

    Orbital Energies [Eh]
    ---------------------

    Doubly Occupied:

       1A    -15.866745     2A    -15.705346     3A    -11.457400
       4A    -11.456997     5A    -11.417490     6A    -11.416981
       7A    -11.379292     8A    -11.344362     9A    -11.338997
      10A    -11.338883    11A    -11.336588    12A    -11.333639
      13A     -1.497732    14A     -1.390303    15A     -1.249819
      16A     -1.222826    17A     -1.155153    18A     -1.119508
      19A     -1.086503    20A     -1.053466    21A     -0.995964
      22A     -0.938923    23A     -0.927532    24A     -0.924084
      25A     -0.870531    26A     -0.820788    27A     -0.817687
      28A     -0.793730    29A     -0.789826    30A     -0.768966
      31A     -0.739108    32A     -0.737123    33A     -0.717555
      34A     -0.703167    35A     -0.688721    36A     -0.684660
      37A     -0.661833    38A     -0.660618    39A     -0.607357
      40A     -0.602406    41A     -0.601764    42A     -0.520622
      43A     -0.440225    44A     -0.438392

  @DF-RHF Final Energy:  -496.25993204587758

   => Energetics <=

    Nuclear Repulsion Energy =            706.7013046534747218
    One-Electron Energy =               -2060.6832465874699665
    Two-Electron Energy =                 857.7220098881175545
    Total Energy =                       -496.2599320458775765
  Basis Set: (AUG-CC-PVTZ AUX)
    Blend: AUG-CC-PVTZ-RI
    Molecular point group: c1

    Geometry (in Angstrom), charge = 1, multiplicity = 1:

       Center              X                  Y                   Z               Mass
    ------------   -----------------  -----------------  -----------------  -----------------
         N           -3.384055403914     0.200031355498     0.000513771071    14.003074004430
         N           -0.605285403914    -0.289069644502     0.000563771071    14.003074004430
         C           -2.670466803914    -0.222665044502    -1.264076528929    12.000000000000
         C           -2.673036403914    -0.247675644502     1.257924771071    12.000000000000
         C           -1.238132403914     0.243605355498    -1.199852228929    12.000000000000
         C           -1.238137403914     0.243834355498     1.200872771071    12.000000000000
         C            0.832419596086    -0.120611644502     0.000545771071    12.000000000000
         C            1.422229596086     1.149093355498     0.000438771071    12.000000000000
         C            1.622361596086    -1.272031644502     0.000646771071    12.000000000000
         C            2.813836596086     1.259824355498     0.000424771071    12.000000000000
         C            3.013104596086    -1.153380644502     0.000631771071    12.000000000000
         C            3.608564596086     0.110605355498     0.000524771071    12.000000000000
         H           -3.440983403914     1.228557355498     0.000419771071     1.007825032230
         H           -4.354532403914    -0.142177644502     0.000543771071     1.007825032230
         H           -3.227066403914     0.153623355498    -2.109065228929     1.007825032230
         H           -2.710337403914    -1.338644644502    -1.264372228929     1.007825032230
         H           -2.710336403914    -1.338408644502     1.265685771071     1.007825032230
         H           -3.227072403914     0.154014355498     2.110101771071     1.007825032230
         H           -0.707873403914    -0.133905644502    -2.078773228929     1.007825032230
         H           -1.216953403914     1.349275355498    -1.252272228929     1.007825032230
         H           -1.216966403914     1.349515355498     1.253081771071     1.007825032230
         H           -0.707877403914    -0.133500644502     2.079869771071     1.007825032230
         H            0.809749596086     2.049317355498     0.000360771071     1.007825032230
         H            1.137837596086    -2.245064644502     0.000728771071     1.007825032230
         H            3.277690596086     2.242709355498     0.000341771071     1.007825032230
         H            3.631485596086    -2.046993644502     0.000711771071     1.007825032230
         H            4.691377596086     0.200758355498     0.000509771071     1.007825032230

  Basis Set: AUG-CC-PVTZ
    Blend: AUG-CC-PVTZ
  Basis Set: (AUG-CC-PVTZ AUX)
    Blend: AUG-CC-PVTZ-JKFIT
	 Reference Energy          =    -496.2599320458775765 [Eh]
	 Singles Energy            =      -0.0000000000000000 [Eh]
	 Same-Spin Energy          =      -0.5395400746138923 [Eh]
	 Opposite-Spin Energy      =      -1.7585089615795961 [Eh]
	 Correlation Energy        =      -2.2980490361934884 [Eh]
	 Total Energy              =    -498.5579810820710804 [Eh]

	 ================> DF-SCS-MP2 Energies <==================
	-----------------------------------------------------------
	 SCS Same-Spin Scale       =       0.3333333333333333 [-]
	 SCS Opposite-Spin Scale   =       1.2000000000000000 [-]
	 SCS Same-Spin Energy      =      -0.1798466915379641 [Eh]
	 SCS Opposite-Spin Energy  =      -2.1102107538955153 [Eh]
	 SCS Correlation Energy    =      -2.2900574454334794 [Eh]
	 SCS Total Energy          =    -498.5499894913110666 [Eh]
	-----------------------------------------------------------

  Dipole Moment: [D]
     X:   -11.4773      Y:     1.0984      Z:    -0.0003     Total:    11.5298

*** Psi4 exiting successfully. Buy a developer a beer!
