                               Psi4 1.4a3.dev225

  ==> Input File <==

--------------------------------------------------------------------------
#psi4
#
memory 32 gb

molecule  {
1 1
  N       -3.3283680     0.1942120    -0.0000200
  N       -0.5495980    -0.2948890     0.0000300
  C       -2.6408539    -0.2389191    -1.2157752
  C       -2.6173490    -0.2534950     1.2573910
  C       -1.1824450     0.2377860    -1.2003860
  C       -1.1824500     0.2380150     1.2003390
  C        0.8881070    -0.1264310     0.0000120
  C        1.4779170     1.1432740    -0.0000950
  C        1.6780490    -1.2778510     0.0001130
  C        2.8695240     1.2540050    -0.0001090
  C        3.0687920    -1.1592000     0.0000980
  C        3.6642520     0.1047860    -0.0000090
  H       -3.3852960     1.2227380    -0.0001140
  H       -4.2988450    -0.1479970     0.0000100
  H       -3.1713790     0.1478040    -2.1095990
  H       -2.6546500    -1.3444640    -1.2649060
  H       -2.6546490    -1.3442280     1.2651520
  H       -3.1713850     0.1481950     2.1095680
  H       -0.6521860    -0.1397250    -2.0793070
  H       -1.1612660     1.3434560    -1.2528060
  H       -1.1612790     1.3436960     1.2525480
  H       -0.6521900    -0.1393200     2.0793360
  H        0.8654370     2.0434980    -0.0001730
  H        1.1935250    -2.2508840     0.0001950
  H        3.3333780     2.2368900    -0.0001920
  H        3.6871730    -2.0528130     0.0001780
  H        4.7470650     0.1949390    -0.0000240
units angstrom
no_reorient  #important for SAPT in psi4, default
symmetry c1  #important for SAPT in psi4, default
}

set PROPERTIES_ORIGIN ["COM"]
properties('MP2/aug-cc-pvtz', properties = ['dipole'])
--------------------------------------------------------------------------

    Molecular point group: c1
  Charge       = 1
  Multiplicity = 1
  Basis Set: AUG-CC-PVTZ
    Blend: AUG-CC-PVTZ
  Basis Set: (AUG-CC-PVTZ AUX)
    Blend: AUG-CC-PVTZ-JKFIT

    Orbital Energies [Eh]
    ---------------------

    Doubly Occupied:

       1A    -15.871112     2A    -15.704315     3A    -11.458674
       4A    -11.454472     5A    -11.418176     6A    -11.417524
       7A    -11.378789     8A    -11.344062     9A    -11.338774
      10A    -11.338560    11A    -11.336350    12A    -11.333369
      13A     -1.509745    14A     -1.390436    15A     -1.249496
      16A     -1.221231    17A     -1.153504    18A     -1.119245
      19A     -1.085910    20A     -1.055930    21A     -1.000005
      22A     -0.941773    23A     -0.930658    24A     -0.923893
      25A     -0.871824    26A     -0.826741    27A     -0.819296
      28A     -0.791785    29A     -0.789759    30A     -0.769790
      31A     -0.737015    32A     -0.731726    33A     -0.716822
      34A     -0.704365    35A     -0.688748    36A     -0.683647
      37A     -0.663175    38A     -0.656901    39A     -0.607025
      40A     -0.601718    41A     -0.600938    42A     -0.519721
      43A     -0.439978    44A     -0.438009

  @DF-RHF Final Energy:  -496.25873285960103

   => Energetics <=

    Nuclear Repulsion Energy =            707.1486958914586012
    One-Electron Energy =               -2061.5448826046285831
    Two-Electron Energy =                 858.1374538535690135
    Total Energy =                       -496.2587328596009684
  Basis Set: (AUG-CC-PVTZ AUX)
    Blend: AUG-CC-PVTZ-RI
    Molecular point group: c1

    Geometry (in Angstrom), charge = 1, multiplicity = 1:

       Center              X                  Y                   Z               Mass
    ------------   -----------------  -----------------  -----------------  -----------------
         N           -3.382137262414     0.200798972561    -0.003078728573    14.003074004430
         N           -0.603367262414    -0.288302027439    -0.003028728573    14.003074004430
         C           -2.694623162414    -0.232332127439    -1.218833928573    12.000000000000
         C           -2.671118262414    -0.246908027439     1.254332271427    12.000000000000
         C           -1.236214262414     0.244372972561    -1.203444728573    12.000000000000
         C           -1.236219262414     0.244601972561     1.197280271427    12.000000000000
         C            0.834337737586    -0.119844027439    -0.003046728573    12.000000000000
         C            1.424147737586     1.149860972561    -0.003153728573    12.000000000000
         C            1.624279737586    -1.271264027439    -0.002945728573    12.000000000000
         C            2.815754737586     1.260591972561    -0.003167728573    12.000000000000
         C            3.015022737586    -1.152613027439    -0.002960728573    12.000000000000
         C            3.610482737586     0.111372972561    -0.003067728573    12.000000000000
         H           -3.439065262414     1.229324972561    -0.003172728573     1.007825032230
         H           -4.352614262414    -0.141410027439    -0.003048728573     1.007825032230
         H           -3.225148262414     0.154390972561    -2.112657728573     1.007825032230
         H           -2.708419262414    -1.337877027439    -1.267964728573     1.007825032230
         H           -2.708418262414    -1.337641027439     1.262093271427     1.007825032230
         H           -3.225154262414     0.154781972561     2.106509271427     1.007825032230
         H           -0.705955262414    -0.133138027439    -2.082365728573     1.007825032230
         H           -1.215035262414     1.350042972561    -1.255864728573     1.007825032230
         H           -1.215048262414     1.350282972561     1.249489271427     1.007825032230
         H           -0.705959262414    -0.132733027439     2.076277271427     1.007825032230
         H            0.811667737586     2.050084972561    -0.003231728573     1.007825032230
         H            1.139755737586    -2.244297027439    -0.002863728573     1.007825032230
         H            3.279608737586     2.243476972561    -0.003250728573     1.007825032230
         H            3.633403737586    -2.046226027439    -0.002880728573     1.007825032230
         H            4.693295737586     0.201525972561    -0.003082728573     1.007825032230

  Basis Set: AUG-CC-PVTZ
    Blend: AUG-CC-PVTZ
  Basis Set: (AUG-CC-PVTZ AUX)
    Blend: AUG-CC-PVTZ-JKFIT
	 Reference Energy          =    -496.2587328596010252 [Eh]
	 Singles Energy            =      -0.0000000000000000 [Eh]
	 Same-Spin Energy          =      -0.5397466941414406 [Eh]
	 Opposite-Spin Energy      =      -1.7584824062702287 [Eh]
	 Correlation Energy        =      -2.2982291004116693 [Eh]
	 Total Energy              =    -498.5569619600126998 [Eh]

	 ================> DF-SCS-MP2 Energies <==================
	-----------------------------------------------------------
	 SCS Same-Spin Scale       =       0.3333333333333333 [-]
	 SCS Opposite-Spin Scale   =       1.2000000000000000 [-]
	 SCS Same-Spin Energy      =      -0.1799155647138135 [Eh]
	 SCS Opposite-Spin Energy  =      -2.1101788875242744 [Eh]
	 SCS Correlation Energy    =      -2.2900944522380877 [Eh]
	 SCS Total Energy          =    -498.5488273118390907 [Eh]
	-----------------------------------------------------------

  Dipole Moment: [D]
     X:   -11.5303      Y:     1.1071      Z:     0.0858     Total:    11.5837

*** Psi4 exiting successfully. Buy a developer a beer!
