                               Psi4 1.3.2 release

  ==> Input File <==

--------------------------------------------------------------------------
#psi4
#
memory 32 gb

molecule  {
1 1
  N       -3.3283680     0.1942120    -0.0000200
  N       -0.6539332    -0.2172075     0.0798065
  C       -2.6173460    -0.2537290    -1.2573450
  C       -2.6173490    -0.2534950     1.2573910
  C       -1.1824450     0.2377860    -1.2003860
  C       -1.1824500     0.2380150     1.2003390
  C        0.8881070    -0.1264310     0.0000120
  C        1.4779170     1.1432740    -0.0000950
  C        1.6780490    -1.2778510     0.0001130
  C        2.8695240     1.2540050    -0.0001090
  C        3.0687920    -1.1592000     0.0000980
  C        3.6642520     0.1047860    -0.0000090
  H       -3.3852960     1.2227380    -0.0001140
  H       -4.2988450    -0.1479970     0.0000100
  H       -3.1713790     0.1478040    -2.1095990
  H       -2.6546500    -1.3444640    -1.2649060
  H       -2.6546490    -1.3442280     1.2651520
  H       -3.1713850     0.1481950     2.1095680
  H       -0.6521860    -0.1397250    -2.0793070
  H       -1.1612660     1.3434560    -1.2528060
  H       -1.1612790     1.3436960     1.2525480
  H       -0.6521900    -0.1393200     2.0793360
  H        0.8654370     2.0434980    -0.0001730
  H        1.1935250    -2.2508840     0.0001950
  H        3.3333780     2.2368900    -0.0001920
  H        3.6871730    -2.0528130     0.0001780
  H        4.7470650     0.1949390    -0.0000240
units angstrom
no_reorient  #important for SAPT in psi4, default
symmetry c1  #important for SAPT in psi4, default
}

set PROPERTIES_ORIGIN ["COM"]
properties('MP2/aug-cc-pvtz', properties = ['dipole'])
--------------------------------------------------------------------------

    Molecular point group: c1
  Charge       = 1
  Multiplicity = 1
  Basis Set: AUG-CC-PVTZ
    Blend: AUG-CC-PVTZ
  Basis Set: (AUG-CC-PVTZ AUX)
    Blend: AUG-CC-PVTZ-JKFIT

    Orbital Energies [Eh]
    ---------------------

    Doubly Occupied:

       1A    -15.864410     2A    -15.698327     3A    -11.454123
       4A    -11.450305     5A    -11.420358     6A    -11.406810
       7A    -11.389289     8A    -11.347760     9A    -11.345189
      10A    -11.341609    11A    -11.340635    12A    -11.336774
      13A     -1.498392    14A     -1.405607    15A     -1.255276
      16A     -1.224586    17A     -1.144301    18A     -1.122497
      19A     -1.093327    20A     -1.060392    21A     -0.988858
      22A     -0.938590    23A     -0.928372    24A     -0.923876
      25A     -0.865412    26A     -0.822979    27A     -0.818687
      28A     -0.802923    29A     -0.798984    30A     -0.771714
      31A     -0.736421    32A     -0.732487    33A     -0.720484
      34A     -0.708057    35A     -0.692712    36A     -0.692056
      37A     -0.675472    38A     -0.645915    39A     -0.609018
      40A     -0.605767    41A     -0.592440    42A     -0.508666
      43A     -0.443632    44A     -0.442944

  @DF-RHF Final Energy:  -496.23663202752147

   => Energetics <=

    Nuclear Repulsion Energy =            707.5683413466095999
    One-Electron Energy =               -2062.2770787406811905
    Two-Electron Energy =                 858.4721053665501813
    Total Energy =                       -496.2366320275215230
  Basis Set: (AUG-CC-PVTZ AUX)
    Blend: AUG-CC-PVTZ-RI
    Molecular point group: c1

    Geometry (in Angstrom), charge = 1, multiplicity = 1:

       Center              X                  Y                   Z               Mass
    ------------   -----------------  -----------------  -----------------  -----------------
         N           -3.374910109018     0.195220004097    -0.006868976724    14.003074004430
         N           -0.700475309018    -0.216199495903     0.072957523276    14.003074004430
         C           -2.663888109018    -0.252720995903    -1.264193976724    12.000000000000
         C           -2.663891109018    -0.252486995903     1.250542023276    12.000000000000
         C           -1.228987109018     0.238794004097    -1.207234976724    12.000000000000
         C           -1.228992109018     0.239023004097     1.193490023276    12.000000000000
         C            0.841564890982    -0.125422995903    -0.006836976724    12.000000000000
         C            1.431374890982     1.144282004097    -0.006943976724    12.000000000000
         C            1.631506890982    -1.276842995903    -0.006735976724    12.000000000000
         C            2.822981890982     1.255013004097    -0.006957976724    12.000000000000
         C            3.022249890982    -1.158191995903    -0.006750976724    12.000000000000
         C            3.617709890982     0.105794004097    -0.006857976724    12.000000000000
         H           -3.431838109018     1.223746004097    -0.006962976724     1.007825032230
         H           -4.345387109018    -0.146988995903    -0.006838976724     1.007825032230
         H           -3.217921109018     0.148812004097    -2.116447976724     1.007825032230
         H           -2.701192109018    -1.343455995903    -1.271754976724     1.007825032230
         H           -2.701191109018    -1.343219995903     1.258303023276     1.007825032230
         H           -3.217927109018     0.149203004097     2.102719023276     1.007825032230
         H           -0.698728109018    -0.138716995903    -2.086155976724     1.007825032230
         H           -1.207808109018     1.344464004097    -1.259654976724     1.007825032230
         H           -1.207821109018     1.344704004097     1.245699023276     1.007825032230
         H           -0.698732109018    -0.138311995903     2.072487023276     1.007825032230
         H            0.818894890982     2.044506004097    -0.007021976724     1.007825032230
         H            1.146982890982    -2.249875995903    -0.006653976724     1.007825032230
         H            3.286835890982     2.237898004097    -0.007040976724     1.007825032230
         H            3.640630890982    -2.051804995903    -0.006670976724     1.007825032230
         H            4.700522890982     0.195947004097    -0.006872976724     1.007825032230

  Basis Set: AUG-CC-PVTZ
    Blend: AUG-CC-PVTZ
  Basis Set: (AUG-CC-PVTZ AUX)
    Blend: AUG-CC-PVTZ-JKFIT
	 Reference Energy          =    -496.2366320275214662 [Eh]
	 Singles Energy            =      -0.0000000000000000 [Eh]
	 Same-Spin Energy          =      -0.5403536617570519 [Eh]
	 Opposite-Spin Energy      =      -1.7594003210049098 [Eh]
	 Correlation Energy        =      -2.2997539827619615 [Eh]
	 Total Energy              =    -498.5363860102834224 [Eh]

	 ================> DF-SCS-MP2 Energies <==================
	-----------------------------------------------------------
	 SCS Same-Spin Scale       =       0.3333333333333333 [-]
	 SCS Opposite-Spin Scale   =       1.2000000000000000 [-]
	 SCS Same-Spin Energy      =      -0.1801178872523506 [Eh]
	 SCS Opposite-Spin Energy  =      -2.1112803852058919 [Eh]
	 SCS Correlation Energy    =      -2.2913982724582427 [Eh]
	 SCS Total Energy          =    -498.5280302999797186 [Eh]
	-----------------------------------------------------------

  Dipole Moment: [D]
     X:   -10.9653      Y:     0.8332      Z:    -0.2690     Total:    11.0002

*** Psi4 exiting successfully. Buy a developer a beer!
