                               Psi4 1.3.2 release

  ==> Input File <==

--------------------------------------------------------------------------
#psi4
#
memory 32 gb

molecule  {
1 1
  N       -3.3283680     0.1942120    -0.0000200
  N       -0.5464390    -0.3199548     0.0000321
  C       -2.6173460    -0.2537290    -1.2573450
  C       -2.6173490    -0.2534950     1.2573910
  C       -1.1824450     0.2377860    -1.2003860
  C       -1.1824500     0.2380150     1.2003390
  C        0.8881070    -0.1264310     0.0000120
  C        1.4779170     1.1432740    -0.0000950
  C        1.6780490    -1.2778510     0.0001130
  C        2.8695240     1.2540050    -0.0001090
  C        3.0687920    -1.1592000     0.0000980
  C        3.6642520     0.1047860    -0.0000090
  H       -3.3852960     1.2227380    -0.0001140
  H       -4.2988450    -0.1479970     0.0000100
  H       -3.1713790     0.1478040    -2.1095990
  H       -2.6546500    -1.3444640    -1.2649060
  H       -2.6546490    -1.3442280     1.2651520
  H       -3.1713850     0.1481950     2.1095680
  H       -0.6521860    -0.1397250    -2.0793070
  H       -1.1612660     1.3434560    -1.2528060
  H       -1.1612790     1.3436960     1.2525480
  H       -0.6521900    -0.1393200     2.0793360
  H        0.8654370     2.0434980    -0.0001730
  H        1.1935250    -2.2508840     0.0001950
  H        3.3333780     2.2368900    -0.0001920
  H        3.6871730    -2.0528130     0.0001780
  H        4.7470650     0.1949390    -0.0000240
units angstrom
no_reorient  #important for SAPT in psi4, default
symmetry c1  #important for SAPT in psi4, default
}

set PROPERTIES_ORIGIN ["COM"]
properties('MP2/aug-cc-pvtz', properties = ['dipole'])
--------------------------------------------------------------------------

    Molecular point group: c1
  Charge       = 1
  Multiplicity = 1
  Basis Set: AUG-CC-PVTZ
    Blend: AUG-CC-PVTZ
  Basis Set: (AUG-CC-PVTZ AUX)
    Blend: AUG-CC-PVTZ-JKFIT

    Orbital Energies [Eh]
    ---------------------

    Doubly Occupied:

       1A    -15.866741     2A    -15.707618     3A    -11.456875
       4A    -11.456865     5A    -11.417806     6A    -11.417792
       7A    -11.378860     8A    -11.344631     9A    -11.339096
      10A    -11.338155    11A    -11.336216    12A    -11.333344
      13A     -1.497446    14A     -1.387502    15A     -1.249282
      16A     -1.221206    17A     -1.154888    18A     -1.119351
      19A     -1.085945    20A     -1.051540    21A     -0.997861
      22A     -0.938988    23A     -0.926955    24A     -0.922681
      25A     -0.870083    26A     -0.823732    27A     -0.817900
      28A     -0.790959    29A     -0.786088    30A     -0.768242
      31A     -0.738339    32A     -0.735318    33A     -0.717208
      34A     -0.705584    35A     -0.688696    36A     -0.688552
      37A     -0.659920    38A     -0.657400    39A     -0.607469
      40A     -0.601397    41A     -0.600962    42A     -0.524727
      43A     -0.440099    44A     -0.437805

  @DF-RHF Final Energy:  -496.25976561235950

   => Energetics <=

    Nuclear Repulsion Energy =            706.3547800719181851
    One-Electron Energy =               -2060.0128419543570999
    Two-Electron Energy =                 857.3982962700794133
    Total Energy =                       -496.2597656123595016
  Basis Set: (AUG-CC-PVTZ AUX)
    Blend: AUG-CC-PVTZ-RI
    Molecular point group: c1

    Geometry (in Angstrom), charge = 1, multiplicity = 1:

       Center              X                  Y                   Z               Mass
    ------------   -----------------  -----------------  -----------------  -----------------
         N           -3.384137774074     0.204040179231    -0.000020872888    14.003074004430
         N           -0.602208774074    -0.310126620769     0.000031227112    14.003074004430
         C           -2.673115774074    -0.243900820769    -1.257345872888    12.000000000000
         C           -2.673118774074    -0.243666820769     1.257390127112    12.000000000000
         C           -1.238214774074     0.247614179231    -1.200386872888    12.000000000000
         C           -1.238219774074     0.247843179231     1.200338127112    12.000000000000
         C            0.832337225926    -0.116602820769     0.000011127112    12.000000000000
         C            1.422147225926     1.153102179231    -0.000095872888    12.000000000000
         C            1.622279225926    -1.268022820769     0.000112127112    12.000000000000
         C            2.813754225926     1.263833179231    -0.000109872888    12.000000000000
         C            3.013022225926    -1.149371820769     0.000097127112    12.000000000000
         C            3.608482225926     0.114614179231    -0.000009872888    12.000000000000
         H           -3.441065774074     1.232566179231    -0.000114872888     1.007825032230
         H           -4.354614774074    -0.138168820769     0.000009127112     1.007825032230
         H           -3.227148774074     0.157632179231    -2.109599872888     1.007825032230
         H           -2.710419774074    -1.334635820769    -1.264906872888     1.007825032230
         H           -2.710418774074    -1.334399820769     1.265151127112     1.007825032230
         H           -3.227154774074     0.158023179231     2.109567127112     1.007825032230
         H           -0.707955774074    -0.129896820769    -2.079307872888     1.007825032230
         H           -1.217035774074     1.353284179231    -1.252806872888     1.007825032230
         H           -1.217048774074     1.353524179231     1.252547127112     1.007825032230
         H           -0.707959774074    -0.129491820769     2.079335127112     1.007825032230
         H            0.809667225926     2.053326179231    -0.000173872888     1.007825032230
         H            1.137755225926    -2.241055820769     0.000194127112     1.007825032230
         H            3.277608225926     2.246718179231    -0.000192872888     1.007825032230
         H            3.631403225926    -2.042984820769     0.000177127112     1.007825032230
         H            4.691295225926     0.204767179231    -0.000024872888     1.007825032230

  Basis Set: AUG-CC-PVTZ
    Blend: AUG-CC-PVTZ
  Basis Set: (AUG-CC-PVTZ AUX)
    Blend: AUG-CC-PVTZ-JKFIT
	 Reference Energy          =    -496.2597656123595016 [Eh]
	 Singles Energy            =      -0.0000000000000000 [Eh]
	 Same-Spin Energy          =      -0.5395267620672490 [Eh]
	 Opposite-Spin Energy      =      -1.7588730510253172 [Eh]
	 Correlation Energy        =      -2.2983998130925665 [Eh]
	 Total Energy              =    -498.5581654254520458 [Eh]

	 ================> DF-SCS-MP2 Energies <==================
	-----------------------------------------------------------
	 SCS Same-Spin Scale       =       0.3333333333333333 [-]
	 SCS Opposite-Spin Scale   =       1.2000000000000000 [-]
	 SCS Same-Spin Energy      =      -0.1798422540224163 [Eh]
	 SCS Opposite-Spin Energy  =      -2.1106476612303804 [Eh]
	 SCS Correlation Energy    =      -2.2904899152527967 [Eh]
	 SCS Total Energy          =    -498.5502555276123076 [Eh]
	-----------------------------------------------------------

  Dipole Moment: [D]
     X:   -11.5066      Y:     1.1574      Z:    -0.0001     Total:    11.5647

*** Psi4 exiting successfully. Buy a developer a beer!
