                               Psi4 1.3.2 release

  ==> Input File <==

--------------------------------------------------------------------------
#psi4
#
memory 32 gb

molecule  {
1 1
  N       -3.3283680     0.1942120    -0.0000200
  N       -0.5495980    -0.2948890     0.0000300
  C       -2.6173460    -0.2537290    -1.2573450
  C       -2.6173490    -0.2534950     1.2573910
  C       -1.1824450     0.2377860    -1.2003860
  C       -1.1824500     0.2380150     1.2003390
  C        0.8881070    -0.1264310     0.0000120
  C        1.4779170     1.1432740    -0.0000950
  C        1.6780490    -1.2778510     0.0001130
  C        2.8695240     1.2540050    -0.0001090
  C        3.0687920    -1.1592000     0.0000980
  C        3.6642520     0.1047860    -0.0000090
  H       -3.3742431     1.0230437    -0.0000957
  H       -4.2988450    -0.1479970     0.0000100
  H       -3.1713790     0.1478040    -2.1095990
  H       -2.6546500    -1.3444640    -1.2649060
  H       -2.6546490    -1.3442280     1.2651520
  H       -3.1713850     0.1481950     2.1095680
  H       -0.6521860    -0.1397250    -2.0793070
  H       -1.1612660     1.3434560    -1.2528060
  H       -1.1612790     1.3436960     1.2525480
  H       -0.6521900    -0.1393200     2.0793360
  H        0.8654370     2.0434980    -0.0001730
  H        1.1935250    -2.2508840     0.0001950
  H        3.3333780     2.2368900    -0.0001920
  H        3.6871730    -2.0528130     0.0001780
  H        4.7470650     0.1949390    -0.0000240
units angstrom
no_reorient  #important for SAPT in psi4, default
symmetry c1  #important for SAPT in psi4, default
}

set PROPERTIES_ORIGIN ["COM"]
properties('MP2/aug-cc-pvtz', properties = ['dipole'])
--------------------------------------------------------------------------

    Molecular point group: c1
  Charge       = 1
  Multiplicity = 1
  Basis Set: AUG-CC-PVTZ
    Blend: AUG-CC-PVTZ
  Basis Set: (AUG-CC-PVTZ AUX)
    Blend: AUG-CC-PVTZ-JKFIT

    Orbital Energies [Eh]
    ---------------------

    Doubly Occupied:

       1A    -15.849266     2A    -15.705689     3A    -11.458565
       4A    -11.458555     5A    -11.418385     6A    -11.418370
       7A    -11.379554     8A    -11.344605     9A    -11.339236
      10A    -11.339172    11A    -11.336860    12A    -11.333871
      13A     -1.534867    14A     -1.394164    15A     -1.250969
      16A     -1.223583    17A     -1.166035    18A     -1.119828
      19A     -1.095932    20A     -1.054986    21A     -1.025070
      22A     -0.947284    23A     -0.930400    24A     -0.925518
      25A     -0.879046    26A     -0.826594    27A     -0.822039
      28A     -0.795954    29A     -0.789931    30A     -0.769954
      31A     -0.742682    32A     -0.737029    33A     -0.718218
      34A     -0.708638    35A     -0.689274    36A     -0.689199
      37A     -0.661834    38A     -0.661316    39A     -0.607609
      40A     -0.602445    41A     -0.602026    42A     -0.521182
      43A     -0.440490    44A     -0.438636

  @DF-RHF Final Energy:  -496.22184259395829

   => Energetics <=

    Nuclear Repulsion Energy =            707.9540712884731875
    One-Electron Energy =               -2062.8421093605911665
    Two-Electron Energy =                 858.6661954781596933
    Total Energy =                       -496.2218425939582858
  Basis Set: (AUG-CC-PVTZ AUX)
    Blend: AUG-CC-PVTZ-RI
    Molecular point group: c1

    Geometry (in Angstrom), charge = 1, multiplicity = 1:

       Center              X                  Y                   Z               Mass
    ------------   -----------------  -----------------  -----------------  -----------------
         N           -3.383934882911     0.203122216359    -0.000020805680    14.003074004430
         N           -0.605164882911    -0.285978783641     0.000029194320    14.003074004430
         C           -2.672912882911    -0.244818783641    -1.257345805680    12.000000000000
         C           -2.672915882911    -0.244584783641     1.257390194320    12.000000000000
         C           -1.238011882911     0.246696216359    -1.200386805680    12.000000000000
         C           -1.238016882911     0.246925216359     1.200338194320    12.000000000000
         C            0.832540117089    -0.117520783641     0.000011194320    12.000000000000
         C            1.422350117089     1.152184216359    -0.000095805680    12.000000000000
         C            1.622482117089    -1.268940783641     0.000112194320    12.000000000000
         C            2.813957117089     1.262915216359    -0.000109805680    12.000000000000
         C            3.013225117089    -1.150289783641     0.000097194320    12.000000000000
         C            3.608685117089     0.113696216359    -0.000009805680    12.000000000000
         H           -3.429809982911     1.031953916359    -0.000096505680     1.007825032230
         H           -4.354411882911    -0.139086783641     0.000009194320     1.007825032230
         H           -3.226945882911     0.156714216359    -2.109599805680     1.007825032230
         H           -2.710216882911    -1.335553783641    -1.264906805680     1.007825032230
         H           -2.710215882911    -1.335317783641     1.265151194320     1.007825032230
         H           -3.226951882911     0.157105216359     2.109567194320     1.007825032230
         H           -0.707752882911    -0.130814783641    -2.079307805680     1.007825032230
         H           -1.216832882911     1.352366216359    -1.252806805680     1.007825032230
         H           -1.216845882911     1.352606216359     1.252547194320     1.007825032230
         H           -0.707756882911    -0.130409783641     2.079335194320     1.007825032230
         H            0.809870117089     2.052408216359    -0.000173805680     1.007825032230
         H            1.137958117089    -2.241973783641     0.000194194320     1.007825032230
         H            3.277811117089     2.245800216359    -0.000192805680     1.007825032230
         H            3.631606117089    -2.043902783641     0.000177194320     1.007825032230
         H            4.691498117089     0.203849216359    -0.000024805680     1.007825032230

  Basis Set: AUG-CC-PVTZ
    Blend: AUG-CC-PVTZ
  Basis Set: (AUG-CC-PVTZ AUX)
    Blend: AUG-CC-PVTZ-JKFIT
	 Reference Energy          =    -496.2218425939582858 [Eh]
	 Singles Energy            =      -0.0000000000000000 [Eh]
	 Same-Spin Energy          =      -0.5382443436208776 [Eh]
	 Opposite-Spin Energy      =      -1.7554273314807456 [Eh]
	 Correlation Energy        =      -2.2936716751016233 [Eh]
	 Total Energy              =    -498.5155142690599064 [Eh]

	 ================> DF-SCS-MP2 Energies <==================
	-----------------------------------------------------------
	 SCS Same-Spin Scale       =       0.3333333333333333 [-]
	 SCS Opposite-Spin Scale   =       1.2000000000000000 [-]
	 SCS Same-Spin Energy      =      -0.1794147812069592 [Eh]
	 SCS Opposite-Spin Energy  =      -2.1065127977768947 [Eh]
	 SCS Correlation Energy    =      -2.2859275789838538 [Eh]
	 SCS Total Energy          =    -498.5077701729421165 [Eh]
	-----------------------------------------------------------

  Dipole Moment: [D]
     X:   -11.4370      Y:     0.8942      Z:    -0.0001     Total:    11.4719

*** Psi4 exiting successfully. Buy a developer a beer!
