                               Psi4 1.4a3.dev225

  ==> Input File <==

--------------------------------------------------------------------------
#psi4
#
memory 32 gb

molecule  {
1 1
  N       -3.3283680     0.1942120    -0.0000200
  N       -0.5495980    -0.2948890     0.0000300
  C       -2.6173460    -0.2537290    -1.2573450
  C       -2.6173490    -0.2534950     1.2573910
  C       -1.1824450     0.2377860    -1.2003860
  C       -1.1824500     0.2380150     1.2003390
  C        0.8881070    -0.1264310     0.0000120
  C        1.4779170     1.1432740    -0.0000950
  C        1.6780490    -1.2778510     0.0001130
  C        2.8695240     1.2540050    -0.0001090
  C        3.0687920    -1.1592000     0.0000980
  C        3.6642520     0.1047860    -0.0000090
  H       -3.3880592     1.2726616    -0.0001186
  H       -4.2988450    -0.1479970     0.0000100
  H       -3.1713790     0.1478040    -2.1095990
  H       -2.6546500    -1.3444640    -1.2649060
  H       -2.6546490    -1.3442280     1.2651520
  H       -3.1713850     0.1481950     2.1095680
  H       -0.6521860    -0.1397250    -2.0793070
  H       -1.1612660     1.3434560    -1.2528060
  H       -1.1612790     1.3436960     1.2525480
  H       -0.6521900    -0.1393200     2.0793360
  H        0.8654370     2.0434980    -0.0001730
  H        1.1935250    -2.2508840     0.0001950
  H        3.3333780     2.2368900    -0.0001920
  H        3.6871730    -2.0528130     0.0001780
  H        4.7470650     0.1949390    -0.0000240
units angstrom
no_reorient  #important for SAPT in psi4, default
symmetry c1  #important for SAPT in psi4, default
}

set PROPERTIES_ORIGIN ["COM"]
properties('MP2/aug-cc-pvtz', properties = ['dipole'])
--------------------------------------------------------------------------

    Molecular point group: c1
  Charge       = 1
  Multiplicity = 1
  Basis Set: AUG-CC-PVTZ
    Blend: AUG-CC-PVTZ
  Basis Set: (AUG-CC-PVTZ AUX)
    Blend: AUG-CC-PVTZ-JKFIT

    Orbital Energies [Eh]
    ---------------------

    Doubly Occupied:

       1A    -15.870123     2A    -15.704759     3A    -11.456410
       4A    -11.456399     5A    -11.417126     6A    -11.417111
       7A    -11.379035     8A    -11.344193     9A    -11.338881
      10A    -11.338676    11A    -11.336453    12A    -11.333461
      13A     -1.491451    14A     -1.389138    15A     -1.249435
      16A     -1.221146    17A     -1.152923    18A     -1.119352
      19A     -1.085040    20A     -1.052691    21A     -0.991471
      22A     -0.936857    23A     -0.925684    24A     -0.922621
      25A     -0.866568    26A     -0.822749    27A     -0.816910
      28A     -0.791864    29A     -0.787564    30A     -0.768713
      31A     -0.737012    32A     -0.735017    33A     -0.717117
      34A     -0.704653    35A     -0.688571    36A     -0.687816
      37A     -0.660028    38A     -0.659895    39A     -0.607154
      40A     -0.601876    41A     -0.601528    42A     -0.520346
      43A     -0.440090    44A     -0.438144

  @DF-RHF Final Energy:  -496.25727443916719

   => Energetics <=

    Nuclear Repulsion Energy =            706.3796920940104656
    One-Electron Energy =               -2060.1058329101683739
    Two-Electron Energy =                 857.4688663769908317
    Total Energy =                       -496.2572744391671904
  Basis Set: (AUG-CC-PVTZ AUX)
    Blend: AUG-CC-PVTZ-RI
    Molecular point group: c1

    Geometry (in Angstrom), charge = 1, multiplicity = 1:

       Center              X                  Y                   Z               Mass
    ------------   -----------------  -----------------  -----------------  -----------------
         N           -3.383849522988     0.201580003668    -0.000020664197    14.003074004430
         N           -0.605079522988    -0.287520996332     0.000029335803    14.003074004430
         C           -2.672827522988    -0.246360996332    -1.257345664197    12.000000000000
         C           -2.672830522988    -0.246126996332     1.257390335803    12.000000000000
         C           -1.237926522988     0.245154003668    -1.200386664197    12.000000000000
         C           -1.237931522988     0.245383003668     1.200338335803    12.000000000000
         C            0.832625477012    -0.119062996332     0.000011335803    12.000000000000
         C            1.422435477012     1.150642003668    -0.000095664197    12.000000000000
         C            1.622567477012    -1.270482996332     0.000112335803    12.000000000000
         C            2.814042477012     1.261373003668    -0.000109664197    12.000000000000
         C            3.013310477012    -1.151831996332     0.000097335803    12.000000000000
         C            3.608770477012     0.112154003668    -0.000009664197    12.000000000000
         H           -3.443540722988     1.280029603668    -0.000119264197     1.007825032230
         H           -4.354326522988    -0.140628996332     0.000009335803     1.007825032230
         H           -3.226860522988     0.155172003668    -2.109599664197     1.007825032230
         H           -2.710131522988    -1.337095996332    -1.264906664197     1.007825032230
         H           -2.710130522988    -1.336859996332     1.265151335803     1.007825032230
         H           -3.226866522988     0.155563003668     2.109567335803     1.007825032230
         H           -0.707667522988    -0.132356996332    -2.079307664197     1.007825032230
         H           -1.216747522988     1.350824003668    -1.252806664197     1.007825032230
         H           -1.216760522988     1.351064003668     1.252547335803     1.007825032230
         H           -0.707671522988    -0.131951996332     2.079335335803     1.007825032230
         H            0.809955477012     2.050866003668    -0.000173664197     1.007825032230
         H            1.138043477012    -2.243515996332     0.000194335803     1.007825032230
         H            3.277896477012     2.244258003668    -0.000192664197     1.007825032230
         H            3.631691477012    -2.045444996332     0.000177335803     1.007825032230
         H            4.691583477012     0.202307003668    -0.000024664197     1.007825032230

  Basis Set: AUG-CC-PVTZ
    Blend: AUG-CC-PVTZ
  Basis Set: (AUG-CC-PVTZ AUX)
    Blend: AUG-CC-PVTZ-JKFIT
	 Reference Energy          =    -496.2572744391671904 [Eh]
	 Singles Energy            =      -0.0000000000000000 [Eh]
	 Same-Spin Energy          =      -0.5398038793046016 [Eh]
	 Opposite-Spin Energy      =      -1.7593951463998359 [Eh]
	 Correlation Energy        =      -2.2991990257044375 [Eh]
	 Total Energy              =    -498.5564734648716012 [Eh]

	 ================> DF-SCS-MP2 Energies <==================
	-----------------------------------------------------------
	 SCS Same-Spin Scale       =       0.3333333333333333 [-]
	 SCS Opposite-Spin Scale   =       1.2000000000000000 [-]
	 SCS Same-Spin Energy      =      -0.1799346264348672 [Eh]
	 SCS Opposite-Spin Energy  =      -2.1112741756798030 [Eh]
	 SCS Correlation Energy    =      -2.2912088021146704 [Eh]
	 SCS Total Energy          =    -498.5484832412818719 [Eh]
	-----------------------------------------------------------

  Dipole Moment: [D]
     X:   -11.4925      Y:     1.1404      Z:    -0.0001     Total:    11.5490

*** Psi4 exiting successfully. Buy a developer a beer!
