                               Psi4 1.4a3.dev225

  ==> Input File <==

--------------------------------------------------------------------------
#psi4
#
memory 32 gb

molecule  {
1 1
  N       -3.3283680     0.1942120    -0.0000200
  N       -0.5495980    -0.2948890     0.0000300
  C       -2.6173460    -0.2537290    -1.2573450
  C       -2.6173490    -0.2534950     1.2573910
  C       -1.1824450     0.2377860    -1.2003860
  C       -1.1824500     0.2380150     1.2003390
  C        0.8384467    -0.1322498     0.0000126
  C        1.4779170     1.1432740    -0.0000950
  C        1.6780490    -1.2778510     0.0001130
  C        2.8695240     1.2540050    -0.0001090
  C        3.0687920    -1.1592000     0.0000980
  C        3.6642520     0.1047860    -0.0000090
  H       -3.3852960     1.2227380    -0.0001140
  H       -4.2988450    -0.1479970     0.0000100
  H       -3.1713790     0.1478040    -2.1095990
  H       -2.6546500    -1.3444640    -1.2649060
  H       -2.6546490    -1.3442280     1.2651520
  H       -3.1713850     0.1481950     2.1095680
  H       -0.6521860    -0.1397250    -2.0793070
  H       -1.1612660     1.3434560    -1.2528060
  H       -1.1612790     1.3436960     1.2525480
  H       -0.6521900    -0.1393200     2.0793360
  H        0.8654370     2.0434980    -0.0001730
  H        1.1935250    -2.2508840     0.0001950
  H        3.3333780     2.2368900    -0.0001920
  H        3.6871730    -2.0528130     0.0001780
  H        4.7470650     0.1949390    -0.0000240
units angstrom
no_reorient  #important for SAPT in psi4, default
symmetry c1  #important for SAPT in psi4, default
}

set PROPERTIES_ORIGIN ["COM"]
properties('MP2/aug-cc-pvtz', properties = ['dipole'])
--------------------------------------------------------------------------

    Molecular point group: c1
  Charge       = 1
  Multiplicity = 1
  Basis Set: AUG-CC-PVTZ
    Blend: AUG-CC-PVTZ
  Basis Set: (AUG-CC-PVTZ AUX)
    Blend: AUG-CC-PVTZ-JKFIT

    Orbital Energies [Eh]
    ---------------------

    Doubly Occupied:

       1A    -15.868017     2A    -15.706397     3A    -11.458212
       4A    -11.458202     5A    -11.419529     6A    -11.419514
       7A    -11.380229     8A    -11.345578     9A    -11.339871
      10A    -11.337739    11A    -11.335361    12A    -11.333253
      13A     -1.499286    14A     -1.401456    15A     -1.243612
      16A     -1.223517    17A     -1.159579    18A     -1.115387
      19A     -1.083548    20A     -1.055817    21A     -1.000891
      22A     -0.938128    23A     -0.926257    24A     -0.925448
      25A     -0.870355    26A     -0.825075    27A     -0.819151
      28A     -0.794852    29A     -0.791954    30A     -0.772361
      31A     -0.738015    32A     -0.737482    33A     -0.715571
      34A     -0.703372    35A     -0.690174    36A     -0.685303
      37A     -0.663914    38A     -0.663133    39A     -0.609595
      40A     -0.601589    41A     -0.595918    42A     -0.519709
      43A     -0.437989    44A     -0.433554

  @DF-RHF Final Energy:  -496.25696052557061

   => Energetics <=

    Nuclear Repulsion Energy =            706.8470948498113557
    One-Electron Energy =               -2060.9203251596654809
    Two-Electron Energy =                 857.8162697842835769
    Total Energy =                       -496.2569605255705483
  Basis Set: (AUG-CC-PVTZ AUX)
    Blend: AUG-CC-PVTZ-RI
    Molecular point group: c1

    Geometry (in Angstrom), charge = 1, multiplicity = 1:

       Center              X                  Y                   Z               Mass
    ------------   -----------------  -----------------  -----------------  -----------------
         N           -3.380213390288     0.202316499860    -0.000020736756    14.003074004430
         N           -0.601443390288    -0.286784500140     0.000029263244    14.003074004430
         C           -2.669191390288    -0.245624500140    -1.257345736756    12.000000000000
         C           -2.669194390288    -0.245390500140     1.257390263244    12.000000000000
         C           -1.234290390288     0.245890499860    -1.200386736756    12.000000000000
         C           -1.234295390288     0.246119499860     1.200338263244    12.000000000000
         C            0.786601309712    -0.124145300140     0.000011863244    12.000000000000
         C            1.426071609712     1.151378499860    -0.000095736756    12.000000000000
         C            1.626203609712    -1.269746500140     0.000112263244    12.000000000000
         C            2.817678609712     1.262109499860    -0.000109736756    12.000000000000
         C            3.016946609712    -1.151095500140     0.000097263244    12.000000000000
         C            3.612406609712     0.112890499860    -0.000009736756    12.000000000000
         H           -3.437141390288     1.230842499860    -0.000114736756     1.007825032230
         H           -4.350690390288    -0.139892500140     0.000009263244     1.007825032230
         H           -3.223224390288     0.155908499860    -2.109599736756     1.007825032230
         H           -2.706495390288    -1.336359500140    -1.264906736756     1.007825032230
         H           -2.706494390288    -1.336123500140     1.265151263244     1.007825032230
         H           -3.223230390288     0.156299499860     2.109567263244     1.007825032230
         H           -0.704031390288    -0.131620500140    -2.079307736756     1.007825032230
         H           -1.213111390288     1.351560499860    -1.252806736756     1.007825032230
         H           -1.213124390288     1.351800499860     1.252547263244     1.007825032230
         H           -0.704035390288    -0.131215500140     2.079335263244     1.007825032230
         H            0.813591609712     2.051602499860    -0.000173736756     1.007825032230
         H            1.141679609712    -2.242779500140     0.000194263244     1.007825032230
         H            3.281532609712     2.244994499860    -0.000192736756     1.007825032230
         H            3.635327609712    -2.044708500140     0.000177263244     1.007825032230
         H            4.695219609712     0.203043499860    -0.000024736756     1.007825032230

  Basis Set: AUG-CC-PVTZ
    Blend: AUG-CC-PVTZ
  Basis Set: (AUG-CC-PVTZ AUX)
    Blend: AUG-CC-PVTZ-JKFIT
	 Reference Energy          =    -496.2569605255706051 [Eh]
	 Singles Energy            =      -0.0000000000000000 [Eh]
	 Same-Spin Energy          =      -0.5399497733674650 [Eh]
	 Opposite-Spin Energy      =      -1.7591098514355179 [Eh]
	 Correlation Energy        =      -2.2990596248029829 [Eh]
	 Total Energy              =    -498.5560201503735698 [Eh]

	 ================> DF-SCS-MP2 Energies <==================
	-----------------------------------------------------------
	 SCS Same-Spin Scale       =       0.3333333333333333 [-]
	 SCS Opposite-Spin Scale   =       1.2000000000000000 [-]
	 SCS Same-Spin Energy      =      -0.1799832577891550 [Eh]
	 SCS Opposite-Spin Energy  =      -2.1109318217226214 [Eh]
	 SCS Correlation Energy    =      -2.2909150795117763 [Eh]
	 SCS Total Energy          =    -498.5478756050823677 [Eh]
	-----------------------------------------------------------

  Dipole Moment: [D]
     X:   -11.6489      Y:     1.0995      Z:    -0.0001     Total:    11.7006

*** Psi4 exiting successfully. Buy a developer a beer!
