                               Psi4 1.3.2 release

  ==> Input File <==

--------------------------------------------------------------------------
#psi4
#
memory 32 gb

molecule  {
1 1
  N       -3.3283680     0.1942120    -0.0000200
  N       -0.5495980    -0.2948890     0.0000300
  C       -2.6173460    -0.2537290    -1.2573450
  C       -2.6173490    -0.2534950     1.2573910
  C       -1.1824450     0.2377860    -1.2003860
  C       -1.1824500     0.2380150     1.2003390
  C        0.8881070    -0.1264310     0.0000120
  C        1.4779170     1.1432740    -0.0000950
  C        1.6780490    -1.2778510     0.0001130
  C        2.8695240     1.2540050    -0.0001090
  C        3.0687920    -1.1592000     0.0000980
  C        3.6642520     0.1047860    -0.0000090
  H       -3.3908225     1.3225852    -0.0001231
  H       -4.2988450    -0.1479970     0.0000100
  H       -3.1713790     0.1478040    -2.1095990
  H       -2.6546500    -1.3444640    -1.2649060
  H       -2.6546490    -1.3442280     1.2651520
  H       -3.1713850     0.1481950     2.1095680
  H       -0.6521860    -0.1397250    -2.0793070
  H       -1.1612660     1.3434560    -1.2528060
  H       -1.1612790     1.3436960     1.2525480
  H       -0.6521900    -0.1393200     2.0793360
  H        0.8654370     2.0434980    -0.0001730
  H        1.1935250    -2.2508840     0.0001950
  H        3.3333780     2.2368900    -0.0001920
  H        3.6871730    -2.0528130     0.0001780
  H        4.7470650     0.1949390    -0.0000240
units angstrom
no_reorient  #important for SAPT in psi4, default
symmetry c1  #important for SAPT in psi4, default
}

set PROPERTIES_ORIGIN ["COM"]
properties('MP2/aug-cc-pvtz', properties = ['dipole'])
--------------------------------------------------------------------------

    Molecular point group: c1
  Charge       = 1
  Multiplicity = 1
  Basis Set: AUG-CC-PVTZ
    Blend: AUG-CC-PVTZ
  Basis Set: (AUG-CC-PVTZ AUX)
    Blend: AUG-CC-PVTZ-JKFIT

    Orbital Energies [Eh]
    ---------------------

    Doubly Occupied:

       1A    -15.873110     2A    -15.704557     3A    -11.456013
       4A    -11.456002     5A    -11.416854     6A    -11.416839
       7A    -11.378923     8A    -11.344104     9A    -11.338804
      10A    -11.338570    11A    -11.336365    12A    -11.333373
      13A     -1.486197    14A     -1.388240    15A     -1.249205
      16A     -1.220647    17A     -1.151469    18A     -1.119257
      19A     -1.083725    20A     -1.052239    21A     -0.986648
      22A     -0.935358    23A     -0.924201    24A     -0.921382
      25A     -0.863230    26A     -0.822023    27A     -0.815610
      28A     -0.790770    29A     -0.787123    30A     -0.768423
      31A     -0.735612    32A     -0.734597    33A     -0.716881
      34A     -0.703362    35A     -0.688392    36A     -0.687496
      37A     -0.659673    38A     -0.659605    39A     -0.607056
      40A     -0.601754    41A     -0.601421    42A     -0.520156
      43A     -0.440004    44A     -0.438038

  @DF-RHF Final Energy:  -496.25096743065245

   => Energetics <=

    Nuclear Repulsion Energy =            706.1210295142730047
    One-Electron Energy =               -2059.6373753362854586
    Two-Electron Energy =                 857.2653783913600591
    Total Energy =                       -496.2509674306523948
  Basis Set: (AUG-CC-PVTZ AUX)
    Blend: AUG-CC-PVTZ-RI
    Molecular point group: c1

    Geometry (in Angstrom), charge = 1, multiplicity = 1:

       Center              X                  Y                   Z               Mass
    ------------   -----------------  -----------------  -----------------  -----------------
         N           -3.383832450509     0.201271561007    -0.000020636395    14.003074004430
         N           -0.605062450509    -0.287829438993     0.000029363605    14.003074004430
         C           -2.672810450509    -0.246669438993    -1.257345636395    12.000000000000
         C           -2.672813450509    -0.246435438993     1.257390363605    12.000000000000
         C           -1.237909450509     0.244845561007    -1.200386636395    12.000000000000
         C           -1.237914450509     0.245074561007     1.200338363605    12.000000000000
         C            0.832642549491    -0.119371438993     0.000011363605    12.000000000000
         C            1.422452549491     1.150333561007    -0.000095636395    12.000000000000
         C            1.622584549491    -1.270791438993     0.000112363605    12.000000000000
         C            2.814059549491     1.261064561007    -0.000109636395    12.000000000000
         C            3.013327549491    -1.152140438993     0.000097363605    12.000000000000
         C            3.608787549491     0.111845561007    -0.000009636395    12.000000000000
         H           -3.446286950509     1.329644761007    -0.000123736395     1.007825032230
         H           -4.354309450509    -0.140937438993     0.000009363605     1.007825032230
         H           -3.226843450509     0.154863561007    -2.109599636395     1.007825032230
         H           -2.710114450509    -1.337404438993    -1.264906636395     1.007825032230
         H           -2.710113450509    -1.337168438993     1.265151363605     1.007825032230
         H           -3.226849450509     0.155254561007     2.109567363605     1.007825032230
         H           -0.707650450509    -0.132665438993    -2.079307636395     1.007825032230
         H           -1.216730450509     1.350515561007    -1.252806636395     1.007825032230
         H           -1.216743450509     1.350755561007     1.252547363605     1.007825032230
         H           -0.707654450509    -0.132260438993     2.079335363605     1.007825032230
         H            0.809972549491     2.050557561007    -0.000173636395     1.007825032230
         H            1.138060549491    -2.243824438993     0.000194363605     1.007825032230
         H            3.277913549491     2.243949561007    -0.000192636395     1.007825032230
         H            3.631708549491    -2.045753438993     0.000177363605     1.007825032230
         H            4.691600549491     0.201998561007    -0.000024636395     1.007825032230

  Basis Set: AUG-CC-PVTZ
    Blend: AUG-CC-PVTZ
  Basis Set: (AUG-CC-PVTZ AUX)
    Blend: AUG-CC-PVTZ-JKFIT
	 Reference Energy          =    -496.2509674306524516 [Eh]
	 Singles Energy            =      -0.0000000000000000 [Eh]
	 Same-Spin Energy          =      -0.5401705636368558 [Eh]
	 Opposite-Spin Energy      =      -1.7604445893119900 [Eh]
	 Correlation Energy        =      -2.3006151529488457 [Eh]
	 Total Energy              =    -498.5515825836013164 [Eh]

	 ================> DF-SCS-MP2 Energies <==================
	-----------------------------------------------------------
	 SCS Same-Spin Scale       =       0.3333333333333333 [-]
	 SCS Opposite-Spin Scale   =       1.2000000000000000 [-]
	 SCS Same-Spin Energy      =      -0.1800568545456186 [Eh]
	 SCS Opposite-Spin Energy  =      -2.1125335071743878 [Eh]
	 SCS Correlation Energy    =      -2.2925903617200065 [Eh]
	 SCS Total Energy          =    -498.5435577923724395 [Eh]
	-----------------------------------------------------------

  Dipole Moment: [D]
     X:   -11.5019      Y:     1.1911      Z:    -0.0001     Total:    11.5634

*** Psi4 exiting successfully. Buy a developer a beer!
