                               Psi4 1.3.2 release

  ==> Input File <==

--------------------------------------------------------------------------
#psi4
#
memory 32 gb

molecule  {
1 1
  N       -3.3283680     0.1942120    -0.0000200
  N       -0.5495980    -0.2948890     0.0000300
  C       -2.6173460    -0.2537290    -1.2573450
  C       -2.6173490    -0.2534950     1.2573910
  C       -1.2692661     0.3108643    -1.3650726
  C       -1.1824500     0.2380150     1.2003390
  C        0.8881070    -0.1264310     0.0000120
  C        1.4779170     1.1432740    -0.0000950
  C        1.6780490    -1.2778510     0.0001130
  C        2.8695240     1.2540050    -0.0001090
  C        3.0687920    -1.1592000     0.0000980
  C        3.6642520     0.1047860    -0.0000090
  H       -3.3852960     1.2227380    -0.0001140
  H       -4.2988450    -0.1479970     0.0000100
  H       -3.1713790     0.1478040    -2.1095990
  H       -2.6546500    -1.3444640    -1.2649060
  H       -2.6546490    -1.3442280     1.2651520
  H       -3.1713850     0.1481950     2.1095680
  H       -0.6521860    -0.1397250    -2.0793070
  H       -1.1612660     1.3434560    -1.2528060
  H       -1.1612790     1.3436960     1.2525480
  H       -0.6521900    -0.1393200     2.0793360
  H        0.8654370     2.0434980    -0.0001730
  H        1.1935250    -2.2508840     0.0001950
  H        3.3333780     2.2368900    -0.0001920
  H        3.6871730    -2.0528130     0.0001780
  H        4.7470650     0.1949390    -0.0000240
units angstrom
no_reorient  #important for SAPT in psi4, default
symmetry c1  #important for SAPT in psi4, default
}

set PROPERTIES_ORIGIN ["COM"]
properties('MP2/aug-cc-pvtz', properties = ['dipole'])
--------------------------------------------------------------------------

    Molecular point group: c1
  Charge       = 1
  Multiplicity = 1
  Basis Set: AUG-CC-PVTZ
    Blend: AUG-CC-PVTZ
  Basis Set: (AUG-CC-PVTZ AUX)
    Blend: AUG-CC-PVTZ-JKFIT

    Orbital Energies [Eh]
    ---------------------

    Doubly Occupied:

       1A    -15.870906     2A    -15.701231     3A    -11.460989
       4A    -11.455702     5A    -11.419674     6A    -11.413886
       7A    -11.375517     8A    -11.341302     9A    -11.336871
      10A    -11.335764    11A    -11.334295    12A    -11.330982
      13A     -1.499230    14A     -1.359066    15A     -1.245357
      16A     -1.231115    17A     -1.156542    18A     -1.116895
      19A     -1.081957    20A     -1.049671    21A     -1.000685
      22A     -0.939846    23A     -0.928999    24A     -0.916762
      25A     -0.871582    26A     -0.833144    27A     -0.812817
      28A     -0.794325    29A     -0.775743    30A     -0.760859
      31A     -0.743131    32A     -0.735611    33A     -0.721301
      34A     -0.713779    35A     -0.695553    36A     -0.686156
      37A     -0.674401    38A     -0.635924    39A     -0.603972
      40A     -0.599442    41A     -0.589002    42A     -0.513100
      43A     -0.438010    44A     -0.433100

  @DF-RHF Final Energy:  -496.23095808960113

   => Energetics <=

    Nuclear Repulsion Energy =            703.2607664690991669
    One-Electron Energy =               -2053.9150551173420354
    Two-Electron Energy =                 854.4233305586418510
    Total Energy =                       -496.2309580896011312
  Basis Set: (AUG-CC-PVTZ AUX)
    Blend: AUG-CC-PVTZ-RI
    Molecular point group: c1

    Geometry (in Angstrom), charge = 1, multiplicity = 1:

       Center              X                  Y                   Z               Mass
    ------------   -----------------  -----------------  -----------------  -----------------
         N           -3.377479697498     0.196512522728     0.012094293362    14.003074004430
         N           -0.598709697498    -0.292588477272     0.012144293362    14.003074004430
         C           -2.666457697498    -0.251428477272    -1.245230706638    12.000000000000
         C           -2.666460697498    -0.251194477272     1.269505293362    12.000000000000
         C           -1.318377797498     0.313164822728    -1.352958306638    12.000000000000
         C           -1.231561697498     0.240315522728     1.212453293362    12.000000000000
         C            0.838995302502    -0.124130477272     0.012126293362    12.000000000000
         C            1.428805302502     1.145574522728     0.012019293362    12.000000000000
         C            1.628937302502    -1.275550477272     0.012227293362    12.000000000000
         C            2.820412302502     1.256305522728     0.012005293362    12.000000000000
         C            3.019680302502    -1.156899477272     0.012212293362    12.000000000000
         C            3.615140302502     0.107086522728     0.012105293362    12.000000000000
         H           -3.434407697498     1.225038522728     0.012000293362     1.007825032230
         H           -4.347956697498    -0.145696477272     0.012124293362     1.007825032230
         H           -3.220490697498     0.150104522728    -2.097484706638     1.007825032230
         H           -2.703761697498    -1.342163477272    -1.252791706638     1.007825032230
         H           -2.703760697498    -1.341927477272     1.277266293362     1.007825032230
         H           -3.220496697498     0.150495522728     2.121682293362     1.007825032230
         H           -0.701297697498    -0.137424477272    -2.067192706638     1.007825032230
         H           -1.210377697498     1.345756522728    -1.240691706638     1.007825032230
         H           -1.210390697498     1.345996522728     1.264662293362     1.007825032230
         H           -0.701301697498    -0.137019477272     2.091450293362     1.007825032230
         H            0.816325302502     2.045798522728     0.011941293362     1.007825032230
         H            1.144413302502    -2.248583477272     0.012309293362     1.007825032230
         H            3.284266302502     2.239190522728     0.011922293362     1.007825032230
         H            3.638061302502    -2.050512477272     0.012292293362     1.007825032230
         H            4.697953302502     0.197239522728     0.012090293362     1.007825032230

  Basis Set: AUG-CC-PVTZ
    Blend: AUG-CC-PVTZ
  Basis Set: (AUG-CC-PVTZ AUX)
    Blend: AUG-CC-PVTZ-JKFIT
	 Reference Energy          =    -496.2309580896011312 [Eh]
	 Singles Energy            =      -0.0000000000000000 [Eh]
	 Same-Spin Energy          =      -0.5401914692492125 [Eh]
	 Opposite-Spin Energy      =      -1.7613167666165359 [Eh]
	 Correlation Energy        =      -2.3015082358657484 [Eh]
	 Total Energy              =    -498.5324663254668849 [Eh]

	 ================> DF-SCS-MP2 Energies <==================
	-----------------------------------------------------------
	 SCS Same-Spin Scale       =       0.3333333333333333 [-]
	 SCS Opposite-Spin Scale   =       1.2000000000000000 [-]
	 SCS Same-Spin Energy      =      -0.1800638230830708 [Eh]
	 SCS Opposite-Spin Energy  =      -2.1135801199398432 [Eh]
	 SCS Correlation Energy    =      -2.2936439430229139 [Eh]
	 SCS Total Energy          =    -498.5246020326240455 [Eh]
	-----------------------------------------------------------

  Dipole Moment: [D]
     X:   -11.6808      Y:     1.2067      Z:    -0.1585     Total:    11.7440

*** Psi4 exiting successfully. Buy a developer a beer!
