                               Psi4 1.3.2 release

  ==> Input File <==

--------------------------------------------------------------------------
#psi4
#
memory 32 gb

molecule  {
1 1
  N       -3.3283680     0.1942120    -0.0000200
  N       -0.5495980    -0.2948890     0.0000300
  C       -2.6173460    -0.2537290    -1.2573450
  C       -2.6173490    -0.2534950     1.2573910
  C       -1.1824450     0.2377860    -1.2003860
  C       -1.1824500     0.2380150     1.2003390
  C        0.8881070    -0.1264310     0.0000120
  C        1.4779170     1.1432740    -0.0000950
  C        1.6780490    -1.2778510     0.0001130
  C        2.8695240     1.2540050    -0.0001090
  C        3.0687920    -1.1592000     0.0000980
  C        3.6642520     0.1047860    -0.0000090
  H       -3.3493663     1.2240982    -0.0001141
  H       -4.2988450    -0.1479970     0.0000100
  H       -3.1713790     0.1478040    -2.1095990
  H       -2.6546500    -1.3444640    -1.2649060
  H       -2.6546490    -1.3442280     1.2651520
  H       -3.1713850     0.1481950     2.1095680
  H       -0.6521860    -0.1397250    -2.0793070
  H       -1.1612660     1.3434560    -1.2528060
  H       -1.1612790     1.3436960     1.2525480
  H       -0.6521900    -0.1393200     2.0793360
  H        0.8654370     2.0434980    -0.0001730
  H        1.1935250    -2.2508840     0.0001950
  H        3.3333780     2.2368900    -0.0001920
  H        3.6871730    -2.0528130     0.0001780
  H        4.7470650     0.1949390    -0.0000240
units angstrom
no_reorient  #important for SAPT in psi4, default
symmetry c1  #important for SAPT in psi4, default
}

set PROPERTIES_ORIGIN ["COM"]
properties('MP2/aug-cc-pvtz', properties = ['dipole'])
--------------------------------------------------------------------------

    Molecular point group: c1
  Charge       = 1
  Multiplicity = 1
  Basis Set: AUG-CC-PVTZ
    Blend: AUG-CC-PVTZ
  Basis Set: (AUG-CC-PVTZ AUX)
    Blend: AUG-CC-PVTZ-JKFIT

    Orbital Energies [Eh]
    ---------------------

    Doubly Occupied:

       1A    -15.866681     2A    -15.705207     3A    -11.456688
       4A    -11.456677     5A    -11.417703     6A    -11.417688
       7A    -11.379302     8A    -11.344442     9A    -11.339094
      10A    -11.338920    11A    -11.336669    12A    -11.333679
      13A     -1.497795    14A     -1.390223    15A     -1.249793
      16A     -1.221837    17A     -1.154232    18A     -1.119589
      19A     -1.086273    20A     -1.053302    21A     -0.998062
      22A     -0.940075    23A     -0.928233    24A     -0.923221
      25A     -0.869062    26A     -0.823661    27A     -0.817635
      28A     -0.793058    29A     -0.788135    30A     -0.768960
      31A     -0.738364    32A     -0.735565    33A     -0.717583
      34A     -0.705667    35A     -0.688867    36A     -0.688300
      37A     -0.660617    38A     -0.660351    39A     -0.607402
      40A     -0.602145    41A     -0.601781    42A     -0.520788
      43A     -0.440316    44A     -0.438393

  @DF-RHF Final Energy:  -496.26065516386359

   => Energetics <=

    Nuclear Repulsion Energy =            706.7355464681511421
    One-Electron Energy =               -2060.7483344360493902
    Two-Electron Energy =                 857.7521328040346589
    Total Energy =                       -496.2606551638635892
  Basis Set: (AUG-CC-PVTZ AUX)
    Blend: AUG-CC-PVTZ-RI
    Molecular point group: c1

    Geometry (in Angstrom), charge = 1, multiplicity = 1:

       Center              X                  Y                   Z               Mass
    ------------   -----------------  -----------------  -----------------  -----------------
         N           -3.384088579087     0.201880042615    -0.000020692000    14.003074004430
         N           -0.605318579087    -0.287220957385     0.000029308000    14.003074004430
         C           -2.673066579087    -0.246060957385    -1.257345692000    12.000000000000
         C           -2.673069579087    -0.245826957385     1.257390308000    12.000000000000
         C           -1.238165579087     0.245454042615    -1.200386692000    12.000000000000
         C           -1.238170579087     0.245683042615     1.200338308000    12.000000000000
         C            0.832386420913    -0.118762957385     0.000011308000    12.000000000000
         C            1.422196420913     1.150942042615    -0.000095692000    12.000000000000
         C            1.622328420913    -1.270182957385     0.000112308000    12.000000000000
         C            2.813803420913     1.261673042615    -0.000109692000    12.000000000000
         C            3.013071420913    -1.151531957385     0.000097308000    12.000000000000
         C            3.608531420913     0.112454042615    -0.000009692000    12.000000000000
         H           -3.405086879087     1.231766242615    -0.000114792000     1.007825032230
         H           -4.354565579087    -0.140328957385     0.000009308000     1.007825032230
         H           -3.227099579087     0.155472042615    -2.109599692000     1.007825032230
         H           -2.710370579087    -1.336795957385    -1.264906692000     1.007825032230
         H           -2.710369579087    -1.336559957385     1.265151308000     1.007825032230
         H           -3.227105579087     0.155863042615     2.109567308000     1.007825032230
         H           -0.707906579087    -0.132056957385    -2.079307692000     1.007825032230
         H           -1.216986579087     1.351124042615    -1.252806692000     1.007825032230
         H           -1.216999579087     1.351364042615     1.252547308000     1.007825032230
         H           -0.707910579087    -0.131651957385     2.079335308000     1.007825032230
         H            0.809716420913     2.051166042615    -0.000173692000     1.007825032230
         H            1.137804420913    -2.243215957385     0.000194308000     1.007825032230
         H            3.277657420913     2.244558042615    -0.000192692000     1.007825032230
         H            3.631452420913    -2.045144957385     0.000177308000     1.007825032230
         H            4.691344420913     0.202607042615    -0.000024692000     1.007825032230

  Basis Set: AUG-CC-PVTZ
    Blend: AUG-CC-PVTZ
  Basis Set: (AUG-CC-PVTZ AUX)
    Blend: AUG-CC-PVTZ-JKFIT
	 Reference Energy          =    -496.2606551638635892 [Eh]
	 Singles Energy            =      -0.0000000000000000 [Eh]
	 Same-Spin Energy          =      -0.5395064666114374 [Eh]
	 Opposite-Spin Energy      =      -1.7584918621136589 [Eh]
	 Correlation Energy        =      -2.2979983287250962 [Eh]
	 Total Energy              =    -498.5586534925886895 [Eh]

	 ================> DF-SCS-MP2 Energies <==================
	-----------------------------------------------------------
	 SCS Same-Spin Scale       =       0.3333333333333333 [-]
	 SCS Opposite-Spin Scale   =       1.2000000000000000 [-]
	 SCS Same-Spin Energy      =      -0.1798354888704791 [Eh]
	 SCS Opposite-Spin Energy  =      -2.1101902345363905 [Eh]
	 SCS Correlation Energy    =      -2.2900257234068695 [Eh]
	 SCS Total Energy          =    -498.5506808872704596 [Eh]
	-----------------------------------------------------------

  Dipole Moment: [D]
     X:   -11.4379      Y:     1.0818      Z:    -0.0001     Total:    11.4890

*** Psi4 exiting successfully. Buy a developer a beer!
