                               Psi4 1.3.2 release

  ==> Input File <==

--------------------------------------------------------------------------
#psi4
#
memory 32 gb

molecule  {
1 1
  N       -3.3283680     0.1942120    -0.0000200
  N       -0.5495980    -0.2948890     0.0000300
  C       -2.6173460    -0.2537290    -1.2573450
  C       -2.6173490    -0.2534950     1.2573910
  C       -1.1824450     0.2377860    -1.2003860
  C       -1.1824500     0.2380150     1.2003390
  C        0.9874275    -0.1147935     0.0000108
  C        1.4779170     1.1432740    -0.0000950
  C        1.6780490    -1.2778510     0.0001130
  C        2.8695240     1.2540050    -0.0001090
  C        3.0687920    -1.1592000     0.0000980
  C        3.6642520     0.1047860    -0.0000090
  H       -3.3852960     1.2227380    -0.0001140
  H       -4.2988450    -0.1479970     0.0000100
  H       -3.1713790     0.1478040    -2.1095990
  H       -2.6546500    -1.3444640    -1.2649060
  H       -2.6546490    -1.3442280     1.2651520
  H       -3.1713850     0.1481950     2.1095680
  H       -0.6521860    -0.1397250    -2.0793070
  H       -1.1612660     1.3434560    -1.2528060
  H       -1.1612790     1.3436960     1.2525480
  H       -0.6521900    -0.1393200     2.0793360
  H        0.8654370     2.0434980    -0.0001730
  H        1.1935250    -2.2508840     0.0001950
  H        3.3333780     2.2368900    -0.0001920
  H        3.6871730    -2.0528130     0.0001780
  H        4.7470650     0.1949390    -0.0000240
units angstrom
no_reorient  #important for SAPT in psi4, default
symmetry c1  #important for SAPT in psi4, default
}

set PROPERTIES_ORIGIN ["COM"]
properties('MP2/aug-cc-pvtz', properties = ['dipole'])
--------------------------------------------------------------------------

    Molecular point group: c1
  Charge       = 1
  Multiplicity = 1
  Basis Set: AUG-CC-PVTZ
    Blend: AUG-CC-PVTZ
  Basis Set: (AUG-CC-PVTZ AUX)
    Blend: AUG-CC-PVTZ-JKFIT

    Orbital Energies [Eh]
    ---------------------

    Doubly Occupied:

       1A    -15.863977     2A    -15.699993     3A    -11.453863
       4A    -11.453852     5A    -11.413077     6A    -11.413062
       7A    -11.378580     8A    -11.342570     9A    -11.341359
      10A    -11.339840    11A    -11.336700    12A    -11.334119
      13A     -1.494331    14A     -1.371522    15A     -1.263170
      16A     -1.217845    17A     -1.146792    18A     -1.129218
      19A     -1.090691    20A     -1.047983    21A     -0.990411
      22A     -0.944003    23A     -0.925838    24A     -0.920105
      25A     -0.867408    26A     -0.820245    27A     -0.818255
      28A     -0.788974    29A     -0.780893    30A     -0.760923
      31A     -0.743136    32A     -0.731227    33A     -0.719893
      34A     -0.711656    35A     -0.692772    36A     -0.684035
      37A     -0.655176    38A     -0.654125    39A     -0.614005
      40A     -0.612636    41A     -0.589757    42A     -0.516567
      43A     -0.447234    44A     -0.444318

  @DF-RHF Final Energy:  -496.25070687870675

   => Energetics <=

    Nuclear Repulsion Energy =            706.4164829253168136
    One-Electron Energy =               -2060.2021027815521848
    Two-Electron Energy =                 857.5349129775286201
    Total Energy =                       -496.2507068787067510
  Basis Set: (AUG-CC-PVTZ AUX)
    Blend: AUG-CC-PVTZ-RI
    Molecular point group: c1

    Geometry (in Angstrom), charge = 1, multiplicity = 1:

       Center              X                  Y                   Z               Mass
    ------------   -----------------  -----------------  -----------------  -----------------
         N           -3.391172996614     0.201032346627    -0.000020604341    14.003074004430
         N           -0.612402996614    -0.288068653373     0.000029395659    14.003074004430
         C           -2.680150996614    -0.246908653373    -1.257345604341    12.000000000000
         C           -2.680153996614    -0.246674653373     1.257390395659    12.000000000000
         C           -1.245249996614     0.244606346627    -1.200386604341    12.000000000000
         C           -1.245254996614     0.244835346627     1.200338395659    12.000000000000
         C            0.924622503386    -0.107973153373     0.000010195659    12.000000000000
         C            1.415112003386     1.150094346627    -0.000095604341    12.000000000000
         C            1.615244003386    -1.271030653373     0.000112395659    12.000000000000
         C            2.806719003386     1.260825346627    -0.000109604341    12.000000000000
         C            3.005987003386    -1.152379653373     0.000097395659    12.000000000000
         C            3.601447003386     0.111606346627    -0.000009604341    12.000000000000
         H           -3.448100996614     1.229558346627    -0.000114604341     1.007825032230
         H           -4.361649996614    -0.141176653373     0.000009395659     1.007825032230
         H           -3.234183996614     0.154624346627    -2.109599604341     1.007825032230
         H           -2.717454996614    -1.337643653373    -1.264906604341     1.007825032230
         H           -2.717453996614    -1.337407653373     1.265151395659     1.007825032230
         H           -3.234189996614     0.155015346627     2.109567395659     1.007825032230
         H           -0.714990996614    -0.132904653373    -2.079307604341     1.007825032230
         H           -1.224070996614     1.350276346627    -1.252806604341     1.007825032230
         H           -1.224083996614     1.350516346627     1.252547395659     1.007825032230
         H           -0.714994996614    -0.132499653373     2.079335395659     1.007825032230
         H            0.802632003386     2.050318346627    -0.000173604341     1.007825032230
         H            1.130720003386    -2.244063653373     0.000194395659     1.007825032230
         H            3.270573003386     2.243710346627    -0.000192604341     1.007825032230
         H            3.624368003386    -2.045992653373     0.000177395659     1.007825032230
         H            4.684260003386     0.201759346627    -0.000024604341     1.007825032230

  Basis Set: AUG-CC-PVTZ
    Blend: AUG-CC-PVTZ
  Basis Set: (AUG-CC-PVTZ AUX)
    Blend: AUG-CC-PVTZ-JKFIT
	 Reference Energy          =    -496.2507068787067510 [Eh]
	 Singles Energy            =      -0.0000000000000000 [Eh]
	 Same-Spin Energy          =      -0.5393665284521001 [Eh]
	 Opposite-Spin Energy      =      -1.7584976706635378 [Eh]
	 Correlation Energy        =      -2.2978641991156379 [Eh]
	 Total Energy              =    -498.5485710778223734 [Eh]

	 ================> DF-SCS-MP2 Energies <==================
	-----------------------------------------------------------
	 SCS Same-Spin Scale       =       0.3333333333333333 [-]
	 SCS Opposite-Spin Scale   =       1.2000000000000000 [-]
	 SCS Same-Spin Energy      =      -0.1797888428173667 [Eh]
	 SCS Opposite-Spin Energy  =      -2.1101972047962452 [Eh]
	 SCS Correlation Energy    =      -2.2899860476136120 [Eh]
	 SCS Total Energy          =    -498.5406929263203892 [Eh]
	-----------------------------------------------------------

  Dipole Moment: [D]
     X:   -11.1490      Y:     1.0704      Z:    -0.0001     Total:    11.2002

*** Psi4 exiting successfully. Buy a developer a beer!
