                               Psi4 1.3.2 release

  ==> Input File <==

--------------------------------------------------------------------------
#psi4
#
memory 32 gb

molecule  {
1 1
  N       -3.3283680     0.1942120    -0.0000200
  N       -0.5593308    -0.1436851     0.0000175
  C       -2.6173460    -0.2537290    -1.2573450
  C       -2.6173490    -0.2534950     1.2573910
  C       -1.1824450     0.2377860    -1.2003860
  C       -1.1824500     0.2380150     1.2003390
  C        0.8881070    -0.1264310     0.0000120
  C        1.4779170     1.1432740    -0.0000950
  C        1.6780490    -1.2778510     0.0001130
  C        2.8695240     1.2540050    -0.0001090
  C        3.0687920    -1.1592000     0.0000980
  C        3.6642520     0.1047860    -0.0000090
  H       -3.3852960     1.2227380    -0.0001140
  H       -4.2988450    -0.1479970     0.0000100
  H       -3.1713790     0.1478040    -2.1095990
  H       -2.6546500    -1.3444640    -1.2649060
  H       -2.6546490    -1.3442280     1.2651520
  H       -3.1713850     0.1481950     2.1095680
  H       -0.6521860    -0.1397250    -2.0793070
  H       -1.1612660     1.3434560    -1.2528060
  H       -1.1612790     1.3436960     1.2525480
  H       -0.6521900    -0.1393200     2.0793360
  H        0.8654370     2.0434980    -0.0001730
  H        1.1935250    -2.2508840     0.0001950
  H        3.3333780     2.2368900    -0.0001920
  H        3.6871730    -2.0528130     0.0001780
  H        4.7470650     0.1949390    -0.0000240
units angstrom
no_reorient  #important for SAPT in psi4, default
symmetry c1  #important for SAPT in psi4, default
}

set PROPERTIES_ORIGIN ["COM"]
properties('MP2/aug-cc-pvtz', properties = ['dipole'])
--------------------------------------------------------------------------

    Molecular point group: c1
  Charge       = 1
  Multiplicity = 1
  Basis Set: AUG-CC-PVTZ
    Blend: AUG-CC-PVTZ
  Basis Set: (AUG-CC-PVTZ AUX)
    Blend: AUG-CC-PVTZ-JKFIT

    Orbital Energies [Eh]
    ---------------------

    Doubly Occupied:

       1A    -15.866598     2A    -15.691271     3A    -11.456788
       4A    -11.456778     5A    -11.415633     6A    -11.415614
       7A    -11.381155     8A    -11.342543     9A    -11.342114
      10A    -11.338392    11A    -11.338010    12A    -11.334583
      13A     -1.498620    14A     -1.403731    15A     -1.251677
      16A     -1.224200    17A     -1.154059    18A     -1.119993
      19A     -1.090214    20A     -1.062763    21A     -0.993488
      22A     -0.937961    23A     -0.929462    24A     -0.925745
      25A     -0.867257    26A     -0.822959    27A     -0.818722
      28A     -0.804634    29A     -0.797888    30A     -0.772096
      31A     -0.738497    32A     -0.736282    33A     -0.717953
      34A     -0.707245    35A     -0.689744    36A     -0.683902
      37A     -0.676266    38A     -0.660641    39A     -0.605274
      40A     -0.604965    41A     -0.604275    42A     -0.496170
      43A     -0.440658    44A     -0.440348

  @DF-RHF Final Energy:  -496.25379120999605

   => Energetics <=

    Nuclear Repulsion Energy =            708.1687999215207583
    One-Electron Energy =               -2063.5308492926960753
    Two-Electron Energy =                 859.1082581611792648
    Total Energy =                       -496.2537912099960522
  Basis Set: (AUG-CC-PVTZ AUX)
    Blend: AUG-CC-PVTZ-RI
    Molecular point group: c1

    Geometry (in Angstrom), charge = 1, multiplicity = 1:

       Center              X                  Y                   Z               Mass
    ------------   -----------------  -----------------  -----------------  -----------------
         N           -3.383031098436     0.188908593050    -0.000019619575    14.003074004430
         N           -0.613993898436    -0.148988506950     0.000017880425    14.003074004430
         C           -2.672009098436    -0.259032406950    -1.257344619575    12.000000000000
         C           -2.672012098436    -0.258798406950     1.257391380425    12.000000000000
         C           -1.237108098436     0.232482593050    -1.200385619575    12.000000000000
         C           -1.237113098436     0.232711593050     1.200339380425    12.000000000000
         C            0.833443901564    -0.131734406950     0.000012380425    12.000000000000
         C            1.423253901564     1.137970593050    -0.000094619575    12.000000000000
         C            1.623385901564    -1.283154406950     0.000113380425    12.000000000000
         C            2.814860901564     1.248701593050    -0.000108619575    12.000000000000
         C            3.014128901564    -1.164503406950     0.000098380425    12.000000000000
         C            3.609588901564     0.099482593050    -0.000008619575    12.000000000000
         H           -3.439959098436     1.217434593050    -0.000113619575     1.007825032230
         H           -4.353508098436    -0.153300406950     0.000010380425     1.007825032230
         H           -3.226042098436     0.142500593050    -2.109598619575     1.007825032230
         H           -2.709313098436    -1.349767406950    -1.264905619575     1.007825032230
         H           -2.709312098436    -1.349531406950     1.265152380425     1.007825032230
         H           -3.226048098436     0.142891593050     2.109568380425     1.007825032230
         H           -0.706849098436    -0.145028406950    -2.079306619575     1.007825032230
         H           -1.215929098436     1.338152593050    -1.252805619575     1.007825032230
         H           -1.215942098436     1.338392593050     1.252548380425     1.007825032230
         H           -0.706853098436    -0.144623406950     2.079336380425     1.007825032230
         H            0.810773901564     2.038194593050    -0.000172619575     1.007825032230
         H            1.138861901564    -2.256187406950     0.000195380425     1.007825032230
         H            3.278714901564     2.231586593050    -0.000191619575     1.007825032230
         H            3.632509901564    -2.058116406950     0.000178380425     1.007825032230
         H            4.692401901564     0.189635593050    -0.000023619575     1.007825032230

  Basis Set: AUG-CC-PVTZ
    Blend: AUG-CC-PVTZ
  Basis Set: (AUG-CC-PVTZ AUX)
    Blend: AUG-CC-PVTZ-JKFIT
	 Reference Energy          =    -496.2537912099960522 [Eh]
	 Singles Energy            =      -0.0000000000000000 [Eh]
	 Same-Spin Energy          =      -0.5396506741324424 [Eh]
	 Opposite-Spin Energy      =      -1.7572747381957139 [Eh]
	 Correlation Energy        =      -2.2969254123281564 [Eh]
	 Total Energy              =    -498.5507166223242166 [Eh]

	 ================> DF-SCS-MP2 Energies <==================
	-----------------------------------------------------------
	 SCS Same-Spin Scale       =       0.3333333333333333 [-]
	 SCS Opposite-Spin Scale   =       1.2000000000000000 [-]
	 SCS Same-Spin Energy      =      -0.1798835580441475 [Eh]
	 SCS Opposite-Spin Energy  =      -2.1087296858348568 [Eh]
	 SCS Correlation Energy    =      -2.2886132438790043 [Eh]
	 SCS Total Energy          =    -498.5424044538750650 [Eh]
	-----------------------------------------------------------

  Dipole Moment: [D]
     X:   -11.3358      Y:     0.6459      Z:    -0.0001     Total:    11.3542

*** Psi4 exiting successfully. Buy a developer a beer!
