                               Psi4 1.3.2 release

  ==> Input File <==

--------------------------------------------------------------------------
#psi4
#
memory 32 gb

molecule  {
1 1
  N       -3.3283680     0.1942120    -0.0000200
  N       -0.5495980    -0.2948890     0.0000300
  C       -2.6231282    -0.3038013    -1.2416678
  C       -2.6173490    -0.2534950     1.2573910
  C       -1.1824450     0.2377860    -1.2003860
  C       -1.1824500     0.2380150     1.2003390
  C        0.8881070    -0.1264310     0.0000120
  C        1.4779170     1.1432740    -0.0000950
  C        1.6780490    -1.2778510     0.0001130
  C        2.8695240     1.2540050    -0.0001090
  C        3.0687920    -1.1592000     0.0000980
  C        3.6642520     0.1047860    -0.0000090
  H       -3.3852960     1.2227380    -0.0001140
  H       -4.2988450    -0.1479970     0.0000100
  H       -3.1713790     0.1478040    -2.1095990
  H       -2.6546500    -1.3444640    -1.2649060
  H       -2.6546490    -1.3442280     1.2651520
  H       -3.1713850     0.1481950     2.1095680
  H       -0.6521860    -0.1397250    -2.0793070
  H       -1.1612660     1.3434560    -1.2528060
  H       -1.1612790     1.3436960     1.2525480
  H       -0.6521900    -0.1393200     2.0793360
  H        0.8654370     2.0434980    -0.0001730
  H        1.1935250    -2.2508840     0.0001950
  H        3.3333780     2.2368900    -0.0001920
  H        3.6871730    -2.0528130     0.0001780
  H        4.7470650     0.1949390    -0.0000240
units angstrom
no_reorient  #important for SAPT in psi4, default
symmetry c1  #important for SAPT in psi4, default
}

set PROPERTIES_ORIGIN ["COM"]
properties('MP2/aug-cc-pvtz', properties = ['dipole'])
--------------------------------------------------------------------------

    Molecular point group: c1
  Charge       = 1
  Multiplicity = 1
  Basis Set: AUG-CC-PVTZ
    Blend: AUG-CC-PVTZ
  Basis Set: (AUG-CC-PVTZ AUX)
    Blend: AUG-CC-PVTZ-JKFIT

    Orbital Energies [Eh]
    ---------------------

    Doubly Occupied:

       1A    -15.866895     2A    -15.704270     3A    -11.456518
       4A    -11.456080     5A    -11.418512     6A    -11.417249
       7A    -11.378883     8A    -11.344155     9A    -11.338903
      10A    -11.338609    11A    -11.336466    12A    -11.333398
      13A     -1.497516    14A     -1.389711    15A     -1.249460
      16A     -1.219450    17A     -1.153847    18A     -1.119360
      19A     -1.087127    20A     -1.052842    21A     -0.999596
      22A     -0.938555    23A     -0.926543    24A     -0.922102
      25A     -0.868844    26A     -0.830391    27A     -0.818466
      28A     -0.791342    29A     -0.784109    30A     -0.769108
      31A     -0.741473    32A     -0.728381    33A     -0.717137
      34A     -0.711260    35A     -0.691971    36A     -0.688598
      37A     -0.659530    38A     -0.656495    39A     -0.607070
      40A     -0.601637    41A     -0.600782    42A     -0.520324
      43A     -0.440105    44A     -0.437988

  @DF-RHF Final Energy:  -496.25751868830253

   => Energetics <=

    Nuclear Repulsion Energy =            706.5507647554935602
    One-Electron Energy =               -2060.3944518849093583
    Two-Electron Energy =                 857.5861684411131591
    Total Energy =                       -496.2575186883025253
  Basis Set: (AUG-CC-PVTZ AUX)
    Blend: AUG-CC-PVTZ-RI
    Molecular point group: c1

    Geometry (in Angstrom), charge = 1, multiplicity = 1:

       Center              X                  Y                   Z               Mass
    ------------   -----------------  -----------------  -----------------  -----------------
         N           -3.383441233757     0.205571959211    -0.001173968343    14.003074004430
         N           -0.604671233757    -0.283529040789    -0.001123968343    14.003074004430
         C           -2.678201433757    -0.292441340789    -1.242821768343    12.000000000000
         C           -2.672422233757    -0.242135040789     1.256237031657    12.000000000000
         C           -1.237518233757     0.249145959211    -1.201539968343    12.000000000000
         C           -1.237523233757     0.249374959211     1.199185031657    12.000000000000
         C            0.833033766243    -0.115071040789    -0.001141968343    12.000000000000
         C            1.422843766243     1.154633959211    -0.001248968343    12.000000000000
         C            1.622975766243    -1.266491040789    -0.001040968343    12.000000000000
         C            2.814450766243     1.265364959211    -0.001262968343    12.000000000000
         C            3.013718766243    -1.147840040789    -0.001055968343    12.000000000000
         C            3.609178766243     0.116145959211    -0.001162968343    12.000000000000
         H           -3.440369233757     1.234097959211    -0.001267968343     1.007825032230
         H           -4.353918233757    -0.136637040789    -0.001143968343     1.007825032230
         H           -3.226452233757     0.159163959211    -2.110752968343     1.007825032230
         H           -2.709723233757    -1.333104040789    -1.266059968343     1.007825032230
         H           -2.709722233757    -1.332868040789     1.263998031657     1.007825032230
         H           -3.226458233757     0.159554959211     2.108414031657     1.007825032230
         H           -0.707259233757    -0.128365040789    -2.080460968343     1.007825032230
         H           -1.216339233757     1.354815959211    -1.253959968343     1.007825032230
         H           -1.216352233757     1.355055959211     1.251394031657     1.007825032230
         H           -0.707263233757    -0.127960040789     2.078182031657     1.007825032230
         H            0.810363766243     2.054857959211    -0.001326968343     1.007825032230
         H            1.138451766243    -2.239524040789    -0.000958968343     1.007825032230
         H            3.278304766243     2.248249959211    -0.001345968343     1.007825032230
         H            3.632099766243    -2.041453040789    -0.000975968343     1.007825032230
         H            4.691991766243     0.206298959211    -0.001177968343     1.007825032230

  Basis Set: AUG-CC-PVTZ
    Blend: AUG-CC-PVTZ
  Basis Set: (AUG-CC-PVTZ AUX)
    Blend: AUG-CC-PVTZ-JKFIT
	 Reference Energy          =    -496.2575186883025253 [Eh]
	 Singles Energy            =      -0.0000000000000000 [Eh]
	 Same-Spin Energy          =      -0.5393665551616329 [Eh]
	 Opposite-Spin Energy      =      -1.7585037728582495 [Eh]
	 Correlation Energy        =      -2.2978703280198824 [Eh]
	 Total Energy              =    -498.5553890163224082 [Eh]

	 ================> DF-SCS-MP2 Energies <==================
	-----------------------------------------------------------
	 SCS Same-Spin Scale       =       0.3333333333333333 [-]
	 SCS Opposite-Spin Scale   =       1.2000000000000000 [-]
	 SCS Same-Spin Energy      =      -0.1797888517205443 [Eh]
	 SCS Opposite-Spin Energy  =      -2.1102045274298993 [Eh]
	 SCS Correlation Energy    =      -2.2899933791504434 [Eh]
	 SCS Total Energy          =    -498.5475120674529421 [Eh]
	-----------------------------------------------------------

  Dipole Moment: [D]
     X:   -11.4867      Y:     1.0794      Z:     0.0070     Total:    11.5373

*** Psi4 exiting successfully. Buy a developer a beer!
