                               Psi4 1.3.2 release

  ==> Input File <==

--------------------------------------------------------------------------
#psi4
#
memory 32 gb

molecule  {
1 1
  N       -3.3283680     0.1942120    -0.0000200
  N       -0.4521964    -0.3667345    -0.0928985
  C       -2.6173460    -0.2537290    -1.2573450
  C       -2.6173490    -0.2534950     1.2573910
  C       -1.1824450     0.2377860    -1.2003860
  C       -1.1824500     0.2380150     1.2003390
  C        0.8881070    -0.1264310     0.0000120
  C        1.4779170     1.1432740    -0.0000950
  C        1.6780490    -1.2778510     0.0001130
  C        2.8695240     1.2540050    -0.0001090
  C        3.0687920    -1.1592000     0.0000980
  C        3.6642520     0.1047860    -0.0000090
  H       -3.3852960     1.2227380    -0.0001140
  H       -4.2988450    -0.1479970     0.0000100
  H       -3.1713790     0.1478040    -2.1095990
  H       -2.6546500    -1.3444640    -1.2649060
  H       -2.6546490    -1.3442280     1.2651520
  H       -3.1713850     0.1481950     2.1095680
  H       -0.6521860    -0.1397250    -2.0793070
  H       -1.1612660     1.3434560    -1.2528060
  H       -1.1612790     1.3436960     1.2525480
  H       -0.6521900    -0.1393200     2.0793360
  H        0.8654370     2.0434980    -0.0001730
  H        1.1935250    -2.2508840     0.0001950
  H        3.3333780     2.2368900    -0.0001920
  H        3.6871730    -2.0528130     0.0001780
  H        4.7470650     0.1949390    -0.0000240
units angstrom
no_reorient  #important for SAPT in psi4, default
symmetry c1  #important for SAPT in psi4, default
}

set PROPERTIES_ORIGIN ["COM"]
properties('MP2/aug-cc-pvtz', properties = ['dipole'])
--------------------------------------------------------------------------

    Molecular point group: c1
  Charge       = 1
  Multiplicity = 1
  Basis Set: AUG-CC-PVTZ
    Blend: AUG-CC-PVTZ
  Basis Set: (AUG-CC-PVTZ AUX)
    Blend: AUG-CC-PVTZ-JKFIT

    Orbital Energies [Eh]
    ---------------------

    Doubly Occupied:

       1A    -15.868630     2A    -15.711392     3A    -11.461662
       4A    -11.459968     5A    -11.425004     6A    -11.417505
       7A    -11.370865     8A    -11.341853     9A    -11.337303
      10A    -11.334038    11A    -11.332810    12A    -11.330964
      13A     -1.498295    14A     -1.389419    15A     -1.245325
      16A     -1.219786    17A     -1.165623    18A     -1.117423
      19A     -1.083303    20A     -1.044801    21A     -1.004690
      22A     -0.942300    23A     -0.928425    24A     -0.919173
      25A     -0.872190    26A     -0.826490    27A     -0.818854
      28A     -0.786027    29A     -0.779895    30A     -0.766938
      31A     -0.741470    32A     -0.738174    33A     -0.715078
      34A     -0.705640    35A     -0.689689    36A     -0.686140
      37A     -0.672310    38A     -0.643203    39A     -0.609046
      40A     -0.604384    41A     -0.589638    42A     -0.526200
      43A     -0.437879    44A     -0.431602

  @DF-RHF Final Energy:  -496.23891127188972

   => Energetics <=

    Nuclear Repulsion Energy =            705.9608547695304424
    One-Electron Energy =               -2059.2167271527969206
    Two-Electron Energy =                 857.0169611113767587
    Total Energy =                       -496.2389112718897195
  Basis Set: (AUG-CC-PVTZ AUX)
    Blend: AUG-CC-PVTZ-RI
    Molecular point group: c1

    Geometry (in Angstrom), charge = 1, multiplicity = 1:

       Center              X                  Y                   Z               Mass
    ------------   -----------------  -----------------  -----------------  -----------------
         N           -3.392227877046     0.208055906619     0.007956603574    14.003074004430
         N           -0.516056277046    -0.352890593381    -0.084921896426    14.003074004430
         C           -2.681205877046    -0.239885093381    -1.249368396426    12.000000000000
         C           -2.681208877046    -0.239651093381     1.265367603574    12.000000000000
         C           -1.246304877046     0.251629906619    -1.192409396426    12.000000000000
         C           -1.246309877046     0.251858906619     1.208315603574    12.000000000000
         C            0.824247122954    -0.112587093381     0.007988603574    12.000000000000
         C            1.414057122954     1.157117906619     0.007881603574    12.000000000000
         C            1.614189122954    -1.264007093381     0.008089603574    12.000000000000
         C            2.805664122954     1.267848906619     0.007867603574    12.000000000000
         C            3.004932122954    -1.145356093381     0.008074603574    12.000000000000
         C            3.600392122954     0.118629906619     0.007967603574    12.000000000000
         H           -3.449155877046     1.236581906619     0.007862603574     1.007825032230
         H           -4.362704877046    -0.134153093381     0.007986603574     1.007825032230
         H           -3.235238877046     0.161647906619    -2.101622396426     1.007825032230
         H           -2.718509877046    -1.330620093381    -1.256929396426     1.007825032230
         H           -2.718508877046    -1.330384093381     1.273128603574     1.007825032230
         H           -3.235244877046     0.162038906619     2.117544603574     1.007825032230
         H           -0.716045877046    -0.125881093381    -2.071330396426     1.007825032230
         H           -1.225125877046     1.357299906619    -1.244829396426     1.007825032230
         H           -1.225138877046     1.357539906619     1.260524603574     1.007825032230
         H           -0.716049877046    -0.125476093381     2.087312603574     1.007825032230
         H            0.801577122954     2.057341906619     0.007803603574     1.007825032230
         H            1.129665122954    -2.237040093381     0.008171603574     1.007825032230
         H            3.269518122954     2.250733906619     0.007784603574     1.007825032230
         H            3.623313122954    -2.038969093381     0.008154603574     1.007825032230
         H            4.683205122954     0.208782906619     0.007952603574     1.007825032230

  Basis Set: AUG-CC-PVTZ
    Blend: AUG-CC-PVTZ
  Basis Set: (AUG-CC-PVTZ AUX)
    Blend: AUG-CC-PVTZ-JKFIT
	 Reference Energy          =    -496.2389112718897195 [Eh]
	 Singles Energy            =      -0.0000000000000000 [Eh]
	 Same-Spin Energy          =      -0.5406975811883822 [Eh]
	 Opposite-Spin Energy      =      -1.7613044695820252 [Eh]
	 Correlation Energy        =      -2.3020020507704073 [Eh]
	 Total Energy              =    -498.5409133226601170 [Eh]

	 ================> DF-SCS-MP2 Energies <==================
	-----------------------------------------------------------
	 SCS Same-Spin Scale       =       0.3333333333333333 [-]
	 SCS Opposite-Spin Scale   =       1.2000000000000000 [-]
	 SCS Same-Spin Energy      =      -0.1802325270627941 [Eh]
	 SCS Opposite-Spin Energy  =      -2.1135653634984304 [Eh]
	 SCS Correlation Energy    =      -2.2937978905612244 [Eh]
	 SCS Total Energy          =    -498.5327091624509421 [Eh]
	-----------------------------------------------------------

  Dipole Moment: [D]
     X:   -11.8567      Y:     1.2706      Z:     0.1859     Total:    11.9260

*** Psi4 exiting successfully. Buy a developer a beer!
