                               Psi4 1.3.2 release

  ==> Input File <==

--------------------------------------------------------------------------
#psi4
#
memory 32 gb

molecule  {
1 1
  N       -3.3283680     0.1942120    -0.0000200
  N       -0.5495980    -0.2948890     0.0000300
  C       -2.5100304    -0.3213112    -1.1626158
  C       -2.6173490    -0.2534950     1.2573910
  C       -1.1824450     0.2377860    -1.2003860
  C       -1.1824500     0.2380150     1.2003390
  C        0.8881070    -0.1264310     0.0000120
  C        1.4779170     1.1432740    -0.0000950
  C        1.6780490    -1.2778510     0.0001130
  C        2.8695240     1.2540050    -0.0001090
  C        3.0687920    -1.1592000     0.0000980
  C        3.6642520     0.1047860    -0.0000090
  H       -3.3852960     1.2227380    -0.0001140
  H       -4.2988450    -0.1479970     0.0000100
  H       -3.1713790     0.1478040    -2.1095990
  H       -2.6546500    -1.3444640    -1.2649060
  H       -2.6546490    -1.3442280     1.2651520
  H       -3.1713850     0.1481950     2.1095680
  H       -0.6521860    -0.1397250    -2.0793070
  H       -1.1612660     1.3434560    -1.2528060
  H       -1.1612790     1.3436960     1.2525480
  H       -0.6521900    -0.1393200     2.0793360
  H        0.8654370     2.0434980    -0.0001730
  H        1.1935250    -2.2508840     0.0001950
  H        3.3333780     2.2368900    -0.0001920
  H        3.6871730    -2.0528130     0.0001780
  H        4.7470650     0.1949390    -0.0000240
units angstrom
no_reorient  #important for SAPT in psi4, default
symmetry c1  #important for SAPT in psi4, default
}

set PROPERTIES_ORIGIN ["COM"]
properties('MP2/aug-cc-pvtz', properties = ['dipole'])
--------------------------------------------------------------------------

    Molecular point group: c1
  Charge       = 1
  Multiplicity = 1
  Basis Set: AUG-CC-PVTZ
    Blend: AUG-CC-PVTZ
  Basis Set: (AUG-CC-PVTZ AUX)
    Blend: AUG-CC-PVTZ-JKFIT

    Orbital Energies [Eh]
    ---------------------

    Doubly Occupied:

       1A    -15.868001     2A    -15.704022     3A    -11.463091
       4A    -11.455809     5A    -11.418515     6A    -11.415122
       7A    -11.378924     8A    -11.344553     9A    -11.339452
      10A    -11.338927    11A    -11.336928    12A    -11.333662
      13A     -1.500963    14A     -1.394089    15A     -1.251769
      16A     -1.226523    17A     -1.160493    18A     -1.119832
      19A     -1.087709    20A     -1.050055    21A     -1.003764
      22A     -0.940375    23A     -0.931047    24A     -0.922154
      25A     -0.867034    26A     -0.831832    27A     -0.822855
      28A     -0.790723    29A     -0.781961    30A     -0.772660
      31A     -0.751132    32A     -0.729279    33A     -0.718708
      34A     -0.705352    35A     -0.690093    36A     -0.688540
      37A     -0.663012    38A     -0.642392    39A     -0.607326
      40A     -0.602307    41A     -0.598934    42A     -0.522803
      43A     -0.440637    44A     -0.438167

  @DF-RHF Final Energy:  -496.23283728184140

   => Energetics <=

    Nuclear Repulsion Energy =            709.0335912831134237
    One-Electron Energy =               -2065.2298057423336104
    Two-Electron Energy =                 859.9633771773789022
    Total Energy =                       -496.2328372818413982
  Basis Set: (AUG-CC-PVTZ AUX)
    Blend: AUG-CC-PVTZ-RI
    Molecular point group: c1

    Geometry (in Angstrom), charge = 1, multiplicity = 1:

       Center              X                  Y                   Z               Mass
    ------------   -----------------  -----------------  -----------------  -----------------
         N           -3.391761147225     0.206860055468    -0.006989340521    14.003074004430
         N           -0.612991147225    -0.282240944532    -0.006939340521    14.003074004430
         C           -2.573423547225    -0.308663144532    -1.169585140521    12.000000000000
         C           -2.680742147225    -0.240846944532     1.250421659479    12.000000000000
         C           -1.245838147225     0.250434055468    -1.207355340521    12.000000000000
         C           -1.245843147225     0.250663055468     1.193369659479    12.000000000000
         C            0.824713852775    -0.113782944532    -0.006957340521    12.000000000000
         C            1.414523852775     1.155922055468    -0.007064340521    12.000000000000
         C            1.614655852775    -1.265202944532    -0.006856340521    12.000000000000
         C            2.806130852775     1.266653055468    -0.007078340521    12.000000000000
         C            3.005398852775    -1.146551944532    -0.006871340521    12.000000000000
         C            3.600858852775     0.117434055468    -0.006978340521    12.000000000000
         H           -3.448689147225     1.235386055468    -0.007083340521     1.007825032230
         H           -4.362238147225    -0.135348944532    -0.006959340521     1.007825032230
         H           -3.234772147225     0.160452055468    -2.116568340521     1.007825032230
         H           -2.718043147225    -1.331815944532    -1.271875340521     1.007825032230
         H           -2.718042147225    -1.331579944532     1.258182659479     1.007825032230
         H           -3.234778147225     0.160843055468     2.102598659479     1.007825032230
         H           -0.715579147225    -0.127076944532    -2.086276340521     1.007825032230
         H           -1.224659147225     1.356104055468    -1.259775340521     1.007825032230
         H           -1.224672147225     1.356344055468     1.245578659479     1.007825032230
         H           -0.715583147225    -0.126671944532     2.072366659479     1.007825032230
         H            0.802043852775     2.056146055468    -0.007142340521     1.007825032230
         H            1.130131852775    -2.238235944532    -0.006774340521     1.007825032230
         H            3.269984852775     2.249538055468    -0.007161340521     1.007825032230
         H            3.623779852775    -2.040164944532    -0.006791340521     1.007825032230
         H            4.683671852775     0.207587055468    -0.006993340521     1.007825032230

  Basis Set: AUG-CC-PVTZ
    Blend: AUG-CC-PVTZ
  Basis Set: (AUG-CC-PVTZ AUX)
    Blend: AUG-CC-PVTZ-JKFIT
	 Reference Energy          =    -496.2328372818413982 [Eh]
	 Singles Energy            =      -0.0000000000000000 [Eh]
	 Same-Spin Energy          =      -0.5409514290283133 [Eh]
	 Opposite-Spin Energy      =      -1.7609141704838369 [Eh]
	 Correlation Energy        =      -2.3018655995121504 [Eh]
	 Total Energy              =    -498.5347028813535530 [Eh]

	 ================> DF-SCS-MP2 Energies <==================
	-----------------------------------------------------------
	 SCS Same-Spin Scale       =       0.3333333333333333 [-]
	 SCS Opposite-Spin Scale   =       1.2000000000000000 [-]
	 SCS Same-Spin Energy      =      -0.1803171430094377 [Eh]
	 SCS Opposite-Spin Energy  =      -2.1130970045806041 [Eh]
	 SCS Correlation Energy    =      -2.2934141475900418 [Eh]
	 SCS Total Energy          =    -498.5262514294314542 [Eh]
	-----------------------------------------------------------

  Dipole Moment: [D]
     X:   -11.4131      Y:     1.0617      Z:     0.0585     Total:    11.4625

*** Psi4 exiting successfully. Buy a developer a beer!
