                               Psi4 1.3.2 release

  ==> Input File <==

--------------------------------------------------------------------------
#psi4
#
memory 32 gb

molecule  {
1 1
  N       -3.3283680     0.1942120    -0.0000200
  N       -0.5495980    -0.2948890     0.0000300
  C       -2.6173460    -0.2537290    -1.2573450
  C       -2.6173490    -0.2534950     1.2573910
  C       -1.2051155     0.2305704    -1.1913666
  C       -1.1824500     0.2380150     1.2003390
  C        0.8881070    -0.1264310     0.0000120
  C        1.4779170     1.1432740    -0.0000950
  C        1.6780490    -1.2778510     0.0001130
  C        2.8695240     1.2540050    -0.0001090
  C        3.0687920    -1.1592000     0.0000980
  C        3.6642520     0.1047860    -0.0000090
  H       -3.3852960     1.2227380    -0.0001140
  H       -4.2988450    -0.1479970     0.0000100
  H       -3.1713790     0.1478040    -2.1095990
  H       -2.6546500    -1.3444640    -1.2649060
  H       -2.6546490    -1.3442280     1.2651520
  H       -3.1713850     0.1481950     2.1095680
  H       -0.6521860    -0.1397250    -2.0793070
  H       -1.1612660     1.3434560    -1.2528060
  H       -1.1612790     1.3436960     1.2525480
  H       -0.6521900    -0.1393200     2.0793360
  H        0.8654370     2.0434980    -0.0001730
  H        1.1935250    -2.2508840     0.0001950
  H        3.3333780     2.2368900    -0.0001920
  H        3.6871730    -2.0528130     0.0001780
  H        4.7470650     0.1949390    -0.0000240
units angstrom
no_reorient  #important for SAPT in psi4, default
symmetry c1  #important for SAPT in psi4, default
}

set PROPERTIES_ORIGIN ["COM"]
properties('MP2/aug-cc-pvtz', properties = ['dipole'])
--------------------------------------------------------------------------

    Molecular point group: c1
  Charge       = 1
  Multiplicity = 1
  Basis Set: AUG-CC-PVTZ
    Blend: AUG-CC-PVTZ
  Basis Set: (AUG-CC-PVTZ AUX)
    Blend: AUG-CC-PVTZ-JKFIT

    Orbital Energies [Eh]
    ---------------------

    Doubly Occupied:

       1A    -15.866638     2A    -15.704824     3A    -11.456917
       4A    -11.456864     5A    -11.417630     6A    -11.416910
       7A    -11.379456     8A    -11.344390     9A    -11.338968
      10A    -11.338949    11A    -11.336590    12A    -11.333678
      13A     -1.498446    14A     -1.389846    15A     -1.249996
      16A     -1.224003    17A     -1.156244    18A     -1.119504
      19A     -1.087329    20A     -1.051652    21A     -0.997037
      22A     -0.938741    23A     -0.926921    24A     -0.923863
      25A     -0.869710    26A     -0.824202    27A     -0.818421
      28A     -0.791931    29A     -0.788495    30A     -0.768733
      31A     -0.738893    32A     -0.737979    33A     -0.717870
      34A     -0.705246    35A     -0.688747    36A     -0.687379
      37A     -0.662345    38A     -0.655594    39A     -0.607237
      40A     -0.602712    41A     -0.601575    42A     -0.519819
      43A     -0.440219    44A     -0.438433

  @DF-RHF Final Energy:  -496.25988768937498

   => Energetics <=

    Nuclear Repulsion Energy =            706.8429943584553712
    One-Electron Energy =               -2060.9638930567089119
    Two-Electron Energy =                 857.8610110088785632
    Total Energy =                       -496.2598876893749775
  Basis Set: (AUG-CC-PVTZ AUX)
    Blend: AUG-CC-PVTZ-RI
    Molecular point group: c1

    Geometry (in Angstrom), charge = 1, multiplicity = 1:

       Center              X                  Y                   Z               Mass
    ------------   -----------------  -----------------  -----------------  -----------------
         N           -3.382198864811     0.202419253893    -0.000684194715    14.003074004430
         N           -0.603428864811    -0.286681746107    -0.000634194715    14.003074004430
         C           -2.671176864811    -0.245521746107    -1.258009194715    12.000000000000
         C           -2.671179864811    -0.245287746107     1.256726805285    12.000000000000
         C           -1.258946364811     0.238777653893    -1.192030794715    12.000000000000
         C           -1.236280864811     0.246222253893     1.199674805285    12.000000000000
         C            0.834276135189    -0.118223746107    -0.000652194715    12.000000000000
         C            1.424086135189     1.151481253893    -0.000759194715    12.000000000000
         C            1.624218135189    -1.269643746107    -0.000551194715    12.000000000000
         C            2.815693135189     1.262212253893    -0.000773194715    12.000000000000
         C            3.014961135189    -1.150992746107    -0.000566194715    12.000000000000
         C            3.610421135189     0.112993253893    -0.000673194715    12.000000000000
         H           -3.439126864811     1.230945253893    -0.000778194715     1.007825032230
         H           -4.352675864811    -0.139789746107    -0.000654194715     1.007825032230
         H           -3.225209864811     0.156011253893    -2.110263194715     1.007825032230
         H           -2.708480864811    -1.336256746107    -1.265570194715     1.007825032230
         H           -2.708479864811    -1.336020746107     1.264487805285     1.007825032230
         H           -3.225215864811     0.156402253893     2.108903805285     1.007825032230
         H           -0.706016864811    -0.131517746107    -2.079971194715     1.007825032230
         H           -1.215096864811     1.351663253893    -1.253470194715     1.007825032230
         H           -1.215109864811     1.351903253893     1.251883805285     1.007825032230
         H           -0.706020864811    -0.131112746107     2.078671805285     1.007825032230
         H            0.811606135189     2.051705253893    -0.000837194715     1.007825032230
         H            1.139694135189    -2.242676746107    -0.000469194715     1.007825032230
         H            3.279547135189     2.245097253893    -0.000856194715     1.007825032230
         H            3.633342135189    -2.044605746107    -0.000486194715     1.007825032230
         H            4.693234135189     0.203146253893    -0.000688194715     1.007825032230

  Basis Set: AUG-CC-PVTZ
    Blend: AUG-CC-PVTZ
  Basis Set: (AUG-CC-PVTZ AUX)
    Blend: AUG-CC-PVTZ-JKFIT
	 Reference Energy          =    -496.2598876893749775 [Eh]
	 Singles Energy            =      -0.0000000000000000 [Eh]
	 Same-Spin Energy          =      -0.5396772184205241 [Eh]
	 Opposite-Spin Energy      =      -1.7585838187966027 [Eh]
	 Correlation Energy        =      -2.2982610372171268 [Eh]
	 Total Energy              =    -498.5581487265920941 [Eh]

	 ================> DF-SCS-MP2 Energies <==================
	-----------------------------------------------------------
	 SCS Same-Spin Scale       =       0.3333333333333333 [-]
	 SCS Opposite-Spin Scale   =       1.2000000000000000 [-]
	 SCS Same-Spin Energy      =      -0.1798924061401747 [Eh]
	 SCS Opposite-Spin Energy  =      -2.1103005825559231 [Eh]
	 SCS Correlation Energy    =      -2.2901929886960977 [Eh]
	 SCS Total Energy          =    -498.5500806780710832 [Eh]
	-----------------------------------------------------------

  Dipole Moment: [D]
     X:   -11.4766      Y:     1.0775      Z:    -0.0111     Total:    11.5271

*** Psi4 exiting successfully. Buy a developer a beer!
