                               Psi4 1.4a3.dev225

  ==> Input File <==

--------------------------------------------------------------------------
#psi4
#
memory 32 gb

molecule  {
1 1
  N       -3.3283680     0.1942120    -0.0000200
  N       -0.5495980    -0.2948890     0.0000300
  C       -2.6079429    -0.2596529    -1.2739729
  C       -2.6173490    -0.2534950     1.2573910
  C       -1.1824450     0.2377860    -1.2003860
  C       -1.1824500     0.2380150     1.2003390
  C        0.8881070    -0.1264310     0.0000120
  C        1.4779170     1.1432740    -0.0000950
  C        1.6780490    -1.2778510     0.0001130
  C        2.8695240     1.2540050    -0.0001090
  C        3.0687920    -1.1592000     0.0000980
  C        3.6642520     0.1047860    -0.0000090
  H       -3.3852960     1.2227380    -0.0001140
  H       -4.2988450    -0.1479970     0.0000100
  H       -3.1713790     0.1478040    -2.1095990
  H       -2.6546500    -1.3444640    -1.2649060
  H       -2.6546490    -1.3442280     1.2651520
  H       -3.1713850     0.1481950     2.1095680
  H       -0.6521860    -0.1397250    -2.0793070
  H       -1.1612660     1.3434560    -1.2528060
  H       -1.1612790     1.3436960     1.2525480
  H       -0.6521900    -0.1393200     2.0793360
  H        0.8654370     2.0434980    -0.0001730
  H        1.1935250    -2.2508840     0.0001950
  H        3.3333780     2.2368900    -0.0001920
  H        3.6871730    -2.0528130     0.0001780
  H        4.7470650     0.1949390    -0.0000240
units angstrom
no_reorient  #important for SAPT in psi4, default
symmetry c1  #important for SAPT in psi4, default
}

set PROPERTIES_ORIGIN ["COM"]
properties('MP2/aug-cc-pvtz', properties = ['dipole'])
--------------------------------------------------------------------------

    Molecular point group: c1
  Charge       = 1
  Multiplicity = 1
  Basis Set: AUG-CC-PVTZ
    Blend: AUG-CC-PVTZ
  Basis Set: (AUG-CC-PVTZ AUX)
    Blend: AUG-CC-PVTZ-JKFIT

    Orbital Energies [Eh]
    ---------------------

    Doubly Occupied:

       1A    -15.864667     2A    -15.705241     3A    -11.457969
       4A    -11.456005     5A    -11.417454     6A    -11.417057
       7A    -11.379300     8A    -11.344383     9A    -11.339041
      10A    -11.338882    11A    -11.336626    12A    -11.333632
      13A     -1.493064    14A     -1.389935    15A     -1.249793
      16A     -1.221945    17A     -1.155037    18A     -1.119542
      19A     -1.086863    20A     -1.052182    21A     -0.996161
      22A     -0.938014    23A     -0.925752    24A     -0.922844
      25A     -0.868778    26A     -0.822773    27A     -0.817711
      28A     -0.793681    29A     -0.786685    30A     -0.768537
      31A     -0.738999    32A     -0.736700    33A     -0.717518
      34A     -0.706560    35A     -0.689469    36A     -0.688476
      37A     -0.661378    38A     -0.659023    39A     -0.607351
      40A     -0.602248    41A     -0.601744    42A     -0.520861
      43A     -0.440266    44A     -0.438356

  @DF-RHF Final Energy:  -496.26055998431951

   => Energetics <=

    Nuclear Repulsion Energy =            706.4594982521349493
    One-Electron Energy =               -2060.2231138895253935
    Two-Electron Energy =                 857.5030556530711010
    Total Energy =                       -496.2605599843194568
  Basis Set: (AUG-CC-PVTZ AUX)
    Blend: AUG-CC-PVTZ-RI
    Molecular point group: c1

    Geometry (in Angstrom), charge = 1, multiplicity = 1:

       Center              X                  Y                   Z               Mass
    ------------   -----------------  -----------------  -----------------  -----------------
         N           -3.384558323409     0.202324231424     0.001202520293    14.003074004430
         N           -0.605788323409    -0.286776768576     0.001252520293    14.003074004430
         C           -2.664133223409    -0.251540668576    -1.272750379707    12.000000000000
         C           -2.673539323409    -0.245382768576     1.258613520293    12.000000000000
         C           -1.238635323409     0.245898231424    -1.199163479707    12.000000000000
         C           -1.238640323409     0.246127231424     1.201561520293    12.000000000000
         C            0.831916676591    -0.118318768576     0.001234520293    12.000000000000
         C            1.421726676591     1.151386231424     0.001127520293    12.000000000000
         C            1.621858676591    -1.269738768576     0.001335520293    12.000000000000
         C            2.813333676591     1.262117231424     0.001113520293    12.000000000000
         C            3.012601676591    -1.151087768576     0.001320520293    12.000000000000
         C            3.608061676591     0.112898231424     0.001213520293    12.000000000000
         H           -3.441486323409     1.230850231424     0.001108520293     1.007825032230
         H           -4.355035323409    -0.139884768576     0.001232520293     1.007825032230
         H           -3.227569323409     0.155916231424    -2.108376479707     1.007825032230
         H           -2.710840323409    -1.336351768576    -1.263683479707     1.007825032230
         H           -2.710839323409    -1.336115768576     1.266374520293     1.007825032230
         H           -3.227575323409     0.156307231424     2.110790520293     1.007825032230
         H           -0.708376323409    -0.131612768576    -2.078084479707     1.007825032230
         H           -1.217456323409     1.351568231424    -1.251583479707     1.007825032230
         H           -1.217469323409     1.351808231424     1.253770520293     1.007825032230
         H           -0.708380323409    -0.131207768576     2.080558520293     1.007825032230
         H            0.809246676591     2.051610231424     0.001049520293     1.007825032230
         H            1.137334676591    -2.242771768576     0.001417520293     1.007825032230
         H            3.277187676591     2.245002231424     0.001030520293     1.007825032230
         H            3.630982676591    -2.044700768576     0.001400520293     1.007825032230
         H            4.690874676591     0.203051231424     0.001198520293     1.007825032230

  Basis Set: AUG-CC-PVTZ
    Blend: AUG-CC-PVTZ
  Basis Set: (AUG-CC-PVTZ AUX)
    Blend: AUG-CC-PVTZ-JKFIT
	 Reference Energy          =    -496.2605599843195137 [Eh]
	 Singles Energy            =      -0.0000000000000000 [Eh]
	 Same-Spin Energy          =      -0.5393673093691356 [Eh]
	 Opposite-Spin Energy      =      -1.7584470708654762 [Eh]
	 Correlation Energy        =      -2.2978143802346116 [Eh]
	 Total Energy              =    -498.5583743645541404 [Eh]

	 ================> DF-SCS-MP2 Energies <==================
	-----------------------------------------------------------
	 SCS Same-Spin Scale       =       0.3333333333333333 [-]
	 SCS Opposite-Spin Scale   =       1.2000000000000000 [-]
	 SCS Same-Spin Energy      =      -0.1797891031230452 [Eh]
	 SCS Opposite-Spin Energy  =      -2.1101364850385713 [Eh]
	 SCS Correlation Energy    =      -2.2899255881616165 [Eh]
	 SCS Total Energy          =    -498.5504855724811364 [Eh]
	-----------------------------------------------------------

  Dipole Moment: [D]
     X:   -11.4594      Y:     1.0823      Z:    -0.0377     Total:    11.5105

*** Psi4 exiting successfully. Buy a developer a beer!
