                               Psi4 1.3.2 release

  ==> Input File <==

--------------------------------------------------------------------------
#psi4
#
memory 32 gb

molecule  {
1 1
  N       -3.3283680     0.1942120    -0.0000200
  N       -0.5241134    -0.4442473     0.0000423
  C       -2.6173460    -0.2537290    -1.2573450
  C       -2.6173490    -0.2534950     1.2573910
  C       -1.1824450     0.2377860    -1.2003860
  C       -1.1824500     0.2380150     1.2003390
  C        0.8881070    -0.1264310     0.0000120
  C        1.4779170     1.1432740    -0.0000950
  C        1.6780490    -1.2778510     0.0001130
  C        2.8695240     1.2540050    -0.0001090
  C        3.0687920    -1.1592000     0.0000980
  C        3.6642520     0.1047860    -0.0000090
  H       -3.3852960     1.2227380    -0.0001140
  H       -4.2988450    -0.1479970     0.0000100
  H       -3.1713790     0.1478040    -2.1095990
  H       -2.6546500    -1.3444640    -1.2649060
  H       -2.6546490    -1.3442280     1.2651520
  H       -3.1713850     0.1481950     2.1095680
  H       -0.6521860    -0.1397250    -2.0793070
  H       -1.1612660     1.3434560    -1.2528060
  H       -1.1612790     1.3436960     1.2525480
  H       -0.6521900    -0.1393200     2.0793360
  H        0.8654370     2.0434980    -0.0001730
  H        1.1935250    -2.2508840     0.0001950
  H        3.3333780     2.2368900    -0.0001920
  H        3.6871730    -2.0528130     0.0001780
  H        4.7470650     0.1949390    -0.0000240
units angstrom
no_reorient  #important for SAPT in psi4, default
symmetry c1  #important for SAPT in psi4, default
}

set PROPERTIES_ORIGIN ["COM"]
properties('MP2/aug-cc-pvtz', properties = ['dipole'])
--------------------------------------------------------------------------

    Molecular point group: c1
  Charge       = 1
  Multiplicity = 1
  Basis Set: AUG-CC-PVTZ
    Blend: AUG-CC-PVTZ
  Basis Set: (AUG-CC-PVTZ AUX)
    Blend: AUG-CC-PVTZ-JKFIT

    Orbital Energies [Eh]
    ---------------------

    Doubly Occupied:

       1A    -15.866927     2A    -15.721991     3A    -11.457354
       4A    -11.457343     5A    -11.420400     6A    -11.420389
       7A    -11.377915     8A    -11.346320     9A    -11.339788
      10A    -11.335461    11A    -11.334231    12A    -11.332228
      13A     -1.496747    14A     -1.373982    15A     -1.246945
      16A     -1.219110    17A     -1.156647    18A     -1.118875
      19A     -1.082589    20A     -1.043933    21A     -1.001672
      22A     -0.940315    23A     -0.926183    24A     -0.918606
      25A     -0.872211    26A     -0.824932    27A     -0.816446
      28A     -0.782722    29A     -0.776542    30A     -0.763246
      31A     -0.738544    32A     -0.734832    33A     -0.716379
      34A     -0.705365    35A     -0.690840    36A     -0.687800
      37A     -0.657703    38A     -0.642710    39A     -0.608025
      40A     -0.598431    41A     -0.595863    42A     -0.544753
      43A     -0.439769    44A     -0.435152

  @DF-RHF Final Energy:  -496.24361076768218

   => Energetics <=

    Nuclear Repulsion Energy =            704.7129502073477170
    One-Electron Energy =               -2056.7766884087773178
    Two-Electron Energy =                 855.8201274337475297
    Total Energy =                       -496.2436107676821848
  Basis Set: (AUG-CC-PVTZ AUX)
    Blend: AUG-CC-PVTZ-RI
    Molecular point group: c1

    Geometry (in Angstrom), charge = 1, multiplicity = 1:

       Center              X                  Y                   Z               Mass
    ------------   -----------------  -----------------  -----------------  -----------------
         N           -3.386054278955     0.214709867075    -0.000021748491    14.003074004430
         N           -0.581799678955    -0.423749432925     0.000040551509    14.003074004430
         C           -2.675032278955    -0.233231132925    -1.257346748491    12.000000000000
         C           -2.675035278955    -0.232997132925     1.257389251509    12.000000000000
         C           -1.240131278955     0.258283867075    -1.200387748491    12.000000000000
         C           -1.240136278955     0.258512867075     1.200337251509    12.000000000000
         C            0.830420721045    -0.105933132925     0.000010251509    12.000000000000
         C            1.420230721045     1.163771867075    -0.000096748491    12.000000000000
         C            1.620362721045    -1.257353132925     0.000111251509    12.000000000000
         C            2.811837721045     1.274502867075    -0.000110748491    12.000000000000
         C            3.011105721045    -1.138702132925     0.000096251509    12.000000000000
         C            3.606565721045     0.125283867075    -0.000010748491    12.000000000000
         H           -3.442982278955     1.243235867075    -0.000115748491     1.007825032230
         H           -4.356531278955    -0.127499132925     0.000008251509     1.007825032230
         H           -3.229065278955     0.168301867075    -2.109600748491     1.007825032230
         H           -2.712336278955    -1.323966132925    -1.264907748491     1.007825032230
         H           -2.712335278955    -1.323730132925     1.265150251509     1.007825032230
         H           -3.229071278955     0.168692867075     2.109566251509     1.007825032230
         H           -0.709872278955    -0.119227132925    -2.079308748491     1.007825032230
         H           -1.218952278955     1.363953867075    -1.252807748491     1.007825032230
         H           -1.218965278955     1.364193867075     1.252546251509     1.007825032230
         H           -0.709876278955    -0.118822132925     2.079334251509     1.007825032230
         H            0.807750721045     2.063995867075    -0.000174748491     1.007825032230
         H            1.135838721045    -2.230386132925     0.000193251509     1.007825032230
         H            3.275691721045     2.257387867075    -0.000193748491     1.007825032230
         H            3.629486721045    -2.032315132925     0.000176251509     1.007825032230
         H            4.689378721045     0.215436867075    -0.000025748491     1.007825032230

  Basis Set: AUG-CC-PVTZ
    Blend: AUG-CC-PVTZ
  Basis Set: (AUG-CC-PVTZ AUX)
    Blend: AUG-CC-PVTZ-JKFIT
	 Reference Energy          =    -496.2436107676821848 [Eh]
	 Singles Energy            =      -0.0000000000000000 [Eh]
	 Same-Spin Energy          =      -0.5405307642874663 [Eh]
	 Opposite-Spin Energy      =      -1.7625398086020809 [Eh]
	 Correlation Energy        =      -2.3030705728895473 [Eh]
	 Total Energy              =    -498.5466813405717517 [Eh]

	 ================> DF-SCS-MP2 Energies <==================
	-----------------------------------------------------------
	 SCS Same-Spin Scale       =       0.3333333333333333 [-]
	 SCS Opposite-Spin Scale   =       1.2000000000000000 [-]
	 SCS Same-Spin Energy      =      -0.1801769214291554 [Eh]
	 SCS Opposite-Spin Energy  =      -2.1150477703224970 [Eh]
	 SCS Correlation Energy    =      -2.2952246917516526 [Eh]
	 SCS Total Energy          =    -498.5388354594338125 [Eh]
	-----------------------------------------------------------

  Dipole Moment: [D]
     X:   -11.6171      Y:     1.4508      Z:    -0.0001     Total:    11.7074

*** Psi4 exiting successfully. Buy a developer a beer!
