                               Psi4 1.3.2 release

  ==> Input File <==

--------------------------------------------------------------------------
#psi4
#
memory 32 gb

molecule  {
1 1
  N       -3.3283680     0.1942120    -0.0000200
  N       -0.5495980    -0.2948890     0.0000300
  C       -2.6173460    -0.2537290    -1.2573450
  C       -2.6173490    -0.2534950     1.2573910
  C       -1.1390345     0.2012468    -1.1180427
  C       -1.1824500     0.2380150     1.2003390
  C        0.8881070    -0.1264310     0.0000120
  C        1.4779170     1.1432740    -0.0000950
  C        1.6780490    -1.2778510     0.0001130
  C        2.8695240     1.2540050    -0.0001090
  C        3.0687920    -1.1592000     0.0000980
  C        3.6642520     0.1047860    -0.0000090
  H       -3.3852960     1.2227380    -0.0001140
  H       -4.2988450    -0.1479970     0.0000100
  H       -3.1713790     0.1478040    -2.1095990
  H       -2.6546500    -1.3444640    -1.2649060
  H       -2.6546490    -1.3442280     1.2651520
  H       -3.1713850     0.1481950     2.1095680
  H       -0.6521860    -0.1397250    -2.0793070
  H       -1.1612660     1.3434560    -1.2528060
  H       -1.1612790     1.3436960     1.2525480
  H       -0.6521900    -0.1393200     2.0793360
  H        0.8654370     2.0434980    -0.0001730
  H        1.1935250    -2.2508840     0.0001950
  H        3.3333780     2.2368900    -0.0001920
  H        3.6871730    -2.0528130     0.0001780
  H        4.7470650     0.1949390    -0.0000240
units angstrom
no_reorient  #important for SAPT in psi4, default
symmetry c1  #important for SAPT in psi4, default
}

set PROPERTIES_ORIGIN ["COM"]
properties('MP2/aug-cc-pvtz', properties = ['dipole'])
--------------------------------------------------------------------------

    Molecular point group: c1
  Charge       = 1
  Multiplicity = 1
  Basis Set: AUG-CC-PVTZ
    Blend: AUG-CC-PVTZ
  Basis Set: (AUG-CC-PVTZ AUX)
    Blend: AUG-CC-PVTZ-JKFIT

    Orbital Energies [Eh]
    ---------------------

    Doubly Occupied:

       1A    -15.864441     2A    -15.706059     3A    -11.457706
       4A    -11.455058     5A    -11.420242     6A    -11.420055
       7A    -11.381894     8A    -11.346236     9A    -11.340896
      10A    -11.340350    11A    -11.338019    12A    -11.335196
      13A     -1.497537    14A     -1.414388    15A     -1.252683
      16A     -1.218476    17A     -1.153240    18A     -1.121154
      19A     -1.091090    20A     -1.056612    21A     -0.994011
      22A     -0.939779    23A     -0.929238    24A     -0.923145
      25A     -0.869752    26A     -0.823599    27A     -0.819792
      28A     -0.800900    29A     -0.793675    30A     -0.772621
      31A     -0.739101    32A     -0.733908    33A     -0.717996
      34A     -0.705692    35A     -0.690413    36A     -0.685773
      37A     -0.663846    38A     -0.646540    39A     -0.608122
      40A     -0.604465    41A     -0.602522    42A     -0.519783
      43A     -0.441657    44A     -0.440686

  @DF-RHF Final Energy:  -496.24974917760017

   => Energetics <=

    Nuclear Repulsion Energy =            708.4691762810826958
    One-Electron Energy =               -2064.0811540406321001
    Two-Electron Energy =                 859.3622285819493527
    Total Energy =                       -496.2497491776001652
  Basis Set: (AUG-CC-PVTZ AUX)
    Blend: AUG-CC-PVTZ-RI
    Molecular point group: c1

    Geometry (in Angstrom), charge = 1, multiplicity = 1:

       Center              X                  Y                   Z               Mass
    ------------   -----------------  -----------------  -----------------  -----------------
         N           -3.387060039846     0.204576411809    -0.006078185607    14.003074004430
         N           -0.608290039846    -0.284524588191    -0.006028185607    14.003074004430
         C           -2.676038039846    -0.243364588191    -1.263403185607    12.000000000000
         C           -2.676041039846    -0.243130588191     1.251332814393    12.000000000000
         C           -1.197726539846     0.211611211809    -1.124100885607    12.000000000000
         C           -1.241142039846     0.248379411809     1.194280814393    12.000000000000
         C            0.829414960154    -0.116066588191    -0.006046185607    12.000000000000
         C            1.419224960154     1.153638411809    -0.006153185607    12.000000000000
         C            1.619356960154    -1.267486588191    -0.005945185607    12.000000000000
         C            2.810831960154     1.264369411809    -0.006167185607    12.000000000000
         C            3.010099960154    -1.148835588191    -0.005960185607    12.000000000000
         C            3.605559960154     0.115150411809    -0.006067185607    12.000000000000
         H           -3.443988039846     1.233102411809    -0.006172185607     1.007825032230
         H           -4.357537039846    -0.137632588191    -0.006048185607     1.007825032230
         H           -3.230071039846     0.158168411809    -2.115657185607     1.007825032230
         H           -2.713342039846    -1.334099588191    -1.270964185607     1.007825032230
         H           -2.713341039846    -1.333863588191     1.259093814393     1.007825032230
         H           -3.230077039846     0.158559411809     2.103509814393     1.007825032230
         H           -0.710878039846    -0.129360588191    -2.085365185607     1.007825032230
         H           -1.219958039846     1.353820411809    -1.258864185607     1.007825032230
         H           -1.219971039846     1.354060411809     1.246489814393     1.007825032230
         H           -0.710882039846    -0.128955588191     2.073277814393     1.007825032230
         H            0.806744960154     2.053862411809    -0.006231185607     1.007825032230
         H            1.134832960154    -2.240519588191    -0.005863185607     1.007825032230
         H            3.274685960154     2.247254411809    -0.006250185607     1.007825032230
         H            3.628480960154    -2.042448588191    -0.005880185607     1.007825032230
         H            4.688372960154     0.205303411809    -0.006082185607     1.007825032230

  Basis Set: AUG-CC-PVTZ
    Blend: AUG-CC-PVTZ
  Basis Set: (AUG-CC-PVTZ AUX)
    Blend: AUG-CC-PVTZ-JKFIT
	 Reference Energy          =    -496.2497491776001652 [Eh]
	 Singles Energy            =      -0.0000000000000000 [Eh]
	 Same-Spin Energy          =      -0.5404356148985168 [Eh]
	 Opposite-Spin Energy      =      -1.7592029391563768 [Eh]
	 Correlation Energy        =      -2.2996385540548934 [Eh]
	 Total Energy              =    -498.5493877316550311 [Eh]

	 ================> DF-SCS-MP2 Energies <==================
	-----------------------------------------------------------
	 SCS Same-Spin Scale       =       0.3333333333333333 [-]
	 SCS Opposite-Spin Scale   =       1.2000000000000000 [-]
	 SCS Same-Spin Energy      =      -0.1801452049661723 [Eh]
	 SCS Opposite-Spin Energy  =      -2.1110435269876522 [Eh]
	 SCS Correlation Energy    =      -2.2911887319538247 [Eh]
	 SCS Total Energy          =    -498.5409379095539748 [Eh]
	-----------------------------------------------------------

  Dipole Moment: [D]
     X:   -11.2981      Y:     0.9832      Z:     0.1659     Total:    11.3420

*** Psi4 exiting successfully. Buy a developer a beer!
