                               Psi4 1.3.2 release

  ==> Input File <==

--------------------------------------------------------------------------
#psi4
#
memory 32 gb

molecule  {
1 1
  N       -3.3283680     0.1942120    -0.0000200
  N       -0.5495980    -0.2948890     0.0000300
  C       -2.5448622    -0.2993760    -1.1956617
  C       -2.6173490    -0.2534950     1.2573910
  C       -1.1824450     0.2377860    -1.2003860
  C       -1.1824500     0.2380150     1.2003390
  C        0.8881070    -0.1264310     0.0000120
  C        1.4779170     1.1432740    -0.0000950
  C        1.6780490    -1.2778510     0.0001130
  C        2.8695240     1.2540050    -0.0001090
  C        3.0687920    -1.1592000     0.0000980
  C        3.6642520     0.1047860    -0.0000090
  H       -3.3852960     1.2227380    -0.0001140
  H       -4.2988450    -0.1479970     0.0000100
  H       -3.1713790     0.1478040    -2.1095990
  H       -2.6546500    -1.3444640    -1.2649060
  H       -2.6546490    -1.3442280     1.2651520
  H       -3.1713850     0.1481950     2.1095680
  H       -0.6521860    -0.1397250    -2.0793070
  H       -1.1612660     1.3434560    -1.2528060
  H       -1.1612790     1.3436960     1.2525480
  H       -0.6521900    -0.1393200     2.0793360
  H        0.8654370     2.0434980    -0.0001730
  H        1.1935250    -2.2508840     0.0001950
  H        3.3333780     2.2368900    -0.0001920
  H        3.6871730    -2.0528130     0.0001780
  H        4.7470650     0.1949390    -0.0000240
units angstrom
no_reorient  #important for SAPT in psi4, default
symmetry c1  #important for SAPT in psi4, default
}

set PROPERTIES_ORIGIN ["COM"]
properties('MP2/aug-cc-pvtz', properties = ['dipole'])
--------------------------------------------------------------------------

    Molecular point group: c1
  Charge       = 1
  Multiplicity = 1
  Basis Set: AUG-CC-PVTZ
    Blend: AUG-CC-PVTZ
  Basis Set: (AUG-CC-PVTZ AUX)
    Blend: AUG-CC-PVTZ-JKFIT

    Orbital Energies [Eh]
    ---------------------

    Doubly Occupied:

       1A    -15.867312     2A    -15.704136     3A    -11.460367
       4A    -11.455932     5A    -11.417979     6A    -11.415552
       7A    -11.378895     8A    -11.344371     9A    -11.339212
      10A    -11.338789    11A    -11.336724    12A    -11.333548
      13A     -1.499582    14A     -1.392386    15A     -1.250836
      16A     -1.224748    17A     -1.158577    18A     -1.119624
      19A     -1.087203    20A     -1.050732    21A     -1.001440
      22A     -0.939606    23A     -0.929578    24A     -0.922309
      25A     -0.866271    26A     -0.829894    27A     -0.821046
      28A     -0.790971    29A     -0.783348    30A     -0.771157
      31A     -0.745613    32A     -0.728735    33A     -0.719081
      34A     -0.706509    35A     -0.690552    36A     -0.688707
      37A     -0.662228    38A     -0.651027    39A     -0.607219
      40A     -0.602084    41A     -0.600489    42A     -0.521943
      43A     -0.440407    44A     -0.438125

  @DF-RHF Final Energy:  -496.24756839867405

   => Energetics <=

    Nuclear Repulsion Energy =            708.2338551926934542
    One-Electron Energy =               -2063.6931579004894957
    Two-Electron Energy =                 859.2117343091219936
    Total Energy =                       -496.2475683986740478
  Basis Set: (AUG-CC-PVTZ AUX)
    Blend: AUG-CC-PVTZ-RI
    Molecular point group: c1

    Geometry (in Angstrom), charge = 1, multiplicity = 1:

       Center              X                  Y                   Z               Mass
    ------------   -----------------  -----------------  -----------------  -----------------
         N           -3.389198784722     0.205246416954    -0.004558355758    14.003074004430
         N           -0.610428784722    -0.283854583046    -0.004508355758    14.003074004430
         C           -2.605692984722    -0.288341583046    -1.200200055758    12.000000000000
         C           -2.678179784722    -0.242460583046     1.252852644242    12.000000000000
         C           -1.243275784722     0.248820416954    -1.204924355758    12.000000000000
         C           -1.243280784722     0.249049416954     1.195800644242    12.000000000000
         C            0.827276215278    -0.115396583046    -0.004526355758    12.000000000000
         C            1.417086215278     1.154308416954    -0.004633355758    12.000000000000
         C            1.617218215278    -1.266816583046    -0.004425355758    12.000000000000
         C            2.808693215278     1.265039416954    -0.004647355758    12.000000000000
         C            3.007961215278    -1.148165583046    -0.004440355758    12.000000000000
         C            3.603421215278     0.115820416954    -0.004547355758    12.000000000000
         H           -3.446126784722     1.233772416954    -0.004652355758     1.007825032230
         H           -4.359675784722    -0.136962583046    -0.004528355758     1.007825032230
         H           -3.232209784722     0.158838416954    -2.114137355758     1.007825032230
         H           -2.715480784722    -1.333429583046    -1.269444355758     1.007825032230
         H           -2.715479784722    -1.333193583046     1.260613644242     1.007825032230
         H           -3.232215784722     0.159229416954     2.105029644242     1.007825032230
         H           -0.713016784722    -0.128690583046    -2.083845355758     1.007825032230
         H           -1.222096784722     1.354490416954    -1.257344355758     1.007825032230
         H           -1.222109784722     1.354730416954     1.248009644242     1.007825032230
         H           -0.713020784722    -0.128285583046     2.074797644242     1.007825032230
         H            0.804606215278     2.054532416954    -0.004711355758     1.007825032230
         H            1.132694215278    -2.239849583046    -0.004343355758     1.007825032230
         H            3.272547215278     2.247924416954    -0.004730355758     1.007825032230
         H            3.626342215278    -2.041778583046    -0.004360355758     1.007825032230
         H            4.686234215278     0.205973416954    -0.004562355758     1.007825032230

  Basis Set: AUG-CC-PVTZ
    Blend: AUG-CC-PVTZ
  Basis Set: (AUG-CC-PVTZ AUX)
    Blend: AUG-CC-PVTZ-JKFIT
	 Reference Energy          =    -496.2475683986740478 [Eh]
	 Singles Energy            =      -0.0000000000000000 [Eh]
	 Same-Spin Energy          =      -0.5402812001769763 [Eh]
	 Opposite-Spin Energy      =      -1.7596780058197097 [Eh]
	 Correlation Energy        =      -2.2999592059966858 [Eh]
	 Total Energy              =    -498.5475276046707336 [Eh]

	 ================> DF-SCS-MP2 Energies <==================
	-----------------------------------------------------------
	 SCS Same-Spin Scale       =       0.3333333333333333 [-]
	 SCS Opposite-Spin Scale   =       1.2000000000000000 [-]
	 SCS Same-Spin Energy      =      -0.1800937333923254 [Eh]
	 SCS Opposite-Spin Energy  =      -2.1116136069836515 [Eh]
	 SCS Correlation Energy    =      -2.2917073403759769 [Eh]
	 SCS Total Energy          =    -498.5392757390500265 [Eh]
	-----------------------------------------------------------

  Dipole Moment: [D]
     X:   -11.4517      Y:     1.0705      Z:     0.0237     Total:    11.5016

*** Psi4 exiting successfully. Buy a developer a beer!
