                               Psi4 1.3.2 release

  ==> Input File <==

--------------------------------------------------------------------------
#psi4
#
memory 32 gb

molecule  {
1 1
  N       -3.3283680     0.1942120    -0.0000200
  N       -0.5495980    -0.2948890     0.0000300
  C       -2.5988862    -0.2653542    -1.2424872
  C       -2.6173490    -0.2534950     1.2573910
  C       -1.1824450     0.2377860    -1.2003860
  C       -1.1824500     0.2380150     1.2003390
  C        0.8881070    -0.1264310     0.0000120
  C        1.4779170     1.1432740    -0.0000950
  C        1.6780490    -1.2778510     0.0001130
  C        2.8695240     1.2540050    -0.0001090
  C        3.0687920    -1.1592000     0.0000980
  C        3.6642520     0.1047860    -0.0000090
  H       -3.3852960     1.2227380    -0.0001140
  H       -4.2988450    -0.1479970     0.0000100
  H       -3.1713790     0.1478040    -2.1095990
  H       -2.6546500    -1.3444640    -1.2649060
  H       -2.6546490    -1.3442280     1.2651520
  H       -3.1713850     0.1481950     2.1095680
  H       -0.6521860    -0.1397250    -2.0793070
  H       -1.1612660     1.3434560    -1.2528060
  H       -1.1612790     1.3436960     1.2525480
  H       -0.6521900    -0.1393200     2.0793360
  H        0.8654370     2.0434980    -0.0001730
  H        1.1935250    -2.2508840     0.0001950
  H        3.3333780     2.2368900    -0.0001920
  H        3.6871730    -2.0528130     0.0001780
  H        4.7470650     0.1949390    -0.0000240
units angstrom
no_reorient  #important for SAPT in psi4, default
symmetry c1  #important for SAPT in psi4, default
}

set PROPERTIES_ORIGIN ["COM"]
properties('MP2/aug-cc-pvtz', properties = ['dipole'])
--------------------------------------------------------------------------

    Molecular point group: c1
  Charge       = 1
  Multiplicity = 1
  Basis Set: AUG-CC-PVTZ
    Blend: AUG-CC-PVTZ
  Basis Set: (AUG-CC-PVTZ AUX)
    Blend: AUG-CC-PVTZ-JKFIT

    Orbital Energies [Eh]
    ---------------------

    Doubly Occupied:

       1A    -15.866759     2A    -15.704690     3A    -11.457484
       4A    -11.456515     5A    -11.417478     6A    -11.416810
       7A    -11.379048     8A    -11.344272     9A    -11.338994
      10A    -11.338751    11A    -11.336559    12A    -11.333521
      13A     -1.498005    14A     -1.390532    15A     -1.249890
      16A     -1.222330    17A     -1.155637    18A     -1.119464
      19A     -1.086677    20A     -1.052413    21A     -0.998150
      22A     -0.938903    23A     -0.927666    24A     -0.923026
      25A     -0.868168    26A     -0.825228    27A     -0.818880
      28A     -0.791938    29A     -0.786874    30A     -0.769432
      31A     -0.739418    32A     -0.732953    33A     -0.718058
      34A     -0.706569    35A     -0.689421    36A     -0.688625
      37A     -0.660844    38A     -0.658947    39A     -0.607216
      40A     -0.601966    41A     -0.601500    42A     -0.520849
      43A     -0.440206    44A     -0.438193

  @DF-RHF Final Energy:  -496.25983596368189

   => Energetics <=

    Nuclear Repulsion Energy =            707.0448094604969356
    One-Electron Energy =               -2061.3715660392099380
    Two-Electron Energy =                 858.0669206150311084
    Total Energy =                       -496.2598359636818941
  Basis Set: (AUG-CC-PVTZ AUX)
    Blend: AUG-CC-PVTZ-RI
    Molecular point group: c1

    Geometry (in Angstrom), charge = 1, multiplicity = 1:

       Center              X                  Y                   Z               Mass
    ------------   -----------------  -----------------  -----------------  -----------------
         N           -3.385224569439     0.202743641197    -0.001113690097    14.003074004430
         N           -0.606454569439    -0.286357358803    -0.001063690097    14.003074004430
         C           -2.655742769439    -0.256822558803    -1.243580890097    12.000000000000
         C           -2.674205569439    -0.244963358803     1.256297309903    12.000000000000
         C           -1.239301569439     0.246317641197    -1.201479690097    12.000000000000
         C           -1.239306569439     0.246546641197     1.199245309903    12.000000000000
         C            0.831250430561    -0.117899358803    -0.001081690097    12.000000000000
         C            1.421060430561     1.151805641197    -0.001188690097    12.000000000000
         C            1.621192430561    -1.269319358803    -0.000980690097    12.000000000000
         C            2.812667430561     1.262536641197    -0.001202690097    12.000000000000
         C            3.011935430561    -1.150668358803    -0.000995690097    12.000000000000
         C            3.607395430561     0.113317641197    -0.001102690097    12.000000000000
         H           -3.442152569439     1.231269641197    -0.001207690097     1.007825032230
         H           -4.355701569439    -0.139465358803    -0.001083690097     1.007825032230
         H           -3.228235569439     0.156335641197    -2.110692690097     1.007825032230
         H           -2.711506569439    -1.335932358803    -1.265999690097     1.007825032230
         H           -2.711505569439    -1.335696358803     1.264058309903     1.007825032230
         H           -3.228241569439     0.156726641197     2.108474309903     1.007825032230
         H           -0.709042569439    -0.131193358803    -2.080400690097     1.007825032230
         H           -1.218122569439     1.351987641197    -1.253899690097     1.007825032230
         H           -1.218135569439     1.352227641197     1.251454309903     1.007825032230
         H           -0.709046569439    -0.130788358803     2.078242309903     1.007825032230
         H            0.808580430561     2.052029641197    -0.001266690097     1.007825032230
         H            1.136668430561    -2.242352358803    -0.000898690097     1.007825032230
         H            3.276521430561     2.245421641197    -0.001285690097     1.007825032230
         H            3.630316430561    -2.044281358803    -0.000915690097     1.007825032230
         H            4.690208430561     0.203470641197    -0.001117690097     1.007825032230

  Basis Set: AUG-CC-PVTZ
    Blend: AUG-CC-PVTZ
  Basis Set: (AUG-CC-PVTZ AUX)
    Blend: AUG-CC-PVTZ-JKFIT
	 Reference Energy          =    -496.2598359636818941 [Eh]
	 Singles Energy            =      -0.0000000000000000 [Eh]
	 Same-Spin Energy          =      -0.5395929580721710 [Eh]
	 Opposite-Spin Energy      =      -1.7585761502009820 [Eh]
	 Correlation Energy        =      -2.2981691082731528 [Eh]
	 Total Energy              =    -498.5580050719550513 [Eh]

	 ================> DF-SCS-MP2 Energies <==================
	-----------------------------------------------------------
	 SCS Same-Spin Scale       =       0.3333333333333333 [-]
	 SCS Opposite-Spin Scale   =       1.2000000000000000 [-]
	 SCS Same-Spin Energy      =      -0.1798643193573903 [Eh]
	 SCS Opposite-Spin Energy  =      -2.1102913802411782 [Eh]
	 SCS Correlation Energy    =      -2.2901556995985688 [Eh]
	 SCS Total Energy          =    -498.5499916632804798 [Eh]
	-----------------------------------------------------------

  Dipole Moment: [D]
     X:   -11.4802      Y:     1.0847      Z:     0.0002     Total:    11.5313

*** Psi4 exiting successfully. Buy a developer a beer!
