                               Psi4 1.3.2 release

  ==> Input File <==

--------------------------------------------------------------------------
#psi4
#
memory 32 gb

molecule  {
1 1
  N       -3.3283680     0.1942120    -0.0000200
  N       -0.5495980    -0.2948890     0.0000300
  C       -2.6173460    -0.2537290    -1.2573450
  C       -2.6173490    -0.2534950     1.2573910
  C       -1.0956239     0.1647077    -1.0356994
  C       -1.1824500     0.2380150     1.2003390
  C        0.8881070    -0.1264310     0.0000120
  C        1.4779170     1.1432740    -0.0000950
  C        1.6780490    -1.2778510     0.0001130
  C        2.8695240     1.2540050    -0.0001090
  C        3.0687920    -1.1592000     0.0000980
  C        3.6642520     0.1047860    -0.0000090
  H       -3.3852960     1.2227380    -0.0001140
  H       -4.2988450    -0.1479970     0.0000100
  H       -3.1713790     0.1478040    -2.1095990
  H       -2.6546500    -1.3444640    -1.2649060
  H       -2.6546490    -1.3442280     1.2651520
  H       -3.1713850     0.1481950     2.1095680
  H       -0.6521860    -0.1397250    -2.0793070
  H       -1.1612660     1.3434560    -1.2528060
  H       -1.1612790     1.3436960     1.2525480
  H       -0.6521900    -0.1393200     2.0793360
  H        0.8654370     2.0434980    -0.0001730
  H        1.1935250    -2.2508840     0.0001950
  H        3.3333780     2.2368900    -0.0001920
  H        3.6871730    -2.0528130     0.0001780
  H        4.7470650     0.1949390    -0.0000240
units angstrom
no_reorient  #important for SAPT in psi4, default
symmetry c1  #important for SAPT in psi4, default
}

set PROPERTIES_ORIGIN ["COM"]
properties('MP2/aug-cc-pvtz', properties = ['dipole'])
--------------------------------------------------------------------------

    Molecular point group: c1
  Charge       = 1
  Multiplicity = 1
  Basis Set: AUG-CC-PVTZ
    Blend: AUG-CC-PVTZ
  Basis Set: (AUG-CC-PVTZ AUX)
    Blend: AUG-CC-PVTZ-JKFIT

    Orbital Energies [Eh]
    ---------------------

    Doubly Occupied:

       1A    -15.861997     2A    -15.707606     3A    -11.459016
       4A    -11.452731     5A    -11.424960     6A    -11.423937
       7A    -11.385872     8A    -11.348842     9A    -11.343806
      10A    -11.342230    11A    -11.340018    12A    -11.337366
      13A     -1.500299    14A     -1.445243    15A     -1.256543
      16A     -1.217328    17A     -1.151810    18A     -1.123450
      19A     -1.097471    20A     -1.060745    21A     -0.990544
      22A     -0.941901    23A     -0.935355    24A     -0.918616
      25A     -0.870340    26A     -0.831802    27A     -0.819736
      28A     -0.809123    29A     -0.799479    30A     -0.776972
      31A     -0.740142    32A     -0.733668    33A     -0.720030
      34A     -0.707345    35A     -0.692919    36A     -0.690682
      37A     -0.660640    38A     -0.632864    39A     -0.608055
      40A     -0.606508    41A     -0.598963    42A     -0.513448
      43A     -0.443915    44A     -0.443207

  @DF-RHF Final Energy:  -496.21107431842279

   => Energetics <=

    Nuclear Repulsion Energy =            710.4321118624907285
    One-Electron Energy =               -2067.7513196048857935
    Two-Electron Energy =                 861.1081334239722764
    Total Energy =                       -496.2110743184227886
  Basis Set: (AUG-CC-PVTZ AUX)
    Blend: AUG-CC-PVTZ-RI
    Molecular point group: c1

    Geometry (in Angstrom), charge = 1, multiplicity = 1:

       Center              X                  Y                   Z               Mass
    ------------   -----------------  -----------------  -----------------  -----------------
         N           -3.390253492199     0.207264369932    -0.012135678597    14.003074004430
         N           -0.611483492199    -0.281836630068    -0.012085678597    14.003074004430
         C           -2.679231492199    -0.240676630068    -1.269460678597    12.000000000000
         C           -2.679234492199    -0.240442630068     1.245275321403    12.000000000000
         C           -1.157509392199     0.177760069932    -1.047815078597    12.000000000000
         C           -1.244335492199     0.251067369932     1.188223321403    12.000000000000
         C            0.826221507801    -0.113378630068    -0.012103678597    12.000000000000
         C            1.416031507801     1.156326369932    -0.012210678597    12.000000000000
         C            1.616163507801    -1.264798630068    -0.012002678597    12.000000000000
         C            2.807638507801     1.267057369932    -0.012224678597    12.000000000000
         C            3.006906507801    -1.146147630068    -0.012017678597    12.000000000000
         C            3.602366507801     0.117838369932    -0.012124678597    12.000000000000
         H           -3.447181492199     1.235790369932    -0.012229678597     1.007825032230
         H           -4.360730492199    -0.134944630068    -0.012105678597     1.007825032230
         H           -3.233264492199     0.160856369932    -2.121714678597     1.007825032230
         H           -2.716535492199    -1.331411630068    -1.277021678597     1.007825032230
         H           -2.716534492199    -1.331175630068     1.253036321403     1.007825032230
         H           -3.233270492199     0.161247369932     2.097452321403     1.007825032230
         H           -0.714071492199    -0.126672630068    -2.091422678597     1.007825032230
         H           -1.223151492199     1.356508369932    -1.264921678597     1.007825032230
         H           -1.223164492199     1.356748369932     1.240432321403     1.007825032230
         H           -0.714075492199    -0.126267630068     2.067220321403     1.007825032230
         H            0.803551507801     2.056550369932    -0.012288678597     1.007825032230
         H            1.131639507801    -2.237831630068    -0.011920678597     1.007825032230
         H            3.271492507801     2.249942369932    -0.012307678597     1.007825032230
         H            3.625287507801    -2.039760630068    -0.011937678597     1.007825032230
         H            4.685179507801     0.207991369932    -0.012139678597     1.007825032230

  Basis Set: AUG-CC-PVTZ
    Blend: AUG-CC-PVTZ
  Basis Set: (AUG-CC-PVTZ AUX)
    Blend: AUG-CC-PVTZ-JKFIT
	 Reference Energy          =    -496.2110743184227886 [Eh]
	 Singles Energy            =      -0.0000000000000000 [Eh]
	 Same-Spin Energy          =      -0.5424314567903566 [Eh]
	 Opposite-Spin Energy      =      -1.7616667528155854 [Eh]
	 Correlation Energy        =      -2.3040982096059421 [Eh]
	 Total Energy              =    -498.5151725280287565 [Eh]

	 ================> DF-SCS-MP2 Energies <==================
	-----------------------------------------------------------
	 SCS Same-Spin Scale       =       0.3333333333333333 [-]
	 SCS Opposite-Spin Scale   =       1.2000000000000000 [-]
	 SCS Same-Spin Energy      =      -0.1808104855967855 [Eh]
	 SCS Opposite-Spin Energy  =      -2.1140001033787024 [Eh]
	 SCS Correlation Energy    =      -2.2948105889754880 [Eh]
	 SCS Total Energy          =    -498.5058849073982969 [Eh]
	-----------------------------------------------------------

  Dipole Moment: [D]
     X:   -11.0390      Y:     0.8311      Z:     0.4142     Total:    11.0780

*** Psi4 exiting successfully. Buy a developer a beer!
