                               Psi4 1.4a3.dev225

  ==> Input File <==

--------------------------------------------------------------------------
#psi4
#
memory 32 gb

molecule  {
1 1
  N       -3.3283680     0.1942120    -0.0000200
  N       -0.5495980    -0.2948890     0.0000300
  C       -2.6173460    -0.2537290    -1.2573450
  C       -2.6173490    -0.2534950     1.2573910
  C       -1.1911271     0.2450938    -1.2168547
  C       -1.1824500     0.2380150     1.2003390
  C        0.8881070    -0.1264310     0.0000120
  C        1.4779170     1.1432740    -0.0000950
  C        1.6780490    -1.2778510     0.0001130
  C        2.8695240     1.2540050    -0.0001090
  C        3.0687920    -1.1592000     0.0000980
  C        3.6642520     0.1047860    -0.0000090
  H       -3.3852960     1.2227380    -0.0001140
  H       -4.2988450    -0.1479970     0.0000100
  H       -3.1713790     0.1478040    -2.1095990
  H       -2.6546500    -1.3444640    -1.2649060
  H       -2.6546490    -1.3442280     1.2651520
  H       -3.1713850     0.1481950     2.1095680
  H       -0.6521860    -0.1397250    -2.0793070
  H       -1.1612660     1.3434560    -1.2528060
  H       -1.1612790     1.3436960     1.2525480
  H       -0.6521900    -0.1393200     2.0793360
  H        0.8654370     2.0434980    -0.0001730
  H        1.1935250    -2.2508840     0.0001950
  H        3.3333780     2.2368900    -0.0001920
  H        3.6871730    -2.0528130     0.0001780
  H        4.7470650     0.1949390    -0.0000240
units angstrom
no_reorient  #important for SAPT in psi4, default
symmetry c1  #important for SAPT in psi4, default
}

set PROPERTIES_ORIGIN ["COM"]
properties('MP2/aug-cc-pvtz', properties = ['dipole'])
--------------------------------------------------------------------------

    Molecular point group: c1
  Charge       = 1
  Multiplicity = 1
  Basis Set: AUG-CC-PVTZ
    Blend: AUG-CC-PVTZ
  Basis Set: (AUG-CC-PVTZ AUX)
    Blend: AUG-CC-PVTZ-JKFIT

    Orbital Energies [Eh]
    ---------------------

    Doubly Occupied:

       1A    -15.867148     2A    -15.704707     3A    -11.457156
       4A    -11.456668     5A    -11.417103     6A    -11.416950
       7A    -11.378694     8A    -11.343941     9A    -11.338716
      10A    -11.338421    11A    -11.336283    12A    -11.333259
      13A     -1.497721    14A     -1.386040    15A     -1.249162
      16A     -1.222452    17A     -1.154907    18A     -1.119154
      19A     -1.085904    20A     -1.052578    21A     -0.997678
      22A     -0.938704    23A     -0.927522    24A     -0.922611
      25A     -0.869720    26A     -0.824312    27A     -0.817380
      28A     -0.792410    29A     -0.786204    30A     -0.768291
      31A     -0.738289    32A     -0.735840    33A     -0.717372
      34A     -0.706089    35A     -0.689471    36A     -0.688366
      37A     -0.662549    38A     -0.658278    39A     -0.606950
      40A     -0.601755    41A     -0.600945    42A     -0.520224
      43A     -0.439923    44A     -0.437768

  @DF-RHF Final Energy:  -496.26054470644090

   => Energetics <=

    Nuclear Repulsion Energy =            706.3034454121616363
    One-Electron Energy =               -2059.9167521877011495
    Two-Electron Energy =                 857.3527620690986168
    Total Energy =                       -496.2605447064408963
  Basis Set: (AUG-CC-PVTZ AUX)
    Blend: AUG-CC-PVTZ-RI
    Molecular point group: c1

    Geometry (in Angstrom), charge = 1, multiplicity = 1:

       Center              X                  Y                   Z               Mass
    ------------   -----------------  -----------------  -----------------  -----------------
         N           -3.383227905849     0.201350856177     0.001190808923    14.003074004430
         N           -0.604457905849    -0.287750143823     0.001240808923    14.003074004430
         C           -2.672205905849    -0.246590143823    -1.256134191077    12.000000000000
         C           -2.672208905849    -0.246356143823     1.258601808923    12.000000000000
         C           -1.245987005849     0.252232656177    -1.215643891077    12.000000000000
         C           -1.237309905849     0.245153856177     1.201549808923    12.000000000000
         C            0.833247094151    -0.119292143823     0.001222808923    12.000000000000
         C            1.423057094151     1.150412856177     0.001115808923    12.000000000000
         C            1.623189094151    -1.270712143823     0.001323808923    12.000000000000
         C            2.814664094151     1.261143856177     0.001101808923    12.000000000000
         C            3.013932094151    -1.152061143823     0.001308808923    12.000000000000
         C            3.609392094151     0.111924856177     0.001201808923    12.000000000000
         H           -3.440155905849     1.229876856177     0.001096808923     1.007825032230
         H           -4.353704905849    -0.140858143823     0.001220808923     1.007825032230
         H           -3.226238905849     0.154942856177    -2.108388191077     1.007825032230
         H           -2.709509905849    -1.337325143823    -1.263695191077     1.007825032230
         H           -2.709508905849    -1.337089143823     1.266362808923     1.007825032230
         H           -3.226244905849     0.155333856177     2.110778808923     1.007825032230
         H           -0.707045905849    -0.132586143823    -2.078096191077     1.007825032230
         H           -1.216125905849     1.350594856177    -1.251595191077     1.007825032230
         H           -1.216138905849     1.350834856177     1.253758808923     1.007825032230
         H           -0.707049905849    -0.132181143823     2.080546808923     1.007825032230
         H            0.810577094151     2.050636856177     0.001037808923     1.007825032230
         H            1.138665094151    -2.243745143823     0.001405808923     1.007825032230
         H            3.278518094151     2.244028856177     0.001018808923     1.007825032230
         H            3.632313094151    -2.045674143823     0.001388808923     1.007825032230
         H            4.692205094151     0.202077856177     0.001186808923     1.007825032230

  Basis Set: AUG-CC-PVTZ
    Blend: AUG-CC-PVTZ
  Basis Set: (AUG-CC-PVTZ AUX)
    Blend: AUG-CC-PVTZ-JKFIT
	 Reference Energy          =    -496.2605447064408963 [Eh]
	 Singles Energy            =      -0.0000000000000000 [Eh]
	 Same-Spin Energy          =      -0.5393660620790046 [Eh]
	 Opposite-Spin Energy      =      -1.7584425804625321 [Eh]
	 Correlation Energy        =      -2.2978086425415367 [Eh]
	 Total Energy              =    -498.5583533489824504 [Eh]

	 ================> DF-SCS-MP2 Energies <==================
	-----------------------------------------------------------
	 SCS Same-Spin Scale       =       0.3333333333333333 [-]
	 SCS Opposite-Spin Scale   =       1.2000000000000000 [-]
	 SCS Same-Spin Energy      =      -0.1797886873596682 [Eh]
	 SCS Opposite-Spin Energy  =      -2.1101310965550386 [Eh]
	 SCS Correlation Energy    =      -2.2899197839147067 [Eh]
	 SCS Total Energy          =    -498.5504644903555800 [Eh]
	-----------------------------------------------------------

  Dipole Moment: [D]
     X:   -11.5119      Y:     1.1068      Z:    -0.0255     Total:    11.5650

*** Psi4 exiting successfully. Buy a developer a beer!
