                               Psi4 1.3.2 release

  ==> Input File <==

--------------------------------------------------------------------------
#psi4
#
memory 32 gb

molecule  {
1 1
  N       -3.3283680     0.1942120    -0.0000200
  N       -0.5495980    -0.2948890     0.0000300
  C       -2.6124301    -0.2031110    -1.2714904
  C       -2.6173490    -0.2534950     1.2573910
  C       -1.1824450     0.2377860    -1.2003860
  C       -1.1824500     0.2380150     1.2003390
  C        0.8881070    -0.1264310     0.0000120
  C        1.4779170     1.1432740    -0.0000950
  C        1.6780490    -1.2778510     0.0001130
  C        2.8695240     1.2540050    -0.0001090
  C        3.0687920    -1.1592000     0.0000980
  C        3.6642520     0.1047860    -0.0000090
  H       -3.3852960     1.2227380    -0.0001140
  H       -4.2988450    -0.1479970     0.0000100
  H       -3.1713790     0.1478040    -2.1095990
  H       -2.6546500    -1.3444640    -1.2649060
  H       -2.6546490    -1.3442280     1.2651520
  H       -3.1713850     0.1481950     2.1095680
  H       -0.6521860    -0.1397250    -2.0793070
  H       -1.1612660     1.3434560    -1.2528060
  H       -1.1612790     1.3436960     1.2525480
  H       -0.6521900    -0.1393200     2.0793360
  H        0.8654370     2.0434980    -0.0001730
  H        1.1935250    -2.2508840     0.0001950
  H        3.3333780     2.2368900    -0.0001920
  H        3.6871730    -2.0528130     0.0001780
  H        4.7470650     0.1949390    -0.0000240
units angstrom
no_reorient  #important for SAPT in psi4, default
symmetry c1  #important for SAPT in psi4, default
}

set PROPERTIES_ORIGIN ["COM"]
properties('MP2/aug-cc-pvtz', properties = ['dipole'])
--------------------------------------------------------------------------

    Molecular point group: c1
  Charge       = 1
  Multiplicity = 1
  Basis Set: AUG-CC-PVTZ
    Blend: AUG-CC-PVTZ
  Basis Set: (AUG-CC-PVTZ AUX)
    Blend: AUG-CC-PVTZ-JKFIT

    Orbital Energies [Eh]
    ---------------------

    Doubly Occupied:

       1A    -15.866867     2A    -15.705764     3A    -11.458143
       4A    -11.457209     5A    -11.417618     6A    -11.416687
       7A    -11.379452     8A    -11.344455     9A    -11.339047
      10A    -11.338996    11A    -11.336647    12A    -11.333739
      13A     -1.497916    14A     -1.390548    15A     -1.249970
      16A     -1.224054    17A     -1.155695    18A     -1.119579
      19A     -1.086518    20A     -1.053893    21A     -0.994835
      22A     -0.939120    23A     -0.927935    24A     -0.924799
      25A     -0.871590    26A     -0.819286    27A     -0.816500
      28A     -0.794687    29A     -0.791479    30A     -0.768966
      31A     -0.742768    32A     -0.736162    33A     -0.717767
      34A     -0.701272    35A     -0.688773    36A     -0.679962
      37A     -0.663340    38A     -0.660583    39A     -0.607468
      40A     -0.602810    41A     -0.601868    42A     -0.520710
      43A     -0.440285    44A     -0.438545

  @DF-RHF Final Energy:  -496.25739671005465

   => Energetics <=

    Nuclear Repulsion Energy =            706.7456677960120714
    One-Electron Energy =               -2060.7575131151065762
    Two-Electron Energy =                 857.7544486090397413
    Total Energy =                       -496.2573967100546497
  Basis Set: (AUG-CC-PVTZ AUX)
    Blend: AUG-CC-PVTZ-RI
    Molecular point group: c1

    Geometry (in Angstrom), charge = 1, multiplicity = 1:

       Center              X                  Y                   Z               Mass
    ------------   -----------------  -----------------  -----------------  -----------------
         N           -3.384228227547     0.198164789637     0.001019897951    14.003074004430
         N           -0.605458227547    -0.290936210363     0.001069897951    14.003074004430
         C           -2.668290327547    -0.199158210363    -1.270450502049    12.000000000000
         C           -2.673209227547    -0.249542210363     1.258430897951    12.000000000000
         C           -1.238305227547     0.241738789637    -1.199346102049    12.000000000000
         C           -1.238310227547     0.241967789637     1.201378897951    12.000000000000
         C            0.832246772453    -0.122478210363     0.001051897951    12.000000000000
         C            1.422056772453     1.147226789637     0.000944897951    12.000000000000
         C            1.622188772453    -1.273898210363     0.001152897951    12.000000000000
         C            2.813663772453     1.257957789637     0.000930897951    12.000000000000
         C            3.012931772453    -1.155247210363     0.001137897951    12.000000000000
         C            3.608391772453     0.108738789637     0.001030897951    12.000000000000
         H           -3.441156227547     1.226690789637     0.000925897951     1.007825032230
         H           -4.354705227547    -0.144044210363     0.001049897951     1.007825032230
         H           -3.227239227547     0.151756789637    -2.108559102049     1.007825032230
         H           -2.710510227547    -1.340511210363    -1.263866102049     1.007825032230
         H           -2.710509227547    -1.340275210363     1.266191897951     1.007825032230
         H           -3.227245227547     0.152147789637     2.110607897951     1.007825032230
         H           -0.708046227547    -0.135772210363    -2.078267102049     1.007825032230
         H           -1.217126227547     1.347408789637    -1.251766102049     1.007825032230
         H           -1.217139227547     1.347648789637     1.253587897951     1.007825032230
         H           -0.708050227547    -0.135367210363     2.080375897951     1.007825032230
         H            0.809576772453     2.047450789637     0.000866897951     1.007825032230
         H            1.137664772453    -2.246931210363     0.001234897951     1.007825032230
         H            3.277517772453     2.240842789637     0.000847897951     1.007825032230
         H            3.631312772453    -2.048860210363     0.001217897951     1.007825032230
         H            4.691204772453     0.198891789637     0.001015897951     1.007825032230

  Basis Set: AUG-CC-PVTZ
    Blend: AUG-CC-PVTZ
  Basis Set: (AUG-CC-PVTZ AUX)
    Blend: AUG-CC-PVTZ-JKFIT
	 Reference Energy          =    -496.2573967100546497 [Eh]
	 Singles Energy            =      -0.0000000000000000 [Eh]
	 Same-Spin Energy          =      -0.5396665644828565 [Eh]
	 Opposite-Spin Energy      =      -1.7586994036442871 [Eh]
	 Correlation Energy        =      -2.2983659681271438 [Eh]
	 Total Energy              =    -498.5557626781817930 [Eh]

	 ================> DF-SCS-MP2 Energies <==================
	-----------------------------------------------------------
	 SCS Same-Spin Scale       =       0.3333333333333333 [-]
	 SCS Opposite-Spin Scale   =       1.2000000000000000 [-]
	 SCS Same-Spin Energy      =      -0.1798888548276188 [Eh]
	 SCS Opposite-Spin Energy  =      -2.1104392843731445 [Eh]
	 SCS Correlation Energy    =      -2.2903281392007635 [Eh]
	 SCS Total Energy          =    -498.5477248492554168 [Eh]
	-----------------------------------------------------------

  Dipole Moment: [D]
     X:   -11.4703      Y:     1.1089      Z:     0.0017     Total:    11.5238

*** Psi4 exiting successfully. Buy a developer a beer!
