                               Psi4 1.3.2 release

  ==> Input File <==

--------------------------------------------------------------------------
#psi4
#
memory 32 gb

molecule  {
1 1
  N       -3.3283680     0.1942120    -0.0000200
  N       -0.5495980    -0.2948890     0.0000300
  C       -2.6173460    -0.2537290    -1.2573450
  C       -2.6173490    -0.2534950     1.2573910
  C       -1.1663226     0.2242114    -1.2146396
  C       -1.1824500     0.2380150     1.2003390
  C        0.8881070    -0.1264310     0.0000120
  C        1.4779170     1.1432740    -0.0000950
  C        1.6780490    -1.2778510     0.0001130
  C        2.8695240     1.2540050    -0.0001090
  C        3.0687920    -1.1592000     0.0000980
  C        3.6642520     0.1047860    -0.0000090
  H       -3.3852960     1.2227380    -0.0001140
  H       -4.2988450    -0.1479970     0.0000100
  H       -3.1713790     0.1478040    -2.1095990
  H       -2.6546500    -1.3444640    -1.2649060
  H       -2.6546490    -1.3442280     1.2651520
  H       -3.1713850     0.1481950     2.1095680
  H       -0.6521860    -0.1397250    -2.0793070
  H       -1.1612660     1.3434560    -1.2528060
  H       -1.1612790     1.3436960     1.2525480
  H       -0.6521900    -0.1393200     2.0793360
  H        0.8654370     2.0434980    -0.0001730
  H        1.1935250    -2.2508840     0.0001950
  H        3.3333780     2.2368900    -0.0001920
  H        3.6871730    -2.0528130     0.0001780
  H        4.7470650     0.1949390    -0.0000240
units angstrom
no_reorient  #important for SAPT in psi4, default
symmetry c1  #important for SAPT in psi4, default
}

set PROPERTIES_ORIGIN ["COM"]
properties('MP2/aug-cc-pvtz', properties = ['dipole'])
--------------------------------------------------------------------------

    Molecular point group: c1
  Charge       = 1
  Multiplicity = 1
  Basis Set: AUG-CC-PVTZ
    Blend: AUG-CC-PVTZ
  Basis Set: (AUG-CC-PVTZ AUX)
    Blend: AUG-CC-PVTZ-JKFIT

    Orbital Energies [Eh]
    ---------------------

    Doubly Occupied:

       1A    -15.867236     2A    -15.704871     3A    -11.456946
       4A    -11.456675     5A    -11.417986     6A    -11.417851
       7A    -11.378910     8A    -11.344145     9A    -11.338879
      10A    -11.338643    11A    -11.336457    12A    -11.333458
      13A     -1.497314    14A     -1.389993    15A     -1.249471
      16A     -1.220988    17A     -1.153999    18A     -1.119358
      19A     -1.086251    20A     -1.054623    21A     -0.996602
      22A     -0.938741    23A     -0.927831    24A     -0.923275
      25A     -0.869279    26A     -0.822681    27A     -0.817467
      28A     -0.794665    29A     -0.788160    30A     -0.769570
      31A     -0.738112    32A     -0.735243    33A     -0.717267
      34A     -0.705162    35A     -0.688672    36A     -0.685840
      37A     -0.666125    38A     -0.659184    39A     -0.607019
      40A     -0.601870    41A     -0.601438    42A     -0.519412
      43A     -0.440096    44A     -0.438155

  @DF-RHF Final Energy:  -496.26040908884170

   => Energetics <=

    Nuclear Repulsion Energy =            706.4927943331438200
    One-Electron Energy =               -2060.2745676223744340
    Two-Electron Energy =                 857.5213642003889163
    Total Energy =                       -496.2604090888416977
  Basis Set: (AUG-CC-PVTZ AUX)
    Blend: AUG-CC-PVTZ-RI
    Molecular point group: c1

    Geometry (in Angstrom), charge = 1, multiplicity = 1:

       Center              X                  Y                   Z               Mass
    ------------   -----------------  -----------------  -----------------  -----------------
         N           -3.385052621216     0.202887046633     0.001027857563    14.003074004430
         N           -0.606282621216    -0.286213953367     0.001077857563    14.003074004430
         C           -2.674030621216    -0.245053953367    -1.256297142437    12.000000000000
         C           -2.674033621216    -0.244819953367     1.258438857563    12.000000000000
         C           -1.223007221216     0.232886446633    -1.213591742437    12.000000000000
         C           -1.239134621216     0.246690046633     1.201386857563    12.000000000000
         C            0.831422378784    -0.117755953367     0.001059857563    12.000000000000
         C            1.421232378784     1.151949046633     0.000952857563    12.000000000000
         C            1.621364378784    -1.269175953367     0.001160857563    12.000000000000
         C            2.812839378784     1.262680046633     0.000938857563    12.000000000000
         C            3.012107378784    -1.150524953367     0.001145857563    12.000000000000
         C            3.607567378784     0.113461046633     0.001038857563    12.000000000000
         H           -3.441980621216     1.231413046633     0.000933857563     1.007825032230
         H           -4.355529621216    -0.139321953367     0.001057857563     1.007825032230
         H           -3.228063621216     0.156479046633    -2.108551142437     1.007825032230
         H           -2.711334621216    -1.335788953367    -1.263858142437     1.007825032230
         H           -2.711333621216    -1.335552953367     1.266199857563     1.007825032230
         H           -3.228069621216     0.156870046633     2.110615857563     1.007825032230
         H           -0.708870621216    -0.131049953367    -2.078259142437     1.007825032230
         H           -1.217950621216     1.352131046633    -1.251758142437     1.007825032230
         H           -1.217963621216     1.352371046633     1.253595857563     1.007825032230
         H           -0.708874621216    -0.130644953367     2.080383857563     1.007825032230
         H            0.808752378784     2.052173046633     0.000874857563     1.007825032230
         H            1.136840378784    -2.242208953367     0.001242857563     1.007825032230
         H            3.276693378784     2.245565046633     0.000855857563     1.007825032230
         H            3.630488378784    -2.044137953367     0.001225857563     1.007825032230
         H            4.690380378784     0.203614046633     0.001023857563     1.007825032230

  Basis Set: AUG-CC-PVTZ
    Blend: AUG-CC-PVTZ
  Basis Set: (AUG-CC-PVTZ AUX)
    Blend: AUG-CC-PVTZ-JKFIT
	 Reference Energy          =    -496.2604090888416977 [Eh]
	 Singles Energy            =      -0.0000000000000000 [Eh]
	 Same-Spin Energy          =      -0.5393197047401195 [Eh]
	 Opposite-Spin Energy      =      -1.7582917311458739 [Eh]
	 Correlation Energy        =      -2.2976114358859934 [Eh]
	 Total Energy              =    -498.5580205247276808 [Eh]

	 ================> DF-SCS-MP2 Energies <==================
	-----------------------------------------------------------
	 SCS Same-Spin Scale       =       0.3333333333333333 [-]
	 SCS Opposite-Spin Scale   =       1.2000000000000000 [-]
	 SCS Same-Spin Energy      =      -0.1797732349133732 [Eh]
	 SCS Opposite-Spin Energy  =      -2.1099500773750486 [Eh]
	 SCS Correlation Energy    =      -2.2897233122884217 [Eh]
	 SCS Total Energy          =    -498.5501324011300994 [Eh]
	-----------------------------------------------------------

  Dipole Moment: [D]
     X:   -11.4887      Y:     1.0814      Z:     0.0110     Total:    11.5395

*** Psi4 exiting successfully. Buy a developer a beer!
