                               Psi4 1.3.2 release

  ==> Input File <==

--------------------------------------------------------------------------
#psi4
#
memory 32 gb

molecule  {
1 1
  N       -3.3283680     0.1942120    -0.0000200
  N       -0.5495980    -0.2948890     0.0000300
  C       -2.6932938    -0.2058997    -1.3129027
  C       -2.6173490    -0.2534950     1.2573910
  C       -1.1824450     0.2377860    -1.2003860
  C       -1.1824500     0.2380150     1.2003390
  C        0.8881070    -0.1264310     0.0000120
  C        1.4779170     1.1432740    -0.0000950
  C        1.6780490    -1.2778510     0.0001130
  C        2.8695240     1.2540050    -0.0001090
  C        3.0687920    -1.1592000     0.0000980
  C        3.6642520     0.1047860    -0.0000090
  H       -3.3852960     1.2227380    -0.0001140
  H       -4.2988450    -0.1479970     0.0000100
  H       -3.1713790     0.1478040    -2.1095990
  H       -2.6546500    -1.3444640    -1.2649060
  H       -2.6546490    -1.3442280     1.2651520
  H       -3.1713850     0.1481950     2.1095680
  H       -0.6521860    -0.1397250    -2.0793070
  H       -1.1612660     1.3434560    -1.2528060
  H       -1.1612790     1.3436960     1.2525480
  H       -0.6521900    -0.1393200     2.0793360
  H        0.8654370     2.0434980    -0.0001730
  H        1.1935250    -2.2508840     0.0001950
  H        3.3333780     2.2368900    -0.0001920
  H        3.6871730    -2.0528130     0.0001780
  H        4.7470650     0.1949390    -0.0000240
units angstrom
no_reorient  #important for SAPT in psi4, default
symmetry c1  #important for SAPT in psi4, default
}

set PROPERTIES_ORIGIN ["COM"]
properties('MP2/aug-cc-pvtz', properties = ['dipole'])
--------------------------------------------------------------------------

    Molecular point group: c1
  Charge       = 1
  Multiplicity = 1
  Basis Set: AUG-CC-PVTZ
    Blend: AUG-CC-PVTZ
  Basis Set: (AUG-CC-PVTZ AUX)
    Blend: AUG-CC-PVTZ-JKFIT

    Orbital Energies [Eh]
    ---------------------

    Doubly Occupied:

       1A    -15.867186     2A    -15.706327     3A    -11.458474
       4A    -11.455369     5A    -11.420379     6A    -11.417353
       7A    -11.379728     8A    -11.344510     9A    -11.339078
      10A    -11.338963    11A    -11.336612    12A    -11.333814
      13A     -1.496568    14A     -1.389006    15A     -1.249308
      16A     -1.219813    17A     -1.151031    18A     -1.119555
      19A     -1.087032    20A     -1.056715    21A     -0.993982
      22A     -0.938624    23A     -0.927572    24A     -0.924128
      25A     -0.879252    26A     -0.820171    27A     -0.813522
      28A     -0.799795    29A     -0.789409    30A     -0.767811
      31A     -0.745633    32A     -0.734572    33A     -0.715669
      34A     -0.701675    35A     -0.688777    36A     -0.680721
      37A     -0.661712    38A     -0.654914    39A     -0.607537
      40A     -0.602111    41A     -0.601820    42A     -0.519402
      43A     -0.440213    44A     -0.438610

  @DF-RHF Final Energy:  -496.24688329365102

   => Energetics <=

    Nuclear Repulsion Energy =            705.1300032244112117
    One-Electron Energy =               -2057.5248707434902826
    Two-Electron Energy =                 856.1479842254279902
    Total Energy =                       -496.2468832936510807
  Basis Set: (AUG-CC-PVTZ AUX)
    Blend: AUG-CC-PVTZ-RI
    Molecular point group: c1

    Geometry (in Angstrom), charge = 1, multiplicity = 1:

       Center              X                  Y                   Z               Mass
    ------------   -----------------  -----------------  -----------------  -----------------
         N           -3.378279579681     0.198369937241     0.004066347594    14.003074004430
         N           -0.599509579681    -0.290731062759     0.004116347594    14.003074004430
         C           -2.743205379681    -0.201741762759    -1.308816352406    12.000000000000
         C           -2.667260579681    -0.249337062759     1.261477347594    12.000000000000
         C           -1.232356579681     0.241943937241    -1.196299652406    12.000000000000
         C           -1.232361579681     0.242172937241     1.204425347594    12.000000000000
         C            0.838195420319    -0.122273062759     0.004098347594    12.000000000000
         C            1.428005420319     1.147431937241     0.003991347594    12.000000000000
         C            1.628137420319    -1.273693062759     0.004199347594    12.000000000000
         C            2.819612420319     1.258162937241     0.003977347594    12.000000000000
         C            3.018880420319    -1.155042062759     0.004184347594    12.000000000000
         C            3.614340420319     0.108943937241     0.004077347594    12.000000000000
         H           -3.435207579681     1.226895937241     0.003972347594     1.007825032230
         H           -4.348756579681    -0.143839062759     0.004096347594     1.007825032230
         H           -3.221290579681     0.151961937241    -2.105512652406     1.007825032230
         H           -2.704561579681    -1.340306062759    -1.260819652406     1.007825032230
         H           -2.704560579681    -1.340070062759     1.269238347594     1.007825032230
         H           -3.221296579681     0.152352937241     2.113654347594     1.007825032230
         H           -0.702097579681    -0.135567062759    -2.075220652406     1.007825032230
         H           -1.211177579681     1.347613937241    -1.248719652406     1.007825032230
         H           -1.211190579681     1.347853937241     1.256634347594     1.007825032230
         H           -0.702101579681    -0.135162062759     2.083422347594     1.007825032230
         H            0.815525420319     2.047655937241     0.003913347594     1.007825032230
         H            1.143613420319    -2.246726062759     0.004281347594     1.007825032230
         H            3.283466420319     2.241047937241     0.003894347594     1.007825032230
         H            3.637261420319    -2.048655062759     0.004264347594     1.007825032230
         H            4.697153420319     0.199096937241     0.004062347594     1.007825032230

  Basis Set: AUG-CC-PVTZ
    Blend: AUG-CC-PVTZ
  Basis Set: (AUG-CC-PVTZ AUX)
    Blend: AUG-CC-PVTZ-JKFIT
	 Reference Energy          =    -496.2468832936510239 [Eh]
	 Singles Energy            =      -0.0000000000000000 [Eh]
	 Same-Spin Energy          =      -0.5392875267572537 [Eh]
	 Opposite-Spin Energy      =      -1.7587684536096266 [Eh]
	 Correlation Energy        =      -2.2980559803668803 [Eh]
	 Total Energy              =    -498.5449392740179064 [Eh]

	 ================> DF-SCS-MP2 Energies <==================
	-----------------------------------------------------------
	 SCS Same-Spin Scale       =       0.3333333333333333 [-]
	 SCS Opposite-Spin Scale   =       1.2000000000000000 [-]
	 SCS Same-Spin Energy      =      -0.1797625089190845 [Eh]
	 SCS Opposite-Spin Energy  =      -2.1105221443315521 [Eh]
	 SCS Correlation Energy    =      -2.2902846532506365 [Eh]
	 SCS Total Energy          =    -498.5371679469016613 [Eh]
	-----------------------------------------------------------

  Dipole Moment: [D]
     X:   -11.4578      Y:     1.1146      Z:     0.0349     Total:    11.5119

*** Psi4 exiting successfully. Buy a developer a beer!
