                               Psi4 1.3.2 release

  ==> Input File <==

--------------------------------------------------------------------------
#psi4
#
memory 32 gb

molecule  {
1 1
  N       -3.3283680     0.1942120    -0.0000200
  N       -0.5665357    -0.2823251     0.0142649
  C       -2.6173460    -0.2537290    -1.2573450
  C       -2.6173490    -0.2534950     1.2573910
  C       -1.1824450     0.2377860    -1.2003860
  C       -1.1824500     0.2380150     1.2003390
  C        0.8881070    -0.1264310     0.0000120
  C        1.4779170     1.1432740    -0.0000950
  C        1.6780490    -1.2778510     0.0001130
  C        2.8695240     1.2540050    -0.0001090
  C        3.0687920    -1.1592000     0.0000980
  C        3.6642520     0.1047860    -0.0000090
  H       -3.3852960     1.2227380    -0.0001140
  H       -4.2988450    -0.1479970     0.0000100
  H       -3.1713790     0.1478040    -2.1095990
  H       -2.6546500    -1.3444640    -1.2649060
  H       -2.6546490    -1.3442280     1.2651520
  H       -3.1713850     0.1481950     2.1095680
  H       -0.6521860    -0.1397250    -2.0793070
  H       -1.1612660     1.3434560    -1.2528060
  H       -1.1612790     1.3436960     1.2525480
  H       -0.6521900    -0.1393200     2.0793360
  H        0.8654370     2.0434980    -0.0001730
  H        1.1935250    -2.2508840     0.0001950
  H        3.3333780     2.2368900    -0.0001920
  H        3.6871730    -2.0528130     0.0001780
  H        4.7470650     0.1949390    -0.0000240
units angstrom
no_reorient  #important for SAPT in psi4, default
symmetry c1  #important for SAPT in psi4, default
}

set PROPERTIES_ORIGIN ["COM"]
properties('MP2/aug-cc-pvtz', properties = ['dipole'])
--------------------------------------------------------------------------

    Molecular point group: c1
  Charge       = 1
  Multiplicity = 1
  Basis Set: AUG-CC-PVTZ
    Blend: AUG-CC-PVTZ
  Basis Set: (AUG-CC-PVTZ AUX)
    Blend: AUG-CC-PVTZ-JKFIT

    Orbital Energies [Eh]
    ---------------------

    Doubly Occupied:

       1A    -15.866339     2A    -15.703892     3A    -11.456315
       4A    -11.455818     5A    -11.417642     6A    -11.415758
       7A    -11.380767     8A    -11.344796     9A    -11.339779
      10A    -11.339338    11A    -11.337182    12A    -11.334046
      13A     -1.497569    14A     -1.391578    15A     -1.250568
      16A     -1.222031    17A     -1.152814    18A     -1.119895
      19A     -1.087492    20A     -1.054501    21A     -0.995798
      22A     -0.938466    23A     -0.926929    24A     -0.923985
      25A     -0.869078    26A     -0.823122    27A     -0.818151
      28A     -0.794310    29A     -0.789668    30A     -0.769359
      31A     -0.737936    32A     -0.734891    33A     -0.717826
      34A     -0.706007    35A     -0.689249    36A     -0.688289
      37A     -0.663425    38A     -0.657651    39A     -0.607005
      40A     -0.603002    41A     -0.601248    42A     -0.519032
      43A     -0.440675    44A     -0.439123

  @DF-RHF Final Energy:  -496.26049769363300

   => Energetics <=

    Nuclear Repulsion Energy =            706.7876217970280095
    One-Electron Energy =               -2060.8515504826195865
    Two-Electron Energy =                 857.8034309919586349
    Total Energy =                       -496.2604976936330559
  Basis Set: (AUG-CC-PVTZ AUX)
    Blend: AUG-CC-PVTZ-RI
    Molecular point group: c1

    Geometry (in Angstrom), charge = 1, multiplicity = 1:

       Center              X                  Y                   Z               Mass
    ------------   -----------------  -----------------  -----------------  -----------------
         N           -3.382412605495     0.200809918735    -0.001242664494    14.003074004430
         N           -0.620580305495    -0.275727181265     0.013042235506    14.003074004430
         C           -2.671390605495    -0.247131081265    -1.258567664494    12.000000000000
         C           -2.671393605495    -0.246897081265     1.256168335506    12.000000000000
         C           -1.236489605495     0.244383918735    -1.201608664494    12.000000000000
         C           -1.236494605495     0.244612918735     1.199116335506    12.000000000000
         C            0.834062394505    -0.119833081265    -0.001210664494    12.000000000000
         C            1.423872394505     1.149871918735    -0.001317664494    12.000000000000
         C            1.624004394505    -1.271253081265    -0.001109664494    12.000000000000
         C            2.815479394505     1.260602918735    -0.001331664494    12.000000000000
         C            3.014747394505    -1.152602081265    -0.001124664494    12.000000000000
         C            3.610207394505     0.111383918735    -0.001231664494    12.000000000000
         H           -3.439340605495     1.229335918735    -0.001336664494     1.007825032230
         H           -4.352889605495    -0.141399081265    -0.001212664494     1.007825032230
         H           -3.225423605495     0.154401918735    -2.110821664494     1.007825032230
         H           -2.708694605495    -1.337866081265    -1.266128664494     1.007825032230
         H           -2.708693605495    -1.337630081265     1.263929335506     1.007825032230
         H           -3.225429605495     0.154792918735     2.108345335506     1.007825032230
         H           -0.706230605495    -0.133127081265    -2.080529664494     1.007825032230
         H           -1.215310605495     1.350053918735    -1.254028664494     1.007825032230
         H           -1.215323605495     1.350293918735     1.251325335506     1.007825032230
         H           -0.706234605495    -0.132722081265     2.078113335506     1.007825032230
         H            0.811392394505     2.050095918735    -0.001395664494     1.007825032230
         H            1.139480394505    -2.244286081265    -0.001027664494     1.007825032230
         H            3.279333394505     2.243487918735    -0.001414664494     1.007825032230
         H            3.633128394505    -2.046215081265    -0.001044664494     1.007825032230
         H            4.693020394505     0.201536918735    -0.001246664494     1.007825032230

  Basis Set: AUG-CC-PVTZ
    Blend: AUG-CC-PVTZ
  Basis Set: (AUG-CC-PVTZ AUX)
    Blend: AUG-CC-PVTZ-JKFIT
	 Reference Energy          =    -496.2604976936329990 [Eh]
	 Singles Energy            =      -0.0000000000000000 [Eh]
	 Same-Spin Energy          =      -0.5394404273593669 [Eh]
	 Opposite-Spin Energy      =      -1.7582916874161603 [Eh]
	 Correlation Energy        =      -2.2977321147755272 [Eh]
	 Total Energy              =    -498.5582298084084982 [Eh]

	 ================> DF-SCS-MP2 Energies <==================
	-----------------------------------------------------------
	 SCS Same-Spin Scale       =       0.3333333333333333 [-]
	 SCS Opposite-Spin Scale   =       1.2000000000000000 [-]
	 SCS Same-Spin Energy      =      -0.1798134757864556 [Eh]
	 SCS Opposite-Spin Energy  =      -2.1099500248993923 [Eh]
	 SCS Correlation Energy    =      -2.2897635006858481 [Eh]
	 SCS Total Energy          =    -498.5502611943188640 [Eh]
	-----------------------------------------------------------

  Dipole Moment: [D]
     X:   -11.4041      Y:     1.0526      Z:    -0.0394     Total:    11.4526

*** Psi4 exiting successfully. Buy a developer a beer!
