                               Psi4 1.3.2 release

  ==> Input File <==

--------------------------------------------------------------------------
#psi4
#
memory 32 gb

molecule  {
1 1
  N       -3.3283680     0.1942120    -0.0000200
  N       -0.5836610    -0.2696028     0.0281297
  C       -2.6173460    -0.2537290    -1.2573450
  C       -2.6173490    -0.2534950     1.2573910
  C       -1.1824450     0.2377860    -1.2003860
  C       -1.1824500     0.2380150     1.2003390
  C        0.8881070    -0.1264310     0.0000120
  C        1.4779170     1.1432740    -0.0000950
  C        1.6780490    -1.2778510     0.0001130
  C        2.8695240     1.2540050    -0.0001090
  C        3.0687920    -1.1592000     0.0000980
  C        3.6642520     0.1047860    -0.0000090
  H       -3.3852960     1.2227380    -0.0001140
  H       -4.2988450    -0.1479970     0.0000100
  H       -3.1713790     0.1478040    -2.1095990
  H       -2.6546500    -1.3444640    -1.2649060
  H       -2.6546490    -1.3442280     1.2651520
  H       -3.1713850     0.1481950     2.1095680
  H       -0.6521860    -0.1397250    -2.0793070
  H       -1.1612660     1.3434560    -1.2528060
  H       -1.1612790     1.3436960     1.2525480
  H       -0.6521900    -0.1393200     2.0793360
  H        0.8654370     2.0434980    -0.0001730
  H        1.1935250    -2.2508840     0.0001950
  H        3.3333780     2.2368900    -0.0001920
  H        3.6871730    -2.0528130     0.0001780
  H        4.7470650     0.1949390    -0.0000240
units angstrom
no_reorient  #important for SAPT in psi4, default
symmetry c1  #important for SAPT in psi4, default
}

set PROPERTIES_ORIGIN ["COM"]
properties('MP2/aug-cc-pvtz', properties = ['dipole'])
--------------------------------------------------------------------------

    Molecular point group: c1
  Charge       = 1
  Multiplicity = 1
  Basis Set: AUG-CC-PVTZ
    Blend: AUG-CC-PVTZ
  Basis Set: (AUG-CC-PVTZ AUX)
    Blend: AUG-CC-PVTZ-JKFIT

    Orbital Energies [Eh]
    ---------------------

    Doubly Occupied:

       1A    -15.865960     2A    -15.702813     3A    -11.455834
       4A    -11.454782     5A    -11.417989     6A    -11.414059
       7A    -11.382432     8A    -11.345338     9A    -11.340811
      10A    -11.339746    11A    -11.337841    12A    -11.334561
      13A     -1.497581    14A     -1.393513    15A     -1.251481
      16A     -1.222453    17A     -1.151002    18A     -1.120370
      19A     -1.088494    20A     -1.055812    21A     -0.994427
      22A     -0.938275    23A     -0.926780    24A     -0.924452
      25A     -0.868442    26A     -0.822822    27A     -0.818233
      28A     -0.795859    29A     -0.791405    30A     -0.769756
      31A     -0.737577    32A     -0.734355    33A     -0.718326
      34A     -0.706338    35A     -0.689811    36A     -0.688629
      37A     -0.666361    38A     -0.655075    39A     -0.606893
      40A     -0.604103    41A     -0.600298    42A     -0.517349
      43A     -0.441207    44A     -0.439955

  @DF-RHF Final Energy:  -496.25875718013890

   => Energetics <=

    Nuclear Repulsion Energy =            706.9284385318949262
    One-Electron Energy =               -2061.1151911254132756
    Two-Electron Energy =                 857.9279954133794490
    Total Energy =                       -496.2587571801389004
  Basis Set: (AUG-CC-PVTZ AUX)
    Blend: AUG-CC-PVTZ-RI
    Molecular point group: c1

    Geometry (in Angstrom), charge = 1, multiplicity = 1:

       Center              X                  Y                   Z               Mass
    ------------   -----------------  -----------------  -----------------  -----------------
         N           -3.380942511923     0.199717793549    -0.002432865737    14.003074004430
         N           -0.636235511923    -0.264097006451     0.025716834263    14.003074004430
         C           -2.669920511923    -0.248223206451    -1.259757865737    12.000000000000
         C           -2.669923511923    -0.247989206451     1.254978134263    12.000000000000
         C           -1.235019511923     0.243291793549    -1.202798865737    12.000000000000
         C           -1.235024511923     0.243520793549     1.197926134263    12.000000000000
         C            0.835532488077    -0.120925206451    -0.002400865737    12.000000000000
         C            1.425342488077     1.148779793549    -0.002507865737    12.000000000000
         C            1.625474488077    -1.272345206451    -0.002299865737    12.000000000000
         C            2.816949488077     1.259510793549    -0.002521865737    12.000000000000
         C            3.016217488077    -1.153694206451    -0.002314865737    12.000000000000
         C            3.611677488077     0.110291793549    -0.002421865737    12.000000000000
         H           -3.437870511923     1.228243793549    -0.002526865737     1.007825032230
         H           -4.351419511923    -0.142491206451    -0.002402865737     1.007825032230
         H           -3.223953511923     0.153309793549    -2.112011865737     1.007825032230
         H           -2.707224511923    -1.338958206451    -1.267318865737     1.007825032230
         H           -2.707223511923    -1.338722206451     1.262739134263     1.007825032230
         H           -3.223959511923     0.153700793549     2.107155134263     1.007825032230
         H           -0.704760511923    -0.134219206451    -2.081719865737     1.007825032230
         H           -1.213840511923     1.348961793549    -1.255218865737     1.007825032230
         H           -1.213853511923     1.349201793549     1.250135134263     1.007825032230
         H           -0.704764511923    -0.133814206451     2.076923134263     1.007825032230
         H            0.812862488077     2.049003793549    -0.002585865737     1.007825032230
         H            1.140950488077    -2.245378206451    -0.002217865737     1.007825032230
         H            3.280803488077     2.242395793549    -0.002604865737     1.007825032230
         H            3.634598488077    -2.047307206451    -0.002234865737     1.007825032230
         H            4.694490488077     0.200444793549    -0.002436865737     1.007825032230

  Basis Set: AUG-CC-PVTZ
    Blend: AUG-CC-PVTZ
  Basis Set: (AUG-CC-PVTZ AUX)
    Blend: AUG-CC-PVTZ-JKFIT
	 Reference Energy          =    -496.2587571801389004 [Eh]
	 Singles Energy            =      -0.0000000000000000 [Eh]
	 Same-Spin Energy          =      -0.5394948687570100 [Eh]
	 Opposite-Spin Energy      =      -1.7582841548167267 [Eh]
	 Correlation Energy        =      -2.2977790235737370 [Eh]
	 Total Energy              =    -498.5565362037126533 [Eh]

	 ================> DF-SCS-MP2 Energies <==================
	-----------------------------------------------------------
	 SCS Same-Spin Scale       =       0.3333333333333333 [-]
	 SCS Opposite-Spin Scale   =       1.2000000000000000 [-]
	 SCS Same-Spin Energy      =      -0.1798316229190033 [Eh]
	 SCS Opposite-Spin Energy  =      -2.1099409857800722 [Eh]
	 SCS Correlation Energy    =      -2.2897726086990753 [Eh]
	 SCS Total Energy          =    -498.5485297888379819 [Eh]
	-----------------------------------------------------------

  Dipole Moment: [D]
     X:   -11.3221      Y:     1.0130      Z:    -0.0808     Total:    11.3677

*** Psi4 exiting successfully. Buy a developer a beer!
