                               Psi4 1.3.2 release

  ==> Input File <==

--------------------------------------------------------------------------
#psi4
#
memory 32 gb

molecule  {
1 1
  N       -3.3283680     0.1942120    -0.0000200
  N       -0.5495980    -0.2948890     0.0000300
  C       -2.6173460    -0.2537290    -1.2573450
  C       -2.6173490    -0.2534950     1.2573910
  C       -1.1824450     0.2377860    -1.2003860
  C       -1.1824500     0.2380150     1.2003390
  C        0.8881070    -0.1264310     0.0000120
  C        1.4779170     1.1432740    -0.0000950
  C        1.6780490    -1.2778510     0.0001130
  C        2.8695240     1.2540050    -0.0001090
  C        3.0687920    -1.1592000     0.0000980
  C        3.6642520     0.1047860    -0.0000090
  H       -3.3963489     1.4224323    -0.0001323
  H       -4.2988450    -0.1479970     0.0000100
  H       -3.1713790     0.1478040    -2.1095990
  H       -2.6546500    -1.3444640    -1.2649060
  H       -2.6546490    -1.3442280     1.2651520
  H       -3.1713850     0.1481950     2.1095680
  H       -0.6521860    -0.1397250    -2.0793070
  H       -1.1612660     1.3434560    -1.2528060
  H       -1.1612790     1.3436960     1.2525480
  H       -0.6521900    -0.1393200     2.0793360
  H        0.8654370     2.0434980    -0.0001730
  H        1.1935250    -2.2508840     0.0001950
  H        3.3333780     2.2368900    -0.0001920
  H        3.6871730    -2.0528130     0.0001780
  H        4.7470650     0.1949390    -0.0000240
units angstrom
no_reorient  #important for SAPT in psi4, default
symmetry c1  #important for SAPT in psi4, default
}

set PROPERTIES_ORIGIN ["COM"]
properties('MP2/aug-cc-pvtz', properties = ['dipole'])
--------------------------------------------------------------------------

    Molecular point group: c1
  Charge       = 1
  Multiplicity = 1
  Basis Set: AUG-CC-PVTZ
    Blend: AUG-CC-PVTZ
  Basis Set: (AUG-CC-PVTZ AUX)
    Blend: AUG-CC-PVTZ-JKFIT

    Orbital Energies [Eh]
    ---------------------

    Doubly Occupied:

       1A    -15.877827     2A    -15.704144     3A    -11.455239
       4A    -11.455228     5A    -11.416295     6A    -11.416280
       7A    -11.378695     8A    -11.343920     9A    -11.338647
      10A    -11.338354    11A    -11.336187    12A    -11.333193
      13A     -1.477810    14A     -1.386584    15A     -1.248792
      16A     -1.219645    17A     -1.149175    18A     -1.119063
      19A     -1.081623    20A     -1.051340    21A     -0.979371
      22A     -0.933476    23A     -0.922465    24A     -0.916960
      25A     -0.856230    26A     -0.820604    27A     -0.812760
      28A     -0.788252    29A     -0.786254    30A     -0.767779
      31A     -0.733748    32A     -0.732626    33A     -0.716394
      34A     -0.699967    35A     -0.687891    36A     -0.686828
      37A     -0.659018    38A     -0.658962    39A     -0.606852
      40A     -0.601505    41A     -0.601203    42A     -0.519757
      43A     -0.439827    44A     -0.437822

  @DF-RHF Final Energy:  -496.23313583977017

   => Energetics <=

    Nuclear Repulsion Energy =            705.6427713414032041
    One-Electron Energy =               -2058.7626315708130278
    Two-Electron Energy =                 856.8867243896396531
    Total Energy =                       -496.2331358397701706
  Basis Set: (AUG-CC-PVTZ AUX)
    Blend: AUG-CC-PVTZ-RI
    Molecular point group: c1

    Geometry (in Angstrom), charge = 1, multiplicity = 1:

       Center              X                  Y                   Z               Mass
    ------------   -----------------  -----------------  -----------------  -----------------
         N           -3.383798306787     0.200654676301    -0.000020579555    14.003074004430
         N           -0.605028306787    -0.288446323699     0.000029420445    14.003074004430
         C           -2.672776306787    -0.247286323699    -1.257345579555    12.000000000000
         C           -2.672779306787    -0.247052323699     1.257390420445    12.000000000000
         C           -1.237875306787     0.244228676301    -1.200386579555    12.000000000000
         C           -1.237880306787     0.244457676301     1.200338420445    12.000000000000
         C            0.832676693213    -0.119988323699     0.000011420445    12.000000000000
         C            1.422486693213     1.149716676301    -0.000095579555    12.000000000000
         C            1.622618693213    -1.271408323699     0.000112420445    12.000000000000
         C            2.814093693213     1.260447676301    -0.000109579555    12.000000000000
         C            3.013361693213    -1.152757323699     0.000097420445    12.000000000000
         C            3.608821693213     0.111228676301    -0.000009579555    12.000000000000
         H           -3.451779206787     1.428874976301    -0.000132879555     1.007825032230
         H           -4.354275306787    -0.141554323699     0.000009420445     1.007825032230
         H           -3.226809306787     0.154246676301    -2.109599579555     1.007825032230
         H           -2.710080306787    -1.338021323699    -1.264906579555     1.007825032230
         H           -2.710079306787    -1.337785323699     1.265151420445     1.007825032230
         H           -3.226815306787     0.154637676301     2.109567420445     1.007825032230
         H           -0.707616306787    -0.133282323699    -2.079307579555     1.007825032230
         H           -1.216696306787     1.349898676301    -1.252806579555     1.007825032230
         H           -1.216709306787     1.350138676301     1.252547420445     1.007825032230
         H           -0.707620306787    -0.132877323699     2.079335420445     1.007825032230
         H            0.810006693213     2.049940676301    -0.000173579555     1.007825032230
         H            1.138094693213    -2.244441323699     0.000194420445     1.007825032230
         H            3.277947693213     2.243332676301    -0.000192579555     1.007825032230
         H            3.631742693213    -2.046370323699     0.000177420445     1.007825032230
         H            4.691634693213     0.201381676301    -0.000024579555     1.007825032230

  Basis Set: AUG-CC-PVTZ
    Blend: AUG-CC-PVTZ
  Basis Set: (AUG-CC-PVTZ AUX)
    Blend: AUG-CC-PVTZ-JKFIT
	 Reference Energy          =    -496.2331358397701706 [Eh]
	 Singles Energy            =      -0.0000000000000000 [Eh]
	 Same-Spin Energy          =      -0.5409306997712566 [Eh]
	 Opposite-Spin Energy      =      -1.7627110280079434 [Eh]
	 Correlation Energy        =      -2.3036417277792003 [Eh]
	 Total Energy              =    -498.5367775675493931 [Eh]

	 ================> DF-SCS-MP2 Energies <==================
	-----------------------------------------------------------
	 SCS Same-Spin Scale       =       0.3333333333333333 [-]
	 SCS Opposite-Spin Scale   =       1.2000000000000000 [-]
	 SCS Same-Spin Energy      =      -0.1803102332570855 [Eh]
	 SCS Opposite-Spin Energy  =      -2.1152532336095322 [Eh]
	 SCS Correlation Energy    =      -2.2955634668666178 [Eh]
	 SCS Total Energy          =    -498.5286993066367813 [Eh]
	-----------------------------------------------------------

  Dipole Moment: [D]
     X:   -11.5178      Y:     1.2928      Z:    -0.0001     Total:    11.5901

*** Psi4 exiting successfully. Buy a developer a beer!
