                               Psi4 1.3.2 release

  ==> Input File <==

--------------------------------------------------------------------------
#psi4
#
memory 32 gb

molecule  {
1 1
  N       -3.3283680     0.1942120    -0.0000200
  N       -0.5495980    -0.2948890     0.0000300
  C       -2.6372621    -0.4020653    -1.2057959
  C       -2.6173490    -0.2534950     1.2573910
  C       -1.1824450     0.2377860    -1.2003860
  C       -1.1824500     0.2380150     1.2003390
  C        0.8881070    -0.1264310     0.0000120
  C        1.4779170     1.1432740    -0.0000950
  C        1.6780490    -1.2778510     0.0001130
  C        2.8695240     1.2540050    -0.0001090
  C        3.0687920    -1.1592000     0.0000980
  C        3.6642520     0.1047860    -0.0000090
  H       -3.3852960     1.2227380    -0.0001140
  H       -4.2988450    -0.1479970     0.0000100
  H       -3.1713790     0.1478040    -2.1095990
  H       -2.6546500    -1.3444640    -1.2649060
  H       -2.6546490    -1.3442280     1.2651520
  H       -3.1713850     0.1481950     2.1095680
  H       -0.6521860    -0.1397250    -2.0793070
  H       -1.1612660     1.3434560    -1.2528060
  H       -1.1612790     1.3436960     1.2525480
  H       -0.6521900    -0.1393200     2.0793360
  H        0.8654370     2.0434980    -0.0001730
  H        1.1935250    -2.2508840     0.0001950
  H        3.3333780     2.2368900    -0.0001920
  H        3.6871730    -2.0528130     0.0001780
  H        4.7470650     0.1949390    -0.0000240
units angstrom
no_reorient  #important for SAPT in psi4, default
symmetry c1  #important for SAPT in psi4, default
}

set PROPERTIES_ORIGIN ["COM"]
properties('MP2/aug-cc-pvtz', properties = ['dipole'])
--------------------------------------------------------------------------

    Molecular point group: c1
  Charge       = 1
  Multiplicity = 1
  Basis Set: AUG-CC-PVTZ
    Blend: AUG-CC-PVTZ
  Basis Set: (AUG-CC-PVTZ AUX)
    Blend: AUG-CC-PVTZ-JKFIT

    Orbital Energies [Eh]
    ---------------------

    Doubly Occupied:

       1A    -15.868317     2A    -15.703287     3A    -11.456331
       4A    -11.456272     5A    -11.421926     6A    -11.417273
       7A    -11.378520     8A    -11.344061     9A    -11.338919
      10A    -11.338422    11A    -11.336441    12A    -11.333237
      13A     -1.497973    14A     -1.389273    15A     -1.249209
      16A     -1.215994    17A     -1.153389    18A     -1.119325
      19A     -1.090243    20A     -1.053465    21A     -1.004041
      22A     -0.938448    23A     -0.925773    24A     -0.920382
      25A     -0.875515    26A     -0.842899    27A     -0.819023
      28A     -0.789156    29A     -0.776928    30A     -0.769821
      31A     -0.748007    32A     -0.721161    33A     -0.719531
      34A     -0.709468    35A     -0.694226    36A     -0.688598
      37A     -0.657201    38A     -0.647322    39A     -0.606875
      40A     -0.601516    41A     -0.597716    42A     -0.519809
      43A     -0.440093    44A     -0.437600

  @DF-RHF Final Energy:  -496.22646846778048

   => Energetics <=

    Nuclear Repulsion Energy =            706.3286662722763367
    One-Electron Energy =               -2059.8842965890376036
    Two-Electron Energy =                 857.3291618489809025
    Total Energy =                       -496.2264684677804780
  Basis Set: (AUG-CC-PVTZ AUX)
    Blend: AUG-CC-PVTZ-RI
    Molecular point group: c1

    Geometry (in Angstrom), charge = 1, multiplicity = 1:

       Center              X                  Y                   Z               Mass
    ------------   -----------------  -----------------  -----------------  -----------------
         N           -3.382401489174     0.212800640733    -0.003812844643    14.003074004430
         N           -0.603631489174    -0.276300359267    -0.003762844643    14.003074004430
         C           -2.691295589174    -0.383476659267    -1.209588744643    12.000000000000
         C           -2.671382489174    -0.234906359267     1.253598155357    12.000000000000
         C           -1.236478489174     0.256374640733    -1.204178844643    12.000000000000
         C           -1.236483489174     0.256603640733     1.196546155357    12.000000000000
         C            0.834073510826    -0.107842359267    -0.003780844643    12.000000000000
         C            1.423883510826     1.161862640733    -0.003887844643    12.000000000000
         C            1.624015510826    -1.259262359267    -0.003679844643    12.000000000000
         C            2.815490510826     1.272593640733    -0.003901844643    12.000000000000
         C            3.014758510826    -1.140611359267    -0.003694844643    12.000000000000
         C            3.610218510826     0.123374640733    -0.003801844643    12.000000000000
         H           -3.439329489174     1.241326640733    -0.003906844643     1.007825032230
         H           -4.352878489174    -0.129408359267    -0.003782844643     1.007825032230
         H           -3.225412489174     0.166392640733    -2.113391844643     1.007825032230
         H           -2.708683489174    -1.325875359267    -1.268698844643     1.007825032230
         H           -2.708682489174    -1.325639359267     1.261359155357     1.007825032230
         H           -3.225418489174     0.166783640733     2.105775155357     1.007825032230
         H           -0.706219489174    -0.121136359267    -2.083099844643     1.007825032230
         H           -1.215299489174     1.362044640733    -1.256598844643     1.007825032230
         H           -1.215312489174     1.362284640733     1.248755155357     1.007825032230
         H           -0.706223489174    -0.120731359267     2.075543155357     1.007825032230
         H            0.811403510826     2.062086640733    -0.003965844643     1.007825032230
         H            1.139491510826    -2.232295359267    -0.003597844643     1.007825032230
         H            3.279344510826     2.255478640733    -0.003984844643     1.007825032230
         H            3.633139510826    -2.034224359267    -0.003614844643     1.007825032230
         H            4.693031510826     0.213527640733    -0.003816844643     1.007825032230

  Basis Set: AUG-CC-PVTZ
    Blend: AUG-CC-PVTZ
  Basis Set: (AUG-CC-PVTZ AUX)
    Blend: AUG-CC-PVTZ-JKFIT
	 Reference Energy          =    -496.2264684677804780 [Eh]
	 Singles Energy            =      -0.0000000000000000 [Eh]
	 Same-Spin Energy          =      -0.5396414093290496 [Eh]
	 Opposite-Spin Energy      =      -1.7599543631366319 [Eh]
	 Correlation Energy        =      -2.2995957724656817 [Eh]
	 Total Energy              =    -498.5260642402461713 [Eh]

	 ================> DF-SCS-MP2 Energies <==================
	-----------------------------------------------------------
	 SCS Same-Spin Scale       =       0.3333333333333333 [-]
	 SCS Opposite-Spin Scale   =       1.2000000000000000 [-]
	 SCS Same-Spin Energy      =      -0.1798804697763499 [Eh]
	 SCS Opposite-Spin Energy  =      -2.1119452357639581 [Eh]
	 SCS Correlation Energy    =      -2.2918257055403082 [Eh]
	 SCS Total Energy          =    -498.5182941733207826 [Eh]
	-----------------------------------------------------------

  Dipole Moment: [D]
     X:   -11.4715      Y:     1.0835      Z:     0.0491     Total:    11.5227

*** Psi4 exiting successfully. Buy a developer a beer!
