                               Psi4 1.3.2 release

  ==> Input File <==

--------------------------------------------------------------------------
#psi4
#
memory 32 gb

molecule  {
1 1
  N       -3.3283680     0.1942120    -0.0000200
  N       -0.5495980    -0.2948890     0.0000300
  C       -2.6173460    -0.2537290    -1.2573450
  C       -2.6173490    -0.2534950     1.2573910
  C       -1.2449588     0.2904214    -1.1397602
  C       -1.1824500     0.2380150     1.2003390
  C        0.8881070    -0.1264310     0.0000120
  C        1.4779170     1.1432740    -0.0000950
  C        1.6780490    -1.2778510     0.0001130
  C        2.8695240     1.2540050    -0.0001090
  C        3.0687920    -1.1592000     0.0000980
  C        3.6642520     0.1047860    -0.0000090
  H       -3.3852960     1.2227380    -0.0001140
  H       -4.2988450    -0.1479970     0.0000100
  H       -3.1713790     0.1478040    -2.1095990
  H       -2.6546500    -1.3444640    -1.2649060
  H       -2.6546490    -1.3442280     1.2651520
  H       -3.1713850     0.1481950     2.1095680
  H       -0.6521860    -0.1397250    -2.0793070
  H       -1.1612660     1.3434560    -1.2528060
  H       -1.1612790     1.3436960     1.2525480
  H       -0.6521900    -0.1393200     2.0793360
  H        0.8654370     2.0434980    -0.0001730
  H        1.1935250    -2.2508840     0.0001950
  H        3.3333780     2.2368900    -0.0001920
  H        3.6871730    -2.0528130     0.0001780
  H        4.7470650     0.1949390    -0.0000240
units angstrom
no_reorient  #important for SAPT in psi4, default
symmetry c1  #important for SAPT in psi4, default
}

set PROPERTIES_ORIGIN ["COM"]
properties('MP2/aug-cc-pvtz', properties = ['dipole'])
--------------------------------------------------------------------------

    Molecular point group: c1
  Charge       = 1
  Multiplicity = 1
  Basis Set: AUG-CC-PVTZ
    Blend: AUG-CC-PVTZ
  Basis Set: (AUG-CC-PVTZ AUX)
    Blend: AUG-CC-PVTZ-JKFIT

    Orbital Energies [Eh]
    ---------------------

    Doubly Occupied:

       1A    -15.864476     2A    -15.706125     3A    -11.457908
       4A    -11.456458     5A    -11.417438     6A    -11.415532
       7A    -11.380315     8A    -11.344948     9A    -11.339507
      10A    -11.339365    11A    -11.336991    12A    -11.334015
      13A     -1.499113    14A     -1.391047    15A     -1.250742
      16A     -1.224624    17A     -1.157145    18A     -1.119941
      19A     -1.088047    20A     -1.048390    21A     -1.000215
      22A     -0.939280    23A     -0.926426    24A     -0.923509
      25A     -0.871706    26A     -0.827672    27A     -0.819928
      28A     -0.789240    29A     -0.786716    30A     -0.767077
      31A     -0.739858    32A     -0.737324    33A     -0.719534
      34A     -0.708262    35A     -0.694545    36A     -0.688973
      37A     -0.663047    38A     -0.632838    39A     -0.607983
      40A     -0.603233    41A     -0.601012    42A     -0.524653
      43A     -0.440595    44A     -0.438704

  @DF-RHF Final Energy:  -496.24814981800023

   => Energetics <=

    Nuclear Repulsion Energy =            707.3273146612848450
    One-Electron Energy =               -2061.9020171391175609
    Two-Electron Energy =                 858.3265526598324868
    Total Energy =                       -496.2481498180002291
  Basis Set: (AUG-CC-PVTZ AUX)
    Blend: AUG-CC-PVTZ-RI
    Molecular point group: c1

    Geometry (in Angstrom), charge = 1, multiplicity = 1:

       Center              X                  Y                   Z               Mass
    ------------   -----------------  -----------------  -----------------  -----------------
         N           -3.379267836902     0.198016381857    -0.004480561951    14.003074004430
         N           -0.600497836902    -0.291084618143    -0.004430561951    14.003074004430
         C           -2.668245836902    -0.249924618143    -1.261805561951    12.000000000000
         C           -2.668248836902    -0.249690618143     1.252930438049    12.000000000000
         C           -1.295858636902     0.294225781857    -1.144220761951    12.000000000000
         C           -1.233349836902     0.241819381857     1.195878438049    12.000000000000
         C            0.837207163098    -0.122626618143    -0.004448561951    12.000000000000
         C            1.427017163098     1.147078381857    -0.004555561951    12.000000000000
         C            1.627149163098    -1.274046618143    -0.004347561951    12.000000000000
         C            2.818624163098     1.257809381857    -0.004569561951    12.000000000000
         C            3.017892163098    -1.155395618143    -0.004362561951    12.000000000000
         C            3.613352163098     0.108590381857    -0.004469561951    12.000000000000
         H           -3.436195836902     1.226542381857    -0.004574561951     1.007825032230
         H           -4.349744836902    -0.144192618143    -0.004450561951     1.007825032230
         H           -3.222278836902     0.151608381857    -2.114059561951     1.007825032230
         H           -2.705549836902    -1.340659618143    -1.269366561951     1.007825032230
         H           -2.705548836902    -1.340423618143     1.260691438049     1.007825032230
         H           -3.222284836902     0.151999381857     2.105107438049     1.007825032230
         H           -0.703085836902    -0.135920618143    -2.083767561951     1.007825032230
         H           -1.212165836902     1.347260381857    -1.257266561951     1.007825032230
         H           -1.212178836902     1.347500381857     1.248087438049     1.007825032230
         H           -0.703089836902    -0.135515618143     2.074875438049     1.007825032230
         H            0.814537163098     2.047302381857    -0.004633561951     1.007825032230
         H            1.142625163098    -2.247079618143    -0.004265561951     1.007825032230
         H            3.282478163098     2.240694381857    -0.004652561951     1.007825032230
         H            3.636273163098    -2.049008618143    -0.004282561951     1.007825032230
         H            4.696165163098     0.198743381857    -0.004484561951     1.007825032230

  Basis Set: AUG-CC-PVTZ
    Blend: AUG-CC-PVTZ
  Basis Set: (AUG-CC-PVTZ AUX)
    Blend: AUG-CC-PVTZ-JKFIT
	 Reference Energy          =    -496.2481498180002291 [Eh]
	 Singles Energy            =      -0.0000000000000000 [Eh]
	 Same-Spin Energy          =      -0.5403508604702765 [Eh]
	 Opposite-Spin Energy      =      -1.7598057787436190 [Eh]
	 Correlation Energy        =      -2.3001566392138955 [Eh]
	 Total Energy              =    -498.5483064572141529 [Eh]

	 ================> DF-SCS-MP2 Energies <==================
	-----------------------------------------------------------
	 SCS Same-Spin Scale       =       0.3333333333333333 [-]
	 SCS Opposite-Spin Scale   =       1.2000000000000000 [-]
	 SCS Same-Spin Energy      =      -0.1801169534900922 [Eh]
	 SCS Opposite-Spin Energy  =      -2.1117669344923429 [Eh]
	 SCS Correlation Energy    =      -2.2918838879824350 [Eh]
	 SCS Total Energy          =    -498.5400337059826370 [Eh]
	-----------------------------------------------------------

  Dipole Moment: [D]
     X:   -11.4412      Y:     1.1116      Z:    -0.0267     Total:    11.4951

*** Psi4 exiting successfully. Buy a developer a beer!
