                               Psi4 1.3.2 release

  ==> Input File <==

--------------------------------------------------------------------------
#psi4
#
memory 32 gb

molecule  {
1 1
  N       -3.3283680     0.1942120    -0.0000200
  N       -0.5495980    -0.2948890     0.0000300
  C       -2.6173460    -0.2537290    -1.2573450
  C       -2.6173490    -0.2534950     1.2573910
  C       -1.0426194     0.2775988    -1.2467355
  C       -1.1824500     0.2380150     1.2003390
  C        0.8881070    -0.1264310     0.0000120
  C        1.4779170     1.1432740    -0.0000950
  C        1.6780490    -1.2778510     0.0001130
  C        2.8695240     1.2540050    -0.0001090
  C        3.0687920    -1.1592000     0.0000980
  C        3.6642520     0.1047860    -0.0000090
  H       -3.3852960     1.2227380    -0.0001140
  H       -4.2988450    -0.1479970     0.0000100
  H       -3.1713790     0.1478040    -2.1095990
  H       -2.6546500    -1.3444640    -1.2649060
  H       -2.6546490    -1.3442280     1.2651520
  H       -3.1713850     0.1481950     2.1095680
  H       -0.6521860    -0.1397250    -2.0793070
  H       -1.1612660     1.3434560    -1.2528060
  H       -1.1612790     1.3436960     1.2525480
  H       -0.6521900    -0.1393200     2.0793360
  H        0.8654370     2.0434980    -0.0001730
  H        1.1935250    -2.2508840     0.0001950
  H        3.3333780     2.2368900    -0.0001920
  H        3.6871730    -2.0528130     0.0001780
  H        4.7470650     0.1949390    -0.0000240
units angstrom
no_reorient  #important for SAPT in psi4, default
symmetry c1  #important for SAPT in psi4, default
}

set PROPERTIES_ORIGIN ["COM"]
properties('MP2/aug-cc-pvtz', properties = ['dipole'])
--------------------------------------------------------------------------

    Molecular point group: c1
  Charge       = 1
  Multiplicity = 1
  Basis Set: AUG-CC-PVTZ
    Blend: AUG-CC-PVTZ
  Basis Set: (AUG-CC-PVTZ AUX)
    Blend: AUG-CC-PVTZ-JKFIT

    Orbital Energies [Eh]
    ---------------------

    Doubly Occupied:

       1A    -15.865895     2A    -15.707239     3A    -11.456267
       4A    -11.453147     5A    -11.420521     6A    -11.420287
       7A    -11.378466     8A    -11.344430     9A    -11.339575
      10A    -11.338473    11A    -11.336853    12A    -11.333435
      13A     -1.492733    14A     -1.392808    15A     -1.249049
      16A     -1.211940    17A     -1.145164    18A     -1.119829
      19A     -1.082513    20A     -1.062021    21A     -0.997976
      22A     -0.939024    23A     -0.928980    24A     -0.921130
      25A     -0.868998    26A     -0.820540    27A     -0.815994
      28A     -0.805979    29A     -0.786794    30A     -0.769027
      31A     -0.737352    32A     -0.727493    33A     -0.716658
      34A     -0.705366    35A     -0.689632    36A     -0.688567
      37A     -0.680536    38A     -0.640906    39A     -0.607931
      40A     -0.602995    41A     -0.593980    42A     -0.523570
      43A     -0.440607    44A     -0.437478

  @DF-RHF Final Energy:  -496.24002844527854

   => Energetics <=

    Nuclear Repulsion Energy =            705.7223046423591768
    One-Electron Energy =               -2058.7283521244062285
    Two-Electron Energy =                 856.7660190367685118
    Total Energy =                       -496.2400284452785399
  Basis Set: (AUG-CC-PVTZ AUX)
    Blend: AUG-CC-PVTZ-RI
    Molecular point group: c1

    Geometry (in Angstrom), charge = 1, multiplicity = 1:

       Center              X                  Y                   Z               Mass
    ------------   -----------------  -----------------  -----------------  -----------------
         N           -3.394152709102     0.198959662119     0.003388956635    14.003074004430
         N           -0.615382709102    -0.290141337881     0.003438956635    14.003074004430
         C           -2.683130709102    -0.248981337881    -1.253936043365    12.000000000000
         C           -2.683133709102    -0.248747337881     1.260799956635    12.000000000000
         C           -1.108404109102     0.282346462119    -1.243326543365    12.000000000000
         C           -1.248234709102     0.242762662119     1.203747956635    12.000000000000
         C            0.822322290898    -0.121683337881     0.003420956635    12.000000000000
         C            1.412132290898     1.148021662119     0.003313956635    12.000000000000
         C            1.612264290898    -1.273103337881     0.003521956635    12.000000000000
         C            2.803739290898     1.258752662119     0.003299956635    12.000000000000
         C            3.003007290898    -1.154452337881     0.003506956635    12.000000000000
         C            3.598467290898     0.109533662119     0.003399956635    12.000000000000
         H           -3.451080709102     1.227485662119     0.003294956635     1.007825032230
         H           -4.364629709102    -0.143249337881     0.003418956635     1.007825032230
         H           -3.237163709102     0.152551662119    -2.106190043365     1.007825032230
         H           -2.720434709102    -1.339716337881    -1.261497043365     1.007825032230
         H           -2.720433709102    -1.339480337881     1.268560956635     1.007825032230
         H           -3.237169709102     0.152942662119     2.112976956635     1.007825032230
         H           -0.717970709102    -0.134977337881    -2.075898043365     1.007825032230
         H           -1.227050709102     1.348203662119    -1.249397043365     1.007825032230
         H           -1.227063709102     1.348443662119     1.255956956635     1.007825032230
         H           -0.717974709102    -0.134572337881     2.082744956635     1.007825032230
         H            0.799652290898     2.048245662119     0.003235956635     1.007825032230
         H            1.127740290898    -2.246136337881     0.003603956635     1.007825032230
         H            3.267593290898     2.241637662119     0.003216956635     1.007825032230
         H            3.621388290898    -2.048065337881     0.003586956635     1.007825032230
         H            4.681280290898     0.199686662119     0.003384956635     1.007825032230

  Basis Set: AUG-CC-PVTZ
    Blend: AUG-CC-PVTZ
  Basis Set: (AUG-CC-PVTZ AUX)
    Blend: AUG-CC-PVTZ-JKFIT
	 Reference Energy          =    -496.2400284452785399 [Eh]
	 Singles Energy            =      -0.0000000000000000 [Eh]
	 Same-Spin Energy          =      -0.5392518735384479 [Eh]
	 Opposite-Spin Energy      =      -1.7594725774688307 [Eh]
	 Correlation Energy        =      -2.2987244510072786 [Eh]
	 Total Energy              =    -498.5387528962858141 [Eh]

	 ================> DF-SCS-MP2 Energies <==================
	-----------------------------------------------------------
	 SCS Same-Spin Scale       =       0.3333333333333333 [-]
	 SCS Opposite-Spin Scale   =       1.2000000000000000 [-]
	 SCS Same-Spin Energy      =      -0.1797506245128160 [Eh]
	 SCS Opposite-Spin Energy  =      -2.1113670929625967 [Eh]
	 SCS Correlation Energy    =      -2.2911177174754127 [Eh]
	 SCS Total Energy          =    -498.5311461627539416 [Eh]
	-----------------------------------------------------------

  Dipole Moment: [D]
     X:   -11.4230      Y:     1.1620      Z:     0.0826     Total:    11.4822

*** Psi4 exiting successfully. Buy a developer a beer!
