                               Psi4 1.3.2 release

  ==> Input File <==

--------------------------------------------------------------------------
#psi4
#
memory 32 gb

molecule  {
1 1
  N       -3.3283680     0.1942120    -0.0000200
  N       -0.5163060    -0.3195262    -0.0295322
  C       -2.6173460    -0.2537290    -1.2573450
  C       -2.6173490    -0.2534950     1.2573910
  C       -1.1824450     0.2377860    -1.2003860
  C       -1.1824500     0.2380150     1.2003390
  C        0.8881070    -0.1264310     0.0000120
  C        1.4779170     1.1432740    -0.0000950
  C        1.6780490    -1.2778510     0.0001130
  C        2.8695240     1.2540050    -0.0001090
  C        3.0687920    -1.1592000     0.0000980
  C        3.6642520     0.1047860    -0.0000090
  H       -3.3852960     1.2227380    -0.0001140
  H       -4.2988450    -0.1479970     0.0000100
  H       -3.1713790     0.1478040    -2.1095990
  H       -2.6546500    -1.3444640    -1.2649060
  H       -2.6546490    -1.3442280     1.2651520
  H       -3.1713850     0.1481950     2.1095680
  H       -0.6521860    -0.1397250    -2.0793070
  H       -1.1612660     1.3434560    -1.2528060
  H       -1.1612790     1.3436960     1.2525480
  H       -0.6521900    -0.1393200     2.0793360
  H        0.8654370     2.0434980    -0.0001730
  H        1.1935250    -2.2508840     0.0001950
  H        3.3333780     2.2368900    -0.0001920
  H        3.6871730    -2.0528130     0.0001780
  H        4.7470650     0.1949390    -0.0000240
units angstrom
no_reorient  #important for SAPT in psi4, default
symmetry c1  #important for SAPT in psi4, default
}

set PROPERTIES_ORIGIN ["COM"]
properties('MP2/aug-cc-pvtz', properties = ['dipole'])
--------------------------------------------------------------------------

    Molecular point group: c1
  Charge       = 1
  Multiplicity = 1
  Basis Set: AUG-CC-PVTZ
    Blend: AUG-CC-PVTZ
  Basis Set: (AUG-CC-PVTZ AUX)
    Blend: AUG-CC-PVTZ-JKFIT

    Orbital Energies [Eh]
    ---------------------

    Doubly Occupied:

       1A    -15.867415     2A    -15.707060     3A    -11.458653
       4A    -11.457839     5A    -11.420377     6A    -11.417124
       7A    -11.376065     8A    -11.343341     9A    -11.338276
      10A    -11.336915    11A    -11.335293    12A    -11.332606
      13A     -1.497775    14A     -1.388356    15A     -1.248024
      16A     -1.220957    17A     -1.158380    18A     -1.118640
      19A     -1.085086    20A     -1.050352    21A     -0.999789
      22A     -0.939670    23A     -0.927649    24A     -0.922038
      25A     -0.870680    26A     -0.824364    27A     -0.818191
      28A     -0.790214    29A     -0.784964    30A     -0.768290
      31A     -0.739206    32A     -0.736481    33A     -0.716472
      34A     -0.705366    35A     -0.688316    36A     -0.687688
      37A     -0.665010    38A     -0.654166    39A     -0.607875
      40A     -0.602952    41A     -0.598420    42A     -0.523001
      43A     -0.439270    44A     -0.436334

  @DF-RHF Final Energy:  -496.25785874378153

   => Energetics <=

    Nuclear Repulsion Energy =            706.4042263676344646
    One-Electron Energy =               -2060.1142860084892163
    Two-Electron Energy =                 857.4522008970732259
    Total Energy =                       -496.2578587437815258
  Basis Set: (AUG-CC-PVTZ AUX)
    Blend: AUG-CC-PVTZ-RI
    Molecular point group: c1

    Geometry (in Angstrom), charge = 1, multiplicity = 1:

       Center              X                  Y                   Z               Mass
    ------------   -----------------  -----------------  -----------------  -----------------
         N           -3.386724492531     0.204003386760     0.002517026440    14.003074004430
         N           -0.574662492531    -0.309734813240    -0.026995173560    14.003074004430
         C           -2.675702492531    -0.243937613240    -1.254807973560    12.000000000000
         C           -2.675705492531    -0.243703613240     1.259928026440    12.000000000000
         C           -1.240801492531     0.247577386760    -1.197848973560    12.000000000000
         C           -1.240806492531     0.247806386760     1.202876026440    12.000000000000
         C            0.829750507469    -0.116639613240     0.002549026440    12.000000000000
         C            1.419560507469     1.153065386760     0.002442026440    12.000000000000
         C            1.619692507469    -1.268059613240     0.002650026440    12.000000000000
         C            2.811167507469     1.263796386760     0.002428026440    12.000000000000
         C            3.010435507469    -1.149408613240     0.002635026440    12.000000000000
         C            3.605895507469     0.114577386760     0.002528026440    12.000000000000
         H           -3.443652492531     1.232529386760     0.002423026440     1.007825032230
         H           -4.357201492531    -0.138205613240     0.002547026440     1.007825032230
         H           -3.229735492531     0.157595386760    -2.107061973560     1.007825032230
         H           -2.713006492531    -1.334672613240    -1.262368973560     1.007825032230
         H           -2.713005492531    -1.334436613240     1.267689026440     1.007825032230
         H           -3.229741492531     0.157986386760     2.112105026440     1.007825032230
         H           -0.710542492531    -0.129933613240    -2.076769973560     1.007825032230
         H           -1.219622492531     1.353247386760    -1.250268973560     1.007825032230
         H           -1.219635492531     1.353487386760     1.255085026440     1.007825032230
         H           -0.710546492531    -0.129528613240     2.081873026440     1.007825032230
         H            0.807080507469     2.053289386760     0.002364026440     1.007825032230
         H            1.135168507469    -2.241092613240     0.002732026440     1.007825032230
         H            3.275021507469     2.246681386760     0.002345026440     1.007825032230
         H            3.628816507469    -2.043021613240     0.002715026440     1.007825032230
         H            4.688708507469     0.204730386760     0.002513026440     1.007825032230

  Basis Set: AUG-CC-PVTZ
    Blend: AUG-CC-PVTZ
  Basis Set: (AUG-CC-PVTZ AUX)
    Blend: AUG-CC-PVTZ-JKFIT
	 Reference Energy          =    -496.2578587437815258 [Eh]
	 Singles Energy            =      -0.0000000000000000 [Eh]
	 Same-Spin Energy          =      -0.5396404734026430 [Eh]
	 Opposite-Spin Energy      =      -1.7589714881016079 [Eh]
	 Correlation Energy        =      -2.2986119615042506 [Eh]
	 Total Energy              =    -498.5564707052857898 [Eh]

	 ================> DF-SCS-MP2 Energies <==================
	-----------------------------------------------------------
	 SCS Same-Spin Scale       =       0.3333333333333333 [-]
	 SCS Opposite-Spin Scale   =       1.2000000000000000 [-]
	 SCS Same-Spin Energy      =      -0.1798801578008810 [Eh]
	 SCS Opposite-Spin Energy  =      -2.1107657857219295 [Eh]
	 SCS Correlation Energy    =      -2.2906459435228106 [Eh]
	 SCS Total Energy          =    -498.5485046873043302 [Eh]
	-----------------------------------------------------------

  Dipole Moment: [D]
     X:   -11.6268      Y:     1.1585      Z:     0.0715     Total:    11.6846

*** Psi4 exiting successfully. Buy a developer a beer!
