                               Psi4 1.3.2 release

  ==> Input File <==

--------------------------------------------------------------------------
#psi4
#
memory 32 gb

molecule  {
1 1
  N       -3.3283680     0.1942120    -0.0000200
  N       -0.5495980    -0.2948890     0.0000300
  C       -2.6549097    -0.2300728    -1.2859072
  C       -2.6173490    -0.2534950     1.2573910
  C       -1.1824450     0.2377860    -1.2003860
  C       -1.1824500     0.2380150     1.2003390
  C        0.8881070    -0.1264310     0.0000120
  C        1.4779170     1.1432740    -0.0000950
  C        1.6780490    -1.2778510     0.0001130
  C        2.8695240     1.2540050    -0.0001090
  C        3.0687920    -1.1592000     0.0000980
  C        3.6642520     0.1047860    -0.0000090
  H       -3.3852960     1.2227380    -0.0001140
  H       -4.2988450    -0.1479970     0.0000100
  H       -3.1713790     0.1478040    -2.1095990
  H       -2.6546500    -1.3444640    -1.2649060
  H       -2.6546490    -1.3442280     1.2651520
  H       -3.1713850     0.1481950     2.1095680
  H       -0.6521860    -0.1397250    -2.0793070
  H       -1.1612660     1.3434560    -1.2528060
  H       -1.1612790     1.3436960     1.2525480
  H       -0.6521900    -0.1393200     2.0793360
  H        0.8654370     2.0434980    -0.0001730
  H        1.1935250    -2.2508840     0.0001950
  H        3.3333780     2.2368900    -0.0001920
  H        3.6871730    -2.0528130     0.0001780
  H        4.7470650     0.1949390    -0.0000240
units angstrom
no_reorient  #important for SAPT in psi4, default
symmetry c1  #important for SAPT in psi4, default
}

set PROPERTIES_ORIGIN ["COM"]
properties('MP2/aug-cc-pvtz', properties = ['dipole'])
--------------------------------------------------------------------------

    Molecular point group: c1
  Charge       = 1
  Multiplicity = 1
  Basis Set: AUG-CC-PVTZ
    Blend: AUG-CC-PVTZ
  Basis Set: (AUG-CC-PVTZ AUX)
    Blend: AUG-CC-PVTZ-JKFIT

    Orbital Energies [Eh]
    ---------------------

    Doubly Occupied:

       1A    -15.866811     2A    -15.705586     3A    -11.457549
       4A    -11.455852     5A    -11.418751     6A    -11.417304
       7A    -11.379398     8A    -11.344358     9A    -11.338930
      10A    -11.338891    11A    -11.336545    12A    -11.333650
      13A     -1.496977    14A     -1.389407    15A     -1.249411
      16A     -1.220526    17A     -1.152756    18A     -1.119468
      19A     -1.086610    20A     -1.054831    21A     -0.995375
      22A     -0.938617    23A     -0.926649    24A     -0.924098
      25A     -0.873829    26A     -0.820919    27A     -0.815856
      28A     -0.796289    29A     -0.789194    30A     -0.768275
      31A     -0.741613    32A     -0.735720    33A     -0.716278
      34A     -0.703542    35A     -0.688695    36A     -0.684670
      37A     -0.661702    38A     -0.658396    39A     -0.607367
      40A     -0.602087    41A     -0.601755    42A     -0.519940
      43A     -0.440162    44A     -0.438401

  @DF-RHF Final Energy:  -496.25773192496541

   => Energetics <=

    Nuclear Repulsion Energy =            705.8826236345922780
    One-Electron Energy =               -2059.0546408681134380
    Two-Electron Energy =                 856.9142853085558045
    Total Energy =                       -496.2577319249654693
  Basis Set: (AUG-CC-PVTZ AUX)
    Blend: AUG-CC-PVTZ-RI
    Molecular point group: c1

    Geometry (in Angstrom), charge = 1, multiplicity = 1:

       Center              X                  Y                   Z               Mass
    ------------   -----------------  -----------------  -----------------  -----------------
         N           -3.381103263170     0.200148204372     0.002080453757    14.003074004430
         N           -0.602333263170    -0.288952795628     0.002130453757    14.003074004430
         C           -2.707644963170    -0.224136595628    -1.283806746243    12.000000000000
         C           -2.670084263170    -0.247558795628     1.259491453757    12.000000000000
         C           -1.235180263170     0.243722204372    -1.198285546243    12.000000000000
         C           -1.235185263170     0.243951204372     1.202439453757    12.000000000000
         C            0.835371736830    -0.120494795628     0.002112453757    12.000000000000
         C            1.425181736830     1.149210204372     0.002005453757    12.000000000000
         C            1.625313736830    -1.271914795628     0.002213453757    12.000000000000
         C            2.816788736830     1.259941204372     0.001991453757    12.000000000000
         C            3.016056736830    -1.153263795628     0.002198453757    12.000000000000
         C            3.611516736830     0.110722204372     0.002091453757    12.000000000000
         H           -3.438031263170     1.228674204372     0.001986453757     1.007825032230
         H           -4.351580263170    -0.142060795628     0.002110453757     1.007825032230
         H           -3.224114263170     0.153740204372    -2.107498546243     1.007825032230
         H           -2.707385263170    -1.338527795628    -1.262805546243     1.007825032230
         H           -2.707384263170    -1.338291795628     1.267252453757     1.007825032230
         H           -3.224120263170     0.154131204372     2.111668453757     1.007825032230
         H           -0.704921263170    -0.133788795628    -2.077206546243     1.007825032230
         H           -1.214001263170     1.349392204372    -1.250705546243     1.007825032230
         H           -1.214014263170     1.349632204372     1.254648453757     1.007825032230
         H           -0.704925263170    -0.133383795628     2.081436453757     1.007825032230
         H            0.812701736830     2.049434204372     0.001927453757     1.007825032230
         H            1.140789736830    -2.244947795628     0.002295453757     1.007825032230
         H            3.280642736830     2.242826204372     0.001908453757     1.007825032230
         H            3.634437736830    -2.046876795628     0.002278453757     1.007825032230
         H            4.694329736830     0.200875204372     0.002076453757     1.007825032230

  Basis Set: AUG-CC-PVTZ
    Blend: AUG-CC-PVTZ
  Basis Set: (AUG-CC-PVTZ AUX)
    Blend: AUG-CC-PVTZ-JKFIT
	 Reference Energy          =    -496.2577319249654124 [Eh]
	 Singles Energy            =      -0.0000000000000000 [Eh]
	 Same-Spin Energy          =      -0.5392827530539306 [Eh]
	 Opposite-Spin Energy      =      -1.7583831170106343 [Eh]
	 Correlation Energy        =      -2.2976658700645647 [Eh]
	 Total Energy              =    -498.5553977950299895 [Eh]

	 ================> DF-SCS-MP2 Energies <==================
	-----------------------------------------------------------
	 SCS Same-Spin Scale       =       0.3333333333333333 [-]
	 SCS Opposite-Spin Scale   =       1.2000000000000000 [-]
	 SCS Same-Spin Energy      =      -0.1797609176846435 [Eh]
	 SCS Opposite-Spin Energy  =      -2.1100597404127610 [Eh]
	 SCS Correlation Energy    =      -2.2898206580974048 [Eh]
	 SCS Total Energy          =    -498.5475525830628385 [Eh]
	-----------------------------------------------------------

  Dipole Moment: [D]
     X:   -11.4767      Y:     1.1015      Z:     0.0102     Total:    11.5294

*** Psi4 exiting successfully. Buy a developer a beer!
