                               Psi4 1.3.2 release

  ==> Input File <==

--------------------------------------------------------------------------
#psi4
#
memory 32 gb

molecule  {
1 1
  N       -3.3283680     0.1942120    -0.0000200
  N       -0.6184535    -0.2436984     0.0547327
  C       -2.6173460    -0.2537290    -1.2573450
  C       -2.6173490    -0.2534950     1.2573910
  C       -1.1824450     0.2377860    -1.2003860
  C       -1.1824500     0.2380150     1.2003390
  C        0.8881070    -0.1264310     0.0000120
  C        1.4779170     1.1432740    -0.0000950
  C        1.6780490    -1.2778510     0.0001130
  C        2.8695240     1.2540050    -0.0001090
  C        3.0687920    -1.1592000     0.0000980
  C        3.6642520     0.1047860    -0.0000090
  H       -3.3852960     1.2227380    -0.0001140
  H       -4.2988450    -0.1479970     0.0000100
  H       -3.1713790     0.1478040    -2.1095990
  H       -2.6546500    -1.3444640    -1.2649060
  H       -2.6546490    -1.3442280     1.2651520
  H       -3.1713850     0.1481950     2.1095680
  H       -0.6521860    -0.1397250    -2.0793070
  H       -1.1612660     1.3434560    -1.2528060
  H       -1.1612790     1.3436960     1.2525480
  H       -0.6521900    -0.1393200     2.0793360
  H        0.8654370     2.0434980    -0.0001730
  H        1.1935250    -2.2508840     0.0001950
  H        3.3333780     2.2368900    -0.0001920
  H        3.6871730    -2.0528130     0.0001780
  H        4.7470650     0.1949390    -0.0000240
units angstrom
no_reorient  #important for SAPT in psi4, default
symmetry c1  #important for SAPT in psi4, default
}

set PROPERTIES_ORIGIN ["COM"]
properties('MP2/aug-cc-pvtz', properties = ['dipole'])
--------------------------------------------------------------------------

    Molecular point group: c1
  Charge       = 1
  Multiplicity = 1
  Basis Set: AUG-CC-PVTZ
    Blend: AUG-CC-PVTZ
  Basis Set: (AUG-CC-PVTZ AUX)
    Blend: AUG-CC-PVTZ-JKFIT

    Orbital Energies [Eh]
    ---------------------

    Doubly Occupied:

       1A    -15.865187     2A    -15.700603     3A    -11.454930
       4A    -11.452600     5A    -11.418967     6A    -11.410497
       7A    -11.385844     8A    -11.346502     9A    -11.342958
      10A    -11.340635    11A    -11.339209    12A    -11.335638
      13A     -1.497798    14A     -1.398709    15A     -1.253363
      16A     -1.223421    17A     -1.147517    18A     -1.121391
      19A     -1.090767    20A     -1.058249    21A     -0.991651
      22A     -0.938228    23A     -0.927199    24A     -0.924563
      25A     -0.867017    26A     -0.822546    27A     -0.818476
      28A     -0.799225    29A     -0.795097    30A     -0.770647
      31A     -0.736940    32A     -0.733343    33A     -0.719382
      34A     -0.707130    35A     -0.691034    36A     -0.689985
      37A     -0.671557    38A     -0.650131    39A     -0.607536
      40A     -0.605342    41A     -0.597315    42A     -0.513404
      43A     -0.442363    44A     -0.441508

  @DF-RHF Final Energy:  -496.25088004683698

   => Energetics <=

    Nuclear Repulsion Energy =            707.2324197764302198
    One-Electron Energy =               -2061.6737850928084299
    Two-Electron Energy =                 858.1904852695413410
    Total Energy =                       -496.2508800468369827
  Basis Set: (AUG-CC-PVTZ AUX)
    Blend: AUG-CC-PVTZ-RI
    Molecular point group: c1

    Geometry (in Angstrom), charge = 1, multiplicity = 1:

       Center              X                  Y                   Z               Mass
    ------------   -----------------  -----------------  -----------------  -----------------
         N           -3.377955806254     0.197494072393    -0.004716557076    14.003074004430
         N           -0.668041306254    -0.240416327607     0.050036142924    14.003074004430
         C           -2.666933806254    -0.250446927607    -1.262041557076    12.000000000000
         C           -2.666936806254    -0.250212927607     1.252694442924    12.000000000000
         C           -1.232032806254     0.241068072393    -1.205082557076    12.000000000000
         C           -1.232037806254     0.241297072393     1.195642442924    12.000000000000
         C            0.838519193746    -0.123148927607    -0.004684557076    12.000000000000
         C            1.428329193746     1.146556072393    -0.004791557076    12.000000000000
         C            1.628461193746    -1.274568927607    -0.004583557076    12.000000000000
         C            2.819936193746     1.257287072393    -0.004805557076    12.000000000000
         C            3.019204193746    -1.155917927607    -0.004598557076    12.000000000000
         C            3.614664193746     0.108068072393    -0.004705557076    12.000000000000
         H           -3.434883806254     1.226020072393    -0.004810557076     1.007825032230
         H           -4.348432806254    -0.144714927607    -0.004686557076     1.007825032230
         H           -3.220966806254     0.151086072393    -2.114295557076     1.007825032230
         H           -2.704237806254    -1.341181927607    -1.269602557076     1.007825032230
         H           -2.704236806254    -1.340945927607     1.260455442924     1.007825032230
         H           -3.220972806254     0.151477072393     2.104871442924     1.007825032230
         H           -0.701773806254    -0.136442927607    -2.084003557076     1.007825032230
         H           -1.210853806254     1.346738072393    -1.257502557076     1.007825032230
         H           -1.210866806254     1.346978072393     1.247851442924     1.007825032230
         H           -0.701777806254    -0.136037927607     2.074639442924     1.007825032230
         H            0.815849193746     2.046780072393    -0.004869557076     1.007825032230
         H            1.143937193746    -2.247601927607    -0.004501557076     1.007825032230
         H            3.283790193746     2.240172072393    -0.004888557076     1.007825032230
         H            3.637585193746    -2.049530927607    -0.004518557076     1.007825032230
         H            4.697477193746     0.198221072393    -0.004720557076     1.007825032230

  Basis Set: AUG-CC-PVTZ
    Blend: AUG-CC-PVTZ
  Basis Set: (AUG-CC-PVTZ AUX)
    Blend: AUG-CC-PVTZ-JKFIT
	 Reference Energy          =    -496.2508800468369827 [Eh]
	 Singles Energy            =      -0.0000000000000000 [Eh]
	 Same-Spin Energy          =      -0.5397935894085251 [Eh]
	 Opposite-Spin Energy      =      -1.7586104285055759 [Eh]
	 Correlation Energy        =      -2.2984040179141010 [Eh]
	 Total Energy              =    -498.5492840647510775 [Eh]

	 ================> DF-SCS-MP2 Energies <==================
	-----------------------------------------------------------
	 SCS Same-Spin Scale       =       0.3333333333333333 [-]
	 SCS Opposite-Spin Scale   =       1.2000000000000000 [-]
	 SCS Same-Spin Energy      =      -0.1799311964695083 [Eh]
	 SCS Opposite-Spin Energy  =      -2.1103325142066911 [Eh]
	 SCS Correlation Energy    =      -2.2902637106761996 [Eh]
	 SCS Total Energy          =    -498.5411437575131686 [Eh]
	-----------------------------------------------------------

  Dipole Moment: [D]
     X:   -11.1488      Y:     0.9275      Z:    -0.1705     Total:    11.1886

*** Psi4 exiting successfully. Buy a developer a beer!
