                               Psi4 1.4a3.dev225

  ==> Input File <==

--------------------------------------------------------------------------
#psi4
#
memory 32 gb

molecule  {
1 1
  N       -3.3283680     0.1942120    -0.0000200
  N       -0.5495980    -0.2948890     0.0000300
  C       -2.6173460    -0.2537290    -1.2573450
  C       -2.6173490    -0.2534950     1.2573910
  C       -1.1824450     0.2377860    -1.2003860
  C       -1.1824500     0.2380150     1.2003390
  C        0.8881070    -0.1264310     0.0000120
  C        1.4779170     1.1432740    -0.0000950
  C        1.6780490    -1.2778510     0.0001130
  C        2.8695240     1.2540050    -0.0001090
  C        3.0687920    -1.1592000     0.0000980
  C        3.6642520     0.1047860    -0.0000090
  H       -3.3864013     1.2427074    -0.0001158
  H       -4.2988450    -0.1479970     0.0000100
  H       -3.1713790     0.1478040    -2.1095990
  H       -2.6546500    -1.3444640    -1.2649060
  H       -2.6546490    -1.3442280     1.2651520
  H       -3.1713850     0.1481950     2.1095680
  H       -0.6521860    -0.1397250    -2.0793070
  H       -1.1612660     1.3434560    -1.2528060
  H       -1.1612790     1.3436960     1.2525480
  H       -0.6521900    -0.1393200     2.0793360
  H        0.8654370     2.0434980    -0.0001730
  H        1.1935250    -2.2508840     0.0001950
  H        3.3333780     2.2368900    -0.0001920
  H        3.6871730    -2.0528130     0.0001780
  H        4.7470650     0.1949390    -0.0000240
units angstrom
no_reorient  #important for SAPT in psi4, default
symmetry c1  #important for SAPT in psi4, default
}

set PROPERTIES_ORIGIN ["COM"]
properties('MP2/aug-cc-pvtz', properties = ['dipole'])
--------------------------------------------------------------------------

    Molecular point group: c1
  Charge       = 1
  Multiplicity = 1
  Basis Set: AUG-CC-PVTZ
    Blend: AUG-CC-PVTZ
  Basis Set: (AUG-CC-PVTZ AUX)
    Blend: AUG-CC-PVTZ-JKFIT

    Orbital Energies [Eh]
    ---------------------

    Doubly Occupied:

       1A    -15.868125     2A    -15.704878     3A    -11.456653
       4A    -11.456642     5A    -11.417287     6A    -11.417272
       7A    -11.379101     8A    -11.344246     9A    -11.338926
      10A    -11.338738    11A    -11.336504    12A    -11.333513
      13A     -1.495024    14A     -1.389699    15A     -1.249581
      16A     -1.221445    17A     -1.153925    18A     -1.119410
      19A     -1.085938    20A     -1.052964    21A     -0.994778
      22A     -0.937959    23A     -0.926602    24A     -0.923111
      25A     -0.868459    26A     -0.823191    27A     -0.817645
      28A     -0.792470    29A     -0.787832    30A     -0.768879
      31A     -0.737811    32A     -0.735266    33A     -0.717256
      34A     -0.705322    35A     -0.688665    36A     -0.688003
      37A     -0.660242    38A     -0.660069    39A     -0.607213
      40A     -0.601948    41A     -0.601591    42A     -0.520456
      43A     -0.440141    44A     -0.438206

  @DF-RHF Final Energy:  -496.25981916285764

   => Energetics <=

    Nuclear Repulsion Energy =            706.5421129605110764
    One-Electron Energy =               -2060.3978913196615395
    Two-Electron Energy =                 857.5959591962928243
    Total Energy =                       -496.2598191628576387
  Basis Set: (AUG-CC-PVTZ AUX)
    Blend: AUG-CC-PVTZ-RI
    Molecular point group: c1

    Geometry (in Angstrom), charge = 1, multiplicity = 1:

       Center              X                  Y                   Z               Mass
    ------------   -----------------  -----------------  -----------------  -----------------
         N           -3.383859765981     0.201765069512    -0.000020681496    14.003074004430
         N           -0.605089765981    -0.287335930488     0.000029318504    14.003074004430
         C           -2.672837765981    -0.246175930488    -1.257345681496    12.000000000000
         C           -2.672840765981    -0.245941930488     1.257390318504    12.000000000000
         C           -1.237936765981     0.245339069512    -1.200386681496    12.000000000000
         C           -1.237941765981     0.245568069512     1.200338318504    12.000000000000
         C            0.832615234019    -0.118877930488     0.000011318504    12.000000000000
         C            1.422425234019     1.150827069512    -0.000095681496    12.000000000000
         C            1.622557234019    -1.270297930488     0.000112318504    12.000000000000
         C            2.814032234019     1.261558069512    -0.000109681496    12.000000000000
         C            3.013300234019    -1.151646930488     0.000097318504    12.000000000000
         C            3.608760234019     0.112339069512    -0.000009681496    12.000000000000
         H           -3.441893065981     1.250260469512    -0.000116481496     1.007825032230
         H           -4.354336765981    -0.140443930488     0.000009318504     1.007825032230
         H           -3.226870765981     0.155357069512    -2.109599681496     1.007825032230
         H           -2.710141765981    -1.336910930488    -1.264906681496     1.007825032230
         H           -2.710140765981    -1.336674930488     1.265151318504     1.007825032230
         H           -3.226876765981     0.155748069512     2.109567318504     1.007825032230
         H           -0.707677765981    -0.132171930488    -2.079307681496     1.007825032230
         H           -1.216757765981     1.351009069512    -1.252806681496     1.007825032230
         H           -1.216770765981     1.351249069512     1.252547318504     1.007825032230
         H           -0.707681765981    -0.131766930488     2.079335318504     1.007825032230
         H            0.809945234019     2.051051069512    -0.000173681496     1.007825032230
         H            1.138033234019    -2.243330930488     0.000194318504     1.007825032230
         H            3.277886234019     2.244443069512    -0.000192681496     1.007825032230
         H            3.631681234019    -2.045259930488     0.000177318504     1.007825032230
         H            4.691573234019     0.202492069512    -0.000024681496     1.007825032230

  Basis Set: AUG-CC-PVTZ
    Blend: AUG-CC-PVTZ
  Basis Set: (AUG-CC-PVTZ AUX)
    Blend: AUG-CC-PVTZ-JKFIT
	 Reference Energy          =    -496.2598191628576387 [Eh]
	 Singles Energy            =      -0.0000000000000000 [Eh]
	 Same-Spin Energy          =      -0.5395886079057570 [Eh]
	 Opposite-Spin Energy      =      -1.7587958668320578 [Eh]
	 Correlation Energy        =      -2.2983844747378148 [Eh]
	 Total Energy              =    -498.5582036375954544 [Eh]

	 ================> DF-SCS-MP2 Energies <==================
	-----------------------------------------------------------
	 SCS Same-Spin Scale       =       0.3333333333333333 [-]
	 SCS Opposite-Spin Scale   =       1.2000000000000000 [-]
	 SCS Same-Spin Energy      =      -0.1798628693019190 [Eh]
	 SCS Opposite-Spin Energy  =      -2.1105550401984692 [Eh]
	 SCS Correlation Energy    =      -2.2904179095003880 [Eh]
	 SCS Total Energy          =    -498.5502370723580157 [Eh]
	-----------------------------------------------------------

  Dipole Moment: [D]
     X:   -11.4866      Y:     1.1101      Z:    -0.0001     Total:    11.5401

*** Psi4 exiting successfully. Buy a developer a beer!
