                               Psi4 1.4a3.dev225

  ==> Input File <==

--------------------------------------------------------------------------
#psi4
#
memory 32 gb

molecule  {
0 1
  C       -2.1229620    -0.0000010    -0.5285820
  C       -3.0262580     0.7522420     0.4138790
  C       -3.0262580    -0.7522400     0.4138820
  C       -0.6463130    -0.0000010    -0.3104390
  C        0.0658190     1.2029900    -0.2211540
  C        0.0658190    -1.2029910    -0.2211540
  C        1.4498120     1.2013260    -0.0471800
  C        1.4498130    -1.2013260    -0.0471800
  C        2.1649180     0.0000000     0.0407490
  C        3.6537450     0.0000010     0.2729580
  H       -2.4338460    -0.0000040    -1.5729350
  H       -3.8872420     1.2699250     0.0031310
  H       -2.5562430     1.2534570     1.2541040
  H       -2.5562430    -1.2534530     1.2541090
  H       -3.8872430    -1.2699240     0.0031370
  H       -0.4732260     2.1464250    -0.2897140
  H       -0.4732250    -2.1464270    -0.2897140
  H        1.9843610     2.1482350     0.0181390
  H        1.9843620    -2.1482350     0.0181390
  H        4.1207180    -0.8853500    -0.1681390
  H        4.1292563     0.9015400    -0.1762031
  H        3.8883030     0.0000000     1.3432050
units angstrom
no_reorient  #important for SAPT in psi4, default
symmetry c1  #important for SAPT in psi4, default
}

set PROPERTIES_ORIGIN ["COM"]
properties('MP2/aug-cc-pvtz', properties = ['dipole'])
--------------------------------------------------------------------------

    Molecular point group: c1
  Charge       = 0
  Multiplicity = 1
  Basis Set: AUG-CC-PVTZ
    Blend: AUG-CC-PVTZ
  Basis Set: (AUG-CC-PVTZ AUX)
    Blend: AUG-CC-PVTZ-JKFIT

    Orbital Energies [Eh]
    ---------------------

    Doubly Occupied:

       1A    -11.238098     2A    -11.234192     3A    -11.233043
       4A    -11.229234     5A    -11.229067     6A    -11.227577
       7A    -11.227453     8A    -11.224877     9A    -11.224698
      10A    -11.224046    11A     -1.163424    12A     -1.130180
      13A     -1.038784    14A     -1.006809    15A     -0.935524
      16A     -0.834000    17A     -0.831388    18A     -0.808811
      19A     -0.765771    20A     -0.686982    21A     -0.652461
      22A     -0.633384    23A     -0.626344    24A     -0.599396
      25A     -0.577095    26A     -0.572553    27A     -0.536159
      28A     -0.528330    29A     -0.512337    30A     -0.489842
      31A     -0.483544    32A     -0.476168    33A     -0.424282
      34A     -0.412842    35A     -0.331561    36A     -0.312319

  @DF-RHF Final Energy:  -385.76901004368403

   => Energetics <=

    Nuclear Repulsion Energy =            482.5355381788094746
    One-Electron Energy =               -1477.2839433275278225
    Two-Electron Energy =                 608.9793951050343139
    Total Energy =                       -385.7690100436840339
  Basis Set: (AUG-CC-PVTZ AUX)
    Blend: AUG-CC-PVTZ-RI
    Molecular point group: c1

    Geometry (in Angstrom), charge = 0, multiplicity = 1:

       Center              X                  Y                   Z               Mass
    ------------   -----------------  -----------------  -----------------  -----------------
         C           -2.124295128930    -0.000124515767    -0.517964859466    12.000000000000
         C           -3.027591128930     0.752118484233     0.424496140534    12.000000000000
         C           -3.027591128930    -0.752363515767     0.424499140534    12.000000000000
         C           -0.647646128930    -0.000124515767    -0.299821859466    12.000000000000
         C            0.064485871070     1.202866484233    -0.210536859466    12.000000000000
         C            0.064485871070    -1.203114515767    -0.210536859466    12.000000000000
         C            1.448478871070     1.201202484233    -0.036562859466    12.000000000000
         C            1.448479871070    -1.201449515767    -0.036562859466    12.000000000000
         C            2.163584871070    -0.000123515767     0.051366140534    12.000000000000
         C            3.652411871070    -0.000122515767     0.283575140534    12.000000000000
         H           -2.435179128930    -0.000127515767    -1.562317859466     1.007825032230
         H           -3.888575128930     1.269801484233     0.013748140534     1.007825032230
         H           -2.557576128930     1.253333484233     1.264721140534     1.007825032230
         H           -2.557576128930    -1.253576515767     1.264726140534     1.007825032230
         H           -3.888576128930    -1.270047515767     0.013754140534     1.007825032230
         H           -0.474559128930     2.146301484233    -0.279096859466     1.007825032230
         H           -0.474558128930    -2.146550515767    -0.279096859466     1.007825032230
         H            1.983027871070     2.148111484233     0.028756140534     1.007825032230
         H            1.983028871070    -2.148358515767     0.028756140534     1.007825032230
         H            4.119384871070    -0.885473515767    -0.157521859466     1.007825032230
         H            4.127923171070     0.901416484233    -0.165585959466     1.007825032230
         H            3.886969871070    -0.000123515767     1.353822140534     1.007825032230

  Basis Set: AUG-CC-PVTZ
    Blend: AUG-CC-PVTZ
  Basis Set: (AUG-CC-PVTZ AUX)
    Blend: AUG-CC-PVTZ-JKFIT
	 Reference Energy          =    -385.7690100436840339 [Eh]
	 Singles Energy            =      -0.0000000000000000 [Eh]
	 Same-Spin Energy          =      -0.4317141384044481 [Eh]
	 Opposite-Spin Energy      =      -1.4116216490383811 [Eh]
	 Correlation Energy        =      -1.8433357874428291 [Eh]
	 Total Energy              =    -387.6123458311268450 [Eh]

	 ================> DF-SCS-MP2 Energies <==================
	-----------------------------------------------------------
	 SCS Same-Spin Scale       =       0.3333333333333333 [-]
	 SCS Opposite-Spin Scale   =       1.2000000000000000 [-]
	 SCS Same-Spin Energy      =      -0.1439047128014827 [Eh]
	 SCS Opposite-Spin Energy  =      -1.6939459788460571 [Eh]
	 SCS Correlation Energy    =      -1.8378506916475399 [Eh]
	 SCS Total Energy          =    -387.6068607353315656 [Eh]
	-----------------------------------------------------------

  Dipole Moment: [D]
     X:     0.1051      Y:    -0.0071      Z:     0.0318     Total:     0.1101

*** Psi4 exiting successfully. Buy a developer a beer!
