                               Psi4 1.4a3.dev225

  ==> Input File <==

--------------------------------------------------------------------------
#psi4
#
memory 32 gb

molecule  {
0 1
  C       -2.1229620    -0.0000010    -0.5285820
  C       -3.0262580     0.7522420     0.4138790
  C       -3.0262580    -0.7522400     0.4138820
  C       -0.6463130    -0.0000010    -0.3104390
  C        0.0658190     1.2029900    -0.2211540
  C        0.0658190    -1.2029910    -0.2211540
  C        1.4498120     1.2013260    -0.0471800
  C        1.4498130    -1.2013260    -0.0471800
  C        2.1649180     0.0000000     0.0407490
  C        3.6537450     0.0000010     0.2729580
  H       -2.4338460    -0.0000040    -1.5729350
  H       -3.8872420     1.2699250     0.0031310
  H       -2.5562430     1.2534570     1.2541040
  H       -2.5562430    -1.2534530     1.2541090
  H       -3.8872430    -1.2699240     0.0031370
  H       -0.4732260     2.1464250    -0.2897140
  H       -0.4732250    -2.1464270    -0.2897140
  H        1.9843610     2.1482350     0.0181390
  H        2.0825045    -2.3220862     0.0301315
  H        4.1207180    -0.8853500    -0.1681390
  H        4.1207180     0.8853520    -0.1681380
  H        3.8883030     0.0000000     1.3432050
units angstrom
no_reorient  #important for SAPT in psi4, default
symmetry c1  #important for SAPT in psi4, default
}

set PROPERTIES_ORIGIN ["COM"]
properties('MP2/aug-cc-pvtz', properties = ['dipole'])
--------------------------------------------------------------------------

    Molecular point group: c1
  Charge       = 0
  Multiplicity = 1
  Basis Set: AUG-CC-PVTZ
    Blend: AUG-CC-PVTZ
  Basis Set: (AUG-CC-PVTZ AUX)
    Blend: AUG-CC-PVTZ-JKFIT

    Orbital Energies [Eh]
    ---------------------

    Doubly Occupied:

       1A    -11.249835     2A    -11.240557     3A    -11.235951
       4A    -11.234105     5A    -11.231364     6A    -11.230532
       7A    -11.229261     8A    -11.225451     9A    -11.224792
      10A    -11.222409    11A     -1.164466    12A     -1.130789
      13A     -1.039993    14A     -1.004360    15A     -0.936323
      16A     -0.833046    17A     -0.831806    18A     -0.806650
      19A     -0.761364    20A     -0.683659    21A     -0.653087
      22A     -0.635254    23A     -0.621883    24A     -0.594392
      25A     -0.573370    26A     -0.564688    27A     -0.532556
      28A     -0.529435    29A     -0.512948    30A     -0.491133
      31A     -0.480270    32A     -0.471155    33A     -0.425070
      34A     -0.413250    35A     -0.333185    36A     -0.313866

  @DF-RHF Final Energy:  -385.74754951225026

   => Energetics <=

    Nuclear Repulsion Energy =            481.6900453706905409
    One-Electron Energy =               -1475.5506855801872916
    Two-Electron Energy =                 608.1130906972464345
    Total Energy =                       -385.7475495122503162
  Basis Set: (AUG-CC-PVTZ AUX)
    Blend: AUG-CC-PVTZ-RI
    Molecular point group: c1

    Geometry (in Angstrom), charge = 0, multiplicity = 1:

       Center              X                  Y                   Z               Mass
    ------------   -----------------  -----------------  -----------------  -----------------
         C           -2.124978774091     0.001325409341    -0.518117891145    12.000000000000
         C           -3.028274774091     0.753568409341     0.424343108855    12.000000000000
         C           -3.028274774091    -0.750913590659     0.424346108855    12.000000000000
         C           -0.648329774091     0.001325409341    -0.299974891145    12.000000000000
         C            0.063802225909     1.204316409341    -0.210689891145    12.000000000000
         C            0.063802225909    -1.201664590659    -0.210689891145    12.000000000000
         C            1.447795225909     1.202652409341    -0.036715891145    12.000000000000
         C            1.447796225909    -1.199999590659    -0.036715891145    12.000000000000
         C            2.162901225909     0.001326409341     0.051213108855    12.000000000000
         C            3.651728225909     0.001327409341     0.283422108855    12.000000000000
         H           -2.435862774091     0.001322409341    -1.562470891145     1.007825032230
         H           -3.889258774091     1.271251409341     0.013595108855     1.007825032230
         H           -2.558259774091     1.254783409341     1.264568108855     1.007825032230
         H           -2.558259774091    -1.252126590659     1.264573108855     1.007825032230
         H           -3.889259774091    -1.268597590659     0.013601108855     1.007825032230
         H           -0.475242774091     2.147751409341    -0.279249891145     1.007825032230
         H           -0.475241774091    -2.145100590659    -0.279249891145     1.007825032230
         H            1.982344225909     2.149561409341     0.028603108855     1.007825032230
         H            2.080487725909    -2.320759790659     0.040595608855     1.007825032230
         H            4.118701225909    -0.884023590659    -0.157674891145     1.007825032230
         H            4.118701225909     0.886678409341    -0.157673891145     1.007825032230
         H            3.886286225909     0.001326409341     1.353669108855     1.007825032230

  Basis Set: AUG-CC-PVTZ
    Blend: AUG-CC-PVTZ
  Basis Set: (AUG-CC-PVTZ AUX)
    Blend: AUG-CC-PVTZ-JKFIT
	 Reference Energy          =    -385.7475495122502593 [Eh]
	 Singles Energy            =      -0.0000000000000000 [Eh]
	 Same-Spin Energy          =      -0.4322498703454167 [Eh]
	 Opposite-Spin Energy      =      -1.4137508329015356 [Eh]
	 Correlation Energy        =      -1.8460007032469523 [Eh]
	 Total Energy              =    -387.5935502154972028 [Eh]

	 ================> DF-SCS-MP2 Energies <==================
	-----------------------------------------------------------
	 SCS Same-Spin Scale       =       0.3333333333333333 [-]
	 SCS Opposite-Spin Scale   =       1.2000000000000000 [-]
	 SCS Same-Spin Energy      =      -0.1440832901151389 [Eh]
	 SCS Opposite-Spin Energy  =      -1.6965009994818427 [Eh]
	 SCS Correlation Energy    =      -1.8405842895969817 [Eh]
	 SCS Total Energy          =    -387.5881338018472206 [Eh]
	-----------------------------------------------------------

  Dipole Moment: [D]
     X:     0.0289      Y:     0.1089      Z:     0.0254     Total:     0.1155

*** Psi4 exiting successfully. Buy a developer a beer!
