                               Psi4 1.4a3.dev225

  ==> Input File <==

--------------------------------------------------------------------------
#psi4
#
memory 32 gb

molecule  {
0 1
  C       -2.1229620    -0.0000010    -0.5285820
  C       -3.0262580     0.7522420     0.4138790
  C       -3.0262580    -0.7522400     0.4138820
  C       -0.6463130    -0.0000010    -0.3104390
  C        0.0658190     1.2029900    -0.2211540
  C        0.0658190    -1.2029910    -0.2211540
  C        1.4498120     1.2013260    -0.0471800
  C        1.4498130    -1.2013260    -0.0471800
  C        2.1739289     0.0000001    -0.0110689
  C        3.6537450     0.0000010     0.2729580
  H       -2.4338460    -0.0000040    -1.5729350
  H       -3.8872420     1.2699250     0.0031310
  H       -2.5562430     1.2534570     1.2541040
  H       -2.5562430    -1.2534530     1.2541090
  H       -3.8872430    -1.2699240     0.0031370
  H       -0.4732260     2.1464250    -0.2897140
  H       -0.4732250    -2.1464270    -0.2897140
  H        1.9843610     2.1482350     0.0181390
  H        1.9843620    -2.1482350     0.0181390
  H        4.1207180    -0.8853500    -0.1681390
  H        4.1207180     0.8853520    -0.1681380
  H        3.8883030     0.0000000     1.3432050
units angstrom
no_reorient  #important for SAPT in psi4, default
symmetry c1  #important for SAPT in psi4, default
}

set PROPERTIES_ORIGIN ["COM"]
properties('MP2/aug-cc-pvtz', properties = ['dipole'])
--------------------------------------------------------------------------

    Molecular point group: c1
  Charge       = 0
  Multiplicity = 1
  Basis Set: AUG-CC-PVTZ
    Blend: AUG-CC-PVTZ
  Basis Set: (AUG-CC-PVTZ AUX)
    Blend: AUG-CC-PVTZ-JKFIT

    Orbital Energies [Eh]
    ---------------------

    Doubly Occupied:

       1A    -11.238132     2A    -11.234572     3A    -11.233206
       4A    -11.229281     5A    -11.229135     6A    -11.227881
       7A    -11.227810     8A    -11.224804     9A    -11.224152
      10A    -11.222355    11A     -1.163370    12A     -1.129989
      13A     -1.039078    14A     -1.006677    15A     -0.936481
      16A     -0.833892    17A     -0.831765    18A     -0.808711
      19A     -0.765843    20A     -0.687105    21A     -0.652602
      22A     -0.633667    23A     -0.626407    24A     -0.599529
      25A     -0.576872    26A     -0.572730    27A     -0.538251
      28A     -0.527851    29A     -0.512440    30A     -0.491676
      31A     -0.483053    32A     -0.474626    33A     -0.424310
      34A     -0.412960    35A     -0.331423    36A     -0.312448

  @DF-RHF Final Energy:  -385.76819623031156

   => Energetics <=

    Nuclear Repulsion Energy =            482.5224839536372770
    One-Electron Energy =               -1477.2511892811778580
    Two-Electron Energy =                 608.9605090972290782
    Total Energy =                       -385.7681962303115597
  Basis Set: (AUG-CC-PVTZ AUX)
    Blend: AUG-CC-PVTZ-RI
    Molecular point group: c1

    Geometry (in Angstrom), charge = 0, multiplicity = 1:

       Center              X                  Y                   Z               Mass
    ------------   -----------------  -----------------  -----------------  -----------------
         C           -2.125048575435    -0.000001016714    -0.513319023523    12.000000000000
         C           -3.028344575435     0.752241983286     0.429141976477    12.000000000000
         C           -3.028344575435    -0.752240016714     0.429144976477    12.000000000000
         C           -0.648399575435    -0.000001016714    -0.295176023523    12.000000000000
         C            0.063732424565     1.202989983286    -0.205891023523    12.000000000000
         C            0.063732424565    -1.202991016714    -0.205891023523    12.000000000000
         C            1.447725424565     1.201325983286    -0.031917023523    12.000000000000
         C            1.447726424565    -1.201326016714    -0.031917023523    12.000000000000
         C            2.171842324565     0.000000083286     0.004194076477    12.000000000000
         C            3.651658424565     0.000000983286     0.288220976477    12.000000000000
         H           -2.435932575435    -0.000004016714    -1.557672023523     1.007825032230
         H           -3.889328575435     1.269924983286     0.018393976477     1.007825032230
         H           -2.558329575435     1.253456983286     1.269366976477     1.007825032230
         H           -2.558329575435    -1.253453016714     1.269371976477     1.007825032230
         H           -3.889329575435    -1.269924016714     0.018399976477     1.007825032230
         H           -0.475312575435     2.146424983286    -0.274451023523     1.007825032230
         H           -0.475311575435    -2.146427016714    -0.274451023523     1.007825032230
         H            1.982274424565     2.148234983286     0.033401976477     1.007825032230
         H            1.982275424565    -2.148235016714     0.033401976477     1.007825032230
         H            4.118631424565    -0.885350016714    -0.152876023523     1.007825032230
         H            4.118631424565     0.885351983286    -0.152875023523     1.007825032230
         H            3.886216424565    -0.000000016714     1.358467976477     1.007825032230

  Basis Set: AUG-CC-PVTZ
    Blend: AUG-CC-PVTZ
  Basis Set: (AUG-CC-PVTZ AUX)
    Blend: AUG-CC-PVTZ-JKFIT
	 Reference Energy          =    -385.7681962303115597 [Eh]
	 Singles Energy            =      -0.0000000000000000 [Eh]
	 Same-Spin Energy          =      -0.4317855507713989 [Eh]
	 Opposite-Spin Energy      =      -1.4116915156265133 [Eh]
	 Correlation Energy        =      -1.8434770663979121 [Eh]
	 Total Energy              =    -387.6116732967094549 [Eh]

	 ================> DF-SCS-MP2 Energies <==================
	-----------------------------------------------------------
	 SCS Same-Spin Scale       =       0.3333333333333333 [-]
	 SCS Opposite-Spin Scale   =       1.2000000000000000 [-]
	 SCS Same-Spin Energy      =      -0.1439285169237996 [Eh]
	 SCS Opposite-Spin Energy  =      -1.6940298187518159 [Eh]
	 SCS Correlation Energy    =      -1.8379583356756155 [Eh]
	 SCS Total Energy          =    -387.6061545659871967 [Eh]
	-----------------------------------------------------------

  Dipole Moment: [D]
     X:     0.0867      Y:    -0.0000      Z:     0.0513     Total:     0.1008

*** Psi4 exiting successfully. Buy a developer a beer!
