                               Psi4 1.4a3.dev225

  ==> Input File <==

--------------------------------------------------------------------------
#psi4
#
memory 32 gb

molecule  {
0 1
  C       -2.1229620    -0.0000010    -0.5285820
  C       -2.9788688     0.7513256     0.4364867
  C       -3.0262580    -0.7522400     0.4138820
  C       -0.6463130    -0.0000010    -0.3104390
  C        0.0658190     1.2029900    -0.2211540
  C        0.0658190    -1.2029910    -0.2211540
  C        1.4498120     1.2013260    -0.0471800
  C        1.4498130    -1.2013260    -0.0471800
  C        2.1649180     0.0000000     0.0407490
  C        3.6537450     0.0000010     0.2729580
  H       -2.4338460    -0.0000040    -1.5729350
  H       -3.8872420     1.2699250     0.0031310
  H       -2.5562430     1.2534570     1.2541040
  H       -2.5562430    -1.2534530     1.2541090
  H       -3.8872430    -1.2699240     0.0031370
  H       -0.4732260     2.1464250    -0.2897140
  H       -0.4732250    -2.1464270    -0.2897140
  H        1.9843610     2.1482350     0.0181390
  H        1.9843620    -2.1482350     0.0181390
  H        4.1207180    -0.8853500    -0.1681390
  H        4.1207180     0.8853520    -0.1681380
  H        3.8883030     0.0000000     1.3432050
units angstrom
no_reorient  #important for SAPT in psi4, default
symmetry c1  #important for SAPT in psi4, default
}

set PROPERTIES_ORIGIN ["COM"]
properties('MP2/aug-cc-pvtz', properties = ['dipole'])
--------------------------------------------------------------------------

    Molecular point group: c1
  Charge       = 0
  Multiplicity = 1
  Basis Set: AUG-CC-PVTZ
    Blend: AUG-CC-PVTZ
  Basis Set: (AUG-CC-PVTZ AUX)
    Blend: AUG-CC-PVTZ-JKFIT

    Orbital Energies [Eh]
    ---------------------

    Doubly Occupied:

       1A    -11.237841     2A    -11.233726     3A    -11.232921
       4A    -11.229141     5A    -11.228756     6A    -11.227491
       7A    -11.227250     8A    -11.224794     9A    -11.223761
      10A    -11.222427    11A     -1.164971    12A     -1.131344
      13A     -1.038945    14A     -1.006699    15A     -0.936408
      16A     -0.834604    17A     -0.831806    18A     -0.808672
      19A     -0.766654    20A     -0.688422    21A     -0.649515
      22A     -0.633603    23A     -0.627184    24A     -0.602199
      25A     -0.576977    26A     -0.573091    27A     -0.538377
      28A     -0.528158    29A     -0.510890    30A     -0.488791
      31A     -0.483726    32A     -0.475936    33A     -0.424016
      34A     -0.414280    35A     -0.331469    36A     -0.312191

  @DF-RHF Final Energy:  -385.76630357118199

   => Energetics <=

    Nuclear Repulsion Energy =            483.1086363434845339
    One-Electron Energy =               -1478.4158092639015649
    Two-Electron Energy =                 609.5408693492350949
    Total Energy =                       -385.7663035711819930
  Basis Set: (AUG-CC-PVTZ AUX)
    Blend: AUG-CC-PVTZ-RI
    Molecular point group: c1

    Geometry (in Angstrom), charge = 0, multiplicity = 1:

       Center              X                  Y                   Z               Mass
    ------------   -----------------  -----------------  -----------------  -----------------
         C           -2.128535031650     0.000082242240    -0.520080177500    12.000000000000
         C           -2.984441831650     0.751408842240     0.444988522500    12.000000000000
         C           -3.031831031650    -0.752156757760     0.422383822500    12.000000000000
         C           -0.651886031650     0.000082242240    -0.301937177500    12.000000000000
         C            0.060245968350     1.203073242240    -0.212652177500    12.000000000000
         C            0.060245968350    -1.202907757760    -0.212652177500    12.000000000000
         C            1.444238968350     1.201409242240    -0.038678177500    12.000000000000
         C            1.444239968350    -1.201242757760    -0.038678177500    12.000000000000
         C            2.159344968350     0.000083242240     0.049250822500    12.000000000000
         C            3.648171968350     0.000084242240     0.281459822500    12.000000000000
         H           -2.439419031650     0.000079242240    -1.564433177500     1.007825032230
         H           -3.892815031650     1.270008242240     0.011632822500     1.007825032230
         H           -2.561816031650     1.253540242240     1.262605822500     1.007825032230
         H           -2.561816031650    -1.253369757760     1.262610822500     1.007825032230
         H           -3.892816031650    -1.269840757760     0.011638822500     1.007825032230
         H           -0.478799031650     2.146508242240    -0.281212177500     1.007825032230
         H           -0.478798031650    -2.146343757760    -0.281212177500     1.007825032230
         H            1.978787968350     2.148318242240     0.026640822500     1.007825032230
         H            1.978788968350    -2.148151757760     0.026640822500     1.007825032230
         H            4.115144968350    -0.885266757760    -0.159637177500     1.007825032230
         H            4.115144968350     0.885435242240    -0.159636177500     1.007825032230
         H            3.882729968350     0.000083242240     1.351706822500     1.007825032230

  Basis Set: AUG-CC-PVTZ
    Blend: AUG-CC-PVTZ
  Basis Set: (AUG-CC-PVTZ AUX)
    Blend: AUG-CC-PVTZ-JKFIT
	 Reference Energy          =    -385.7663035711819930 [Eh]
	 Singles Energy            =      -0.0000000000000000 [Eh]
	 Same-Spin Energy          =      -0.4317968452611923 [Eh]
	 Opposite-Spin Energy      =      -1.4116335296531037 [Eh]
	 Correlation Energy        =      -1.8434303749142960 [Eh]
	 Total Energy              =    -387.6097339460962985 [Eh]

	 ================> DF-SCS-MP2 Energies <==================
	-----------------------------------------------------------
	 SCS Same-Spin Scale       =       0.3333333333333333 [-]
	 SCS Opposite-Spin Scale   =       1.2000000000000000 [-]
	 SCS Same-Spin Energy      =      -0.1439322817537307 [Eh]
	 SCS Opposite-Spin Energy  =      -1.6939602355837244 [Eh]
	 SCS Correlation Energy    =      -1.8378925173374552 [Eh]
	 SCS Total Energy          =    -387.6041960885194726 [Eh]
	-----------------------------------------------------------

  Dipole Moment: [D]
     X:     0.1249      Y:    -0.0089      Z:     0.0386     Total:     0.1311

*** Psi4 exiting successfully. Buy a developer a beer!
