                               Psi4 1.4a3.dev225

  ==> Input File <==

--------------------------------------------------------------------------
#psi4
#
memory 32 gb

molecule  {
0 1
  C       -2.1229620    -0.0000010    -0.5285820
  C       -3.0262580     0.7522420     0.4138790
  C       -3.0262580    -0.7522400     0.4138820
  C       -0.6463130    -0.0000010    -0.3104390
  C        0.0658190     1.2029900    -0.2211540
  C        0.0658190    -1.2029910    -0.2211540
  C        1.4498120     1.2013260    -0.0471800
  C        1.4498130    -1.2013260    -0.0471800
  C        2.1649180     0.0000000     0.0407490
  C        3.6537450     0.0000010     0.2729580
  H       -2.4338460    -0.0000040    -1.5729350
  H       -3.8872420     1.2699250     0.0031310
  H       -2.5562430     1.2534570     1.2541040
  H       -2.5562430    -1.2534530     1.2541090
  H       -3.8475794    -1.2460755     0.0220591
  H       -0.4732260     2.1464250    -0.2897140
  H       -0.4732250    -2.1464270    -0.2897140
  H        1.9843610     2.1482350     0.0181390
  H        1.9843620    -2.1482350     0.0181390
  H        4.1207180    -0.8853500    -0.1681390
  H        4.1207180     0.8853520    -0.1681380
  H        3.8883030     0.0000000     1.3432050
units angstrom
no_reorient  #important for SAPT in psi4, default
symmetry c1  #important for SAPT in psi4, default
}

set PROPERTIES_ORIGIN ["COM"]
properties('MP2/aug-cc-pvtz', properties = ['dipole'])
--------------------------------------------------------------------------

    Molecular point group: c1
  Charge       = 0
  Multiplicity = 1
  Basis Set: AUG-CC-PVTZ
    Blend: AUG-CC-PVTZ
  Basis Set: (AUG-CC-PVTZ AUX)
    Blend: AUG-CC-PVTZ-JKFIT

    Orbital Energies [Eh]
    ---------------------

    Doubly Occupied:

       1A    -11.237772     2A    -11.233907     3A    -11.232679
       4A    -11.228994     5A    -11.228831     6A    -11.227309
       7A    -11.227236     8A    -11.224001     9A    -11.222353
      10A    -11.218390    11A     -1.163407    12A     -1.130410
      13A     -1.039173    14A     -1.006586    15A     -0.936757
      16A     -0.836649    17A     -0.831955    18A     -0.811285
      19A     -0.765896    20A     -0.687551    21A     -0.656420
      22A     -0.633720    23A     -0.626508    24A     -0.599140
      25A     -0.576901    26A     -0.573059    27A     -0.538471
      28A     -0.529269    29A     -0.515750    30A     -0.489789
      31A     -0.483566    32A     -0.476220    33A     -0.424065
      34A     -0.412907    35A     -0.331349    36A     -0.312097

  @DF-RHF Final Energy:  -385.76859801542838

   => Energetics <=

    Nuclear Repulsion Energy =            482.8714629650622214
    One-Electron Energy =               -1477.9393780921320740
    Two-Electron Energy =                 609.2993171116414715
    Total Energy =                       -385.7685980154284380
  Basis Set: (AUG-CC-PVTZ AUX)
    Blend: AUG-CC-PVTZ-RI
    Molecular point group: c1

    Geometry (in Angstrom), charge = 0, multiplicity = 1:

       Center              X                  Y                   Z               Mass
    ------------   -----------------  -----------------  -----------------  -----------------
         C           -2.124532602851    -0.000182962400    -0.518170761295    12.000000000000
         C           -3.027828602851     0.752060037600     0.424290238705    12.000000000000
         C           -3.027828602851    -0.752421962400     0.424293238705    12.000000000000
         C           -0.647883602851    -0.000182962400    -0.300027761295    12.000000000000
         C            0.064248397149     1.202808037600    -0.210742761295    12.000000000000
         C            0.064248397149    -1.203172962400    -0.210742761295    12.000000000000
         C            1.448241397149     1.201144037600    -0.036768761295    12.000000000000
         C            1.448242397149    -1.201507962400    -0.036768761295    12.000000000000
         C            2.163347397149    -0.000181962400     0.051160238705    12.000000000000
         C            3.652174397149    -0.000180962400     0.283369238705    12.000000000000
         H           -2.435416602851    -0.000185962400    -1.562523761295     1.007825032230
         H           -3.888812602851     1.269743037600     0.013542238705     1.007825032230
         H           -2.557813602851     1.253275037600     1.264515238705     1.007825032230
         H           -2.557813602851    -1.253634962400     1.264520238705     1.007825032230
         H           -3.849150002851    -1.246257462400     0.032470338705     1.007825032230
         H           -0.474796602851     2.146243037600    -0.279302761295     1.007825032230
         H           -0.474795602851    -2.146608962400    -0.279302761295     1.007825032230
         H            1.982790397149     2.148053037600     0.028550238705     1.007825032230
         H            1.982791397149    -2.148416962400     0.028550238705     1.007825032230
         H            4.119147397149    -0.885531962400    -0.157727761295     1.007825032230
         H            4.119147397149     0.885170037600    -0.157726761295     1.007825032230
         H            3.886732397149    -0.000181962400     1.353616238705     1.007825032230

  Basis Set: AUG-CC-PVTZ
    Blend: AUG-CC-PVTZ
  Basis Set: (AUG-CC-PVTZ AUX)
    Blend: AUG-CC-PVTZ-JKFIT
	 Reference Energy          =    -385.7685980154283811 [Eh]
	 Singles Energy            =      -0.0000000000000000 [Eh]
	 Same-Spin Energy          =      -0.4317059510745204 [Eh]
	 Opposite-Spin Energy      =      -1.4112455797840402 [Eh]
	 Correlation Energy        =      -1.8429515308585607 [Eh]
	 Total Energy              =    -387.6115495462869376 [Eh]

	 ================> DF-SCS-MP2 Energies <==================
	-----------------------------------------------------------
	 SCS Same-Spin Scale       =       0.3333333333333333 [-]
	 SCS Opposite-Spin Scale   =       1.2000000000000000 [-]
	 SCS Same-Spin Energy      =      -0.1439019836915068 [Eh]
	 SCS Opposite-Spin Energy  =      -1.6934946957408481 [Eh]
	 SCS Correlation Energy    =      -1.8373966794323549 [Eh]
	 SCS Total Energy          =    -387.6059946948607262 [Eh]
	-----------------------------------------------------------

  Dipole Moment: [D]
     X:     0.0963      Y:    -0.0140      Z:     0.0292     Total:     0.1016

*** Psi4 exiting successfully. Buy a developer a beer!
