                               Psi4 1.4a3.dev225

  ==> Input File <==

--------------------------------------------------------------------------
#psi4
#
memory 32 gb

molecule  {
0 1
  C       -2.1229620    -0.0000010    -0.5285820
  C       -3.0262580     0.7522420     0.4138790
  C       -3.0262580    -0.7522400     0.4138820
  C       -0.5176487    -0.0684317    -0.2942521
  C        0.0658190     1.2029900    -0.2211540
  C        0.0658190    -1.2029910    -0.2211540
  C        1.4498120     1.2013260    -0.0471800
  C        1.4498130    -1.2013260    -0.0471800
  C        2.1649180     0.0000000     0.0407490
  C        3.6537450     0.0000010     0.2729580
  H       -2.4338460    -0.0000040    -1.5729350
  H       -3.8872420     1.2699250     0.0031310
  H       -2.5562430     1.2534570     1.2541040
  H       -2.5562430    -1.2534530     1.2541090
  H       -3.8872430    -1.2699240     0.0031370
  H       -0.4732260     2.1464250    -0.2897140
  H       -0.4732250    -2.1464270    -0.2897140
  H        1.9843610     2.1482350     0.0181390
  H        1.9843620    -2.1482350     0.0181390
  H        4.1207180    -0.8853500    -0.1681390
  H        4.1207180     0.8853520    -0.1681380
  H        3.8883030     0.0000000     1.3432050
units angstrom
no_reorient  #important for SAPT in psi4, default
symmetry c1  #important for SAPT in psi4, default
}

set PROPERTIES_ORIGIN ["COM"]
properties('MP2/aug-cc-pvtz', properties = ['dipole'])
--------------------------------------------------------------------------

    Molecular point group: c1
  Charge       = 0
  Multiplicity = 1
  Basis Set: AUG-CC-PVTZ
    Blend: AUG-CC-PVTZ
  Basis Set: (AUG-CC-PVTZ AUX)
    Blend: AUG-CC-PVTZ-JKFIT

    Orbital Energies [Eh]
    ---------------------

    Doubly Occupied:

       1A    -11.236589     2A    -11.234588     3A    -11.230656
       4A    -11.228902     5A    -11.228397     6A    -11.227519
       7A    -11.222567     8A    -11.222350     9A    -11.220064
      10A    -11.214365    11A     -1.169003    12A     -1.128217
      13A     -1.047583    14A     -1.013466    15A     -0.931164
      16A     -0.837297    17A     -0.815735    18A     -0.811088
      19A     -0.768741    20A     -0.683957    21A     -0.650169
      22A     -0.639477    23A     -0.624056    24A     -0.596119
      25A     -0.587833    26A     -0.573703    27A     -0.539027
      28A     -0.523303    29A     -0.509741    30A     -0.499136
      31A     -0.493286    32A     -0.451488    33A     -0.416796
      34A     -0.408778    35A     -0.339645    36A     -0.317930

  @DF-RHF Final Energy:  -385.74483015873028

   => Energetics <=

    Nuclear Repulsion Energy =            483.4101390842774322
    One-Electron Energy =               -1479.0244657823964189
    Two-Electron Energy =                 609.8694965393885923
    Total Energy =                       -385.7448301587303376
  Basis Set: (AUG-CC-PVTZ AUX)
    Blend: AUG-CC-PVTZ-RI
    Molecular point group: c1

    Geometry (in Angstrom), charge = 0, multiplicity = 1:

       Center              X                  Y                   Z               Mass
    ------------   -----------------  -----------------  -----------------  -----------------
         C           -2.135918424805     0.006215542851    -0.519496883345    12.000000000000
         C           -3.039214424805     0.758458542851     0.422964116655    12.000000000000
         C           -3.039214424805    -0.746023457149     0.422967116655    12.000000000000
         C           -0.530605124805    -0.062215157149    -0.285166983345    12.000000000000
         C            0.052862575195     1.209206542851    -0.212068883345    12.000000000000
         C            0.052862575195    -1.196774457149    -0.212068883345    12.000000000000
         C            1.436855575195     1.207542542851    -0.038094883345    12.000000000000
         C            1.436856575195    -1.195109457149    -0.038094883345    12.000000000000
         C            2.151961575195     0.006216542851     0.049834116655    12.000000000000
         C            3.640788575195     0.006217542851     0.282043116655    12.000000000000
         H           -2.446802424805     0.006212542851    -1.563849883345     1.007825032230
         H           -3.900198424805     1.276141542851     0.012216116655     1.007825032230
         H           -2.569199424805     1.259673542851     1.263189116655     1.007825032230
         H           -2.569199424805    -1.247236457149     1.263194116655     1.007825032230
         H           -3.900199424805    -1.263707457149     0.012222116655     1.007825032230
         H           -0.486182424805     2.152641542851    -0.280628883345     1.007825032230
         H           -0.486181424805    -2.140210457149    -0.280628883345     1.007825032230
         H            1.971404575195     2.154451542851     0.027224116655     1.007825032230
         H            1.971405575195    -2.142018457149     0.027224116655     1.007825032230
         H            4.107761575195    -0.879133457149    -0.159053883345     1.007825032230
         H            4.107761575195     0.891568542851    -0.159052883345     1.007825032230
         H            3.875346575195     0.006216542851     1.352290116655     1.007825032230

  Basis Set: AUG-CC-PVTZ
    Blend: AUG-CC-PVTZ
  Basis Set: (AUG-CC-PVTZ AUX)
    Blend: AUG-CC-PVTZ-JKFIT
	 Reference Energy          =    -385.7448301587302808 [Eh]
	 Singles Energy            =      -0.0000000000000000 [Eh]
	 Same-Spin Energy          =      -0.4311062493057545 [Eh]
	 Opposite-Spin Energy      =      -1.4111195747356535 [Eh]
	 Correlation Energy        =      -1.8422258240414080 [Eh]
	 Total Energy              =    -387.5870559827716875 [Eh]

	 ================> DF-SCS-MP2 Energies <==================
	-----------------------------------------------------------
	 SCS Same-Spin Scale       =       0.3333333333333333 [-]
	 SCS Opposite-Spin Scale   =       1.2000000000000000 [-]
	 SCS Same-Spin Energy      =      -0.1437020831019181 [Eh]
	 SCS Opposite-Spin Energy  =      -1.6933434896827841 [Eh]
	 SCS Correlation Energy    =      -1.8370455727847024 [Eh]
	 SCS Total Energy          =    -387.5818757315149696 [Eh]
	-----------------------------------------------------------

  Dipole Moment: [D]
     X:     0.2985      Y:     0.0188      Z:     0.0209     Total:     0.2998

*** Psi4 exiting successfully. Buy a developer a beer!
