                               Psi4 1.4a3.dev225

  ==> Input File <==

--------------------------------------------------------------------------
#psi4
#
memory 32 gb

molecule  {
0 1
  C       -2.1229620    -0.0000010    -0.5285820
  C       -3.0262580     0.7522420     0.4138790
  C       -3.0262580    -0.7522400     0.4138820
  C       -0.6463130    -0.0000010    -0.3104390
  C        0.0658190     1.2029900    -0.2211540
  C        0.0658190    -1.2029910    -0.2211540
  C        1.4498120     1.2013260    -0.0471800
  C        1.4498130    -1.2013260    -0.0471800
  C        2.1649180     0.0000000     0.0407490
  C        3.6537450     0.0000010     0.2729580
  H       -2.4338460    -0.0000040    -1.5729350
  H       -3.8872420     1.2699250     0.0031310
  H       -2.5562430     1.2534570     1.2541040
  H       -2.5562430    -1.2534530     1.2541090
  H       -4.0458975    -1.3653181    -0.0725513
  H       -0.4732260     2.1464250    -0.2897140
  H       -0.4732250    -2.1464270    -0.2897140
  H        1.9843610     2.1482350     0.0181390
  H        1.9843620    -2.1482350     0.0181390
  H        4.1207180    -0.8853500    -0.1681390
  H        4.1207180     0.8853520    -0.1681380
  H        3.8883030     0.0000000     1.3432050
units angstrom
no_reorient  #important for SAPT in psi4, default
symmetry c1  #important for SAPT in psi4, default
}

set PROPERTIES_ORIGIN ["COM"]
properties('MP2/aug-cc-pvtz', properties = ['dipole'])
--------------------------------------------------------------------------

    Molecular point group: c1
  Charge       = 0
  Multiplicity = 1
  Basis Set: AUG-CC-PVTZ
    Blend: AUG-CC-PVTZ
  Basis Set: (AUG-CC-PVTZ AUX)
    Blend: AUG-CC-PVTZ-JKFIT

    Orbital Energies [Eh]
    ---------------------

    Doubly Occupied:

       1A    -11.246250     2A    -11.238797     3A    -11.235515
       4A    -11.234828     5A    -11.230208     6A    -11.229975
       7A    -11.228361     8A    -11.228231     9A    -11.226536
      10A    -11.223059    11A     -1.164200    12A     -1.130404
      13A     -1.039606    14A     -1.007646    15A     -0.936981
      16A     -0.833881    17A     -0.828696    18A     -0.800228
      19A     -0.765912    20A     -0.686589    21A     -0.640940
      22A     -0.633568    23A     -0.624959    24A     -0.600752
      25A     -0.577873    26A     -0.573700    27A     -0.538883
      28A     -0.527855    29A     -0.497667    30A     -0.487350
      31A     -0.484136    32A     -0.474683    33A     -0.425752
      34A     -0.411813    35A     -0.332368    36A     -0.313291

  @DF-RHF Final Energy:  -385.74818057951728

   => Energetics <=

    Nuclear Repulsion Energy =            481.7462180705940114
    One-Electron Energy =               -1475.6658139689159270
    Two-Electron Energy =                 608.1714153188045202
    Total Energy =                       -385.7481805795173386
  Basis Set: (AUG-CC-PVTZ AUX)
    Blend: AUG-CC-PVTZ-RI
    Molecular point group: c1

    Geometry (in Angstrom), charge = 0, multiplicity = 1:

       Center              X                  Y                   Z               Mass
    ------------   -----------------  -----------------  -----------------  -----------------
         C           -2.123019512959     0.000726812214    -0.517448920778    12.000000000000
         C           -3.026315512959     0.752969812214     0.425012079222    12.000000000000
         C           -3.026315512959    -0.751512187786     0.425015079222    12.000000000000
         C           -0.646370512959     0.000726812214    -0.299305920778    12.000000000000
         C            0.065761487041     1.203717812214    -0.210020920778    12.000000000000
         C            0.065761487041    -1.202263187786    -0.210020920778    12.000000000000
         C            1.449754487041     1.202053812214    -0.036046920778    12.000000000000
         C            1.449755487041    -1.200598187786    -0.036046920778    12.000000000000
         C            2.164860487041     0.000727812214     0.051882079222    12.000000000000
         C            3.653687487041     0.000728812214     0.284091079222    12.000000000000
         H           -2.433903512959     0.000723812214    -1.561801920778     1.007825032230
         H           -3.887299512959     1.270652812214     0.014264079222     1.007825032230
         H           -2.556300512959     1.254184812214     1.265237079222     1.007825032230
         H           -2.556300512959    -1.252725187786     1.265242079222     1.007825032230
         H           -4.045955012959    -1.364590287786    -0.061418220778     1.007825032230
         H           -0.473283512959     2.147152812214    -0.278580920778     1.007825032230
         H           -0.473282512959    -2.145699187786    -0.278580920778     1.007825032230
         H            1.984303487041     2.148962812214     0.029272079222     1.007825032230
         H            1.984304487041    -2.147507187786     0.029272079222     1.007825032230
         H            4.120660487041    -0.884622187786    -0.157005920778     1.007825032230
         H            4.120660487041     0.886079812214    -0.157004920778     1.007825032230
         H            3.888245487041     0.000727812214     1.354338079222     1.007825032230

  Basis Set: AUG-CC-PVTZ
    Blend: AUG-CC-PVTZ
  Basis Set: (AUG-CC-PVTZ AUX)
    Blend: AUG-CC-PVTZ-JKFIT
	 Reference Energy          =    -385.7481805795172818 [Eh]
	 Singles Energy            =      -0.0000000000000000 [Eh]
	 Same-Spin Energy          =      -0.4317842835177975 [Eh]
	 Opposite-Spin Energy      =      -1.4131724620030186 [Eh]
	 Correlation Energy        =      -1.8449567455208160 [Eh]
	 Total Energy              =    -387.5931373250380716 [Eh]

	 ================> DF-SCS-MP2 Energies <==================
	-----------------------------------------------------------
	 SCS Same-Spin Scale       =       0.3333333333333333 [-]
	 SCS Opposite-Spin Scale   =       1.2000000000000000 [-]
	 SCS Same-Spin Energy      =      -0.1439280945059325 [Eh]
	 SCS Opposite-Spin Energy  =      -1.6958069544036223 [Eh]
	 SCS Correlation Energy    =      -1.8397350489095547 [Eh]
	 SCS Total Energy          =    -387.5879156284268561 [Eh]
	-----------------------------------------------------------

  Dipole Moment: [D]
     X:     0.2364      Y:     0.0859      Z:     0.0370     Total:     0.2543

*** Psi4 exiting successfully. Buy a developer a beer!
