                               Psi4 1.4a3.dev225

  ==> Input File <==

--------------------------------------------------------------------------
#psi4
#
memory 32 gb

molecule  {
0 1
  C       -2.1229620    -0.0000010    -0.5285820
  C       -3.0262580     0.7522420     0.4138790
  C       -3.0262580    -0.7522400     0.4138820
  C       -0.6463130    -0.0000010    -0.3104390
  C        0.0658190     1.2029900    -0.2211540
  C        0.0658190    -1.2029910    -0.2211540
  C        1.4498120     1.2013260    -0.0471800
  C        1.4498130    -1.2013260    -0.0471800
  C        2.1649180     0.0000000     0.0407490
  C        3.6537450     0.0000010     0.2729580
  H       -2.4338460    -0.0000040    -1.5729350
  H       -3.8872420     1.2699250     0.0031310
  H       -2.5562430     1.2534570     1.2541040
  H       -2.5562430    -1.2534530     1.2541090
  H       -3.9665702    -1.3176210    -0.0347072
  H       -0.4732260     2.1464250    -0.2897140
  H       -0.4732250    -2.1464270    -0.2897140
  H        1.9843610     2.1482350     0.0181390
  H        1.9843620    -2.1482350     0.0181390
  H        4.1207180    -0.8853500    -0.1681390
  H        4.1207180     0.8853520    -0.1681380
  H        3.8883030     0.0000000     1.3432050
units angstrom
no_reorient  #important for SAPT in psi4, default
symmetry c1  #important for SAPT in psi4, default
}

set PROPERTIES_ORIGIN ["COM"]
properties('MP2/aug-cc-pvtz', properties = ['dipole'])
--------------------------------------------------------------------------

    Molecular point group: c1
  Charge       = 0
  Multiplicity = 1
  Basis Set: AUG-CC-PVTZ
    Blend: AUG-CC-PVTZ
  Basis Set: (AUG-CC-PVTZ AUX)
    Blend: AUG-CC-PVTZ-JKFIT

    Orbital Energies [Eh]
    ---------------------

    Doubly Occupied:

       1A    -11.238301     2A    -11.235778     3A    -11.234661
       4A    -11.233753     5A    -11.229607     6A    -11.229431
       7A    -11.227843     8A    -11.227757     9A    -11.225263
      10A    -11.222716    11A     -1.163606    12A     -1.130043
      13A     -1.039246    14A     -1.007130    15A     -0.936690
      16A     -0.833255    17A     -0.829726    18A     -0.803882
      19A     -0.765738    20A     -0.686496    21A     -0.645537
      22A     -0.633747    23A     -0.625915    24A     -0.599982
      25A     -0.577394    26A     -0.573378    27A     -0.538573
      28A     -0.527780    29A     -0.504221    30A     -0.489321
      31A     -0.484002    32A     -0.475912    33A     -0.424844
      34A     -0.412492    35A     -0.331874    36A     -0.312704

  @DF-RHF Final Energy:  -385.76252579662452

   => Energetics <=

    Nuclear Repulsion Energy =            482.1595015970560780
    One-Electron Energy =               -1476.5268603664933380
    Two-Electron Energy =                 608.6048329728128010
    Total Energy =                       -385.7625257966244590
  Basis Set: (AUG-CC-PVTZ AUX)
    Blend: AUG-CC-PVTZ-RI
    Molecular point group: c1

    Geometry (in Angstrom), charge = 0, multiplicity = 1:

       Center              X                  Y                   Z               Mass
    ------------   -----------------  -----------------  -----------------  -----------------
         C           -2.123624749373     0.000362901911    -0.517737656527    12.000000000000
         C           -3.026920749373     0.752605901911     0.424723343473    12.000000000000
         C           -3.026920749373    -0.751876098089     0.424726343473    12.000000000000
         C           -0.646975749373     0.000362901911    -0.299594656527    12.000000000000
         C            0.065156250627     1.203353901911    -0.210309656527    12.000000000000
         C            0.065156250627    -1.202627098089    -0.210309656527    12.000000000000
         C            1.449149250627     1.201689901911    -0.036335656527    12.000000000000
         C            1.449150250627    -1.200962098089    -0.036335656527    12.000000000000
         C            2.164255250627     0.000363901911     0.051593343473    12.000000000000
         C            3.653082250627     0.000364901911     0.283802343473    12.000000000000
         H           -2.434508749373     0.000359901911    -1.562090656527     1.007825032230
         H           -3.887904749373     1.270288901911     0.013975343473     1.007825032230
         H           -2.556905749373     1.253820901911     1.264948343473     1.007825032230
         H           -2.556905749373    -1.253089098089     1.264953343473     1.007825032230
         H           -3.967232949373    -1.317257098089    -0.023862856527     1.007825032230
         H           -0.473888749373     2.146788901911    -0.278869656527     1.007825032230
         H           -0.473887749373    -2.146063098089    -0.278869656527     1.007825032230
         H            1.983698250627     2.148598901911     0.028983343473     1.007825032230
         H            1.983699250627    -2.147871098089     0.028983343473     1.007825032230
         H            4.120055250627    -0.884986098089    -0.157294656527     1.007825032230
         H            4.120055250627     0.885715901911    -0.157293656527     1.007825032230
         H            3.887640250627     0.000363901911     1.354049343473     1.007825032230

  Basis Set: AUG-CC-PVTZ
    Blend: AUG-CC-PVTZ
  Basis Set: (AUG-CC-PVTZ AUX)
    Blend: AUG-CC-PVTZ-JKFIT
	 Reference Energy          =    -385.7625257966245158 [Eh]
	 Singles Energy            =      -0.0000000000000000 [Eh]
	 Same-Spin Energy          =      -0.4317450061970308 [Eh]
	 Opposite-Spin Energy      =      -1.4122135872693535 [Eh]
	 Correlation Energy        =      -1.8439585934663842 [Eh]
	 Total Energy              =    -387.6064843900908841 [Eh]

	 ================> DF-SCS-MP2 Energies <==================
	-----------------------------------------------------------
	 SCS Same-Spin Scale       =       0.3333333333333333 [-]
	 SCS Opposite-Spin Scale   =       1.2000000000000000 [-]
	 SCS Same-Spin Energy      =      -0.1439150020656769 [Eh]
	 SCS Opposite-Spin Energy  =      -1.6946563047232241 [Eh]
	 SCS Correlation Energy    =      -1.8385713067889011 [Eh]
	 SCS Total Energy          =    -387.6010971034133945 [Eh]
	-----------------------------------------------------------

  Dipole Moment: [D]
     X:     0.1673      Y:     0.0371      Z:     0.0316     Total:     0.1742

*** Psi4 exiting successfully. Buy a developer a beer!
