                               Psi4 1.4a3.dev225

  ==> Input File <==

--------------------------------------------------------------------------
#psi4
#
memory 32 gb

molecule  {
0 1
  C       -2.1229620    -0.0000010    -0.5285820
  C       -3.0262580     0.7522420     0.4138790
  C       -3.0262580    -0.7522400     0.4138820
  C       -0.6463130    -0.0000010    -0.3104390
  C        0.0658190     1.2029900    -0.2211540
  C        0.0658190    -1.2029910    -0.2211540
  C        1.4498120     1.2013260    -0.0471800
  C        1.4498130    -1.2013260    -0.0471800
  C        2.1649180     0.0000000     0.0407490
  C        3.6537450     0.0000010     0.2729580
  H       -2.4338460    -0.0000040    -1.5729350
  H       -3.8872420     1.2699250     0.0031310
  H       -2.5562430     1.2534570     1.2541040
  H       -2.5562430    -1.2534530     1.2541090
  H       -3.8872430    -1.2699240     0.0031370
  H       -0.4732260     2.1464250    -0.2897140
  H       -0.4732250    -2.1464270    -0.2897140
  H        1.9843610     2.1482350     0.0181390
  H        1.9598264    -2.1047722     0.0151409
  H        4.1207180    -0.8853500    -0.1681390
  H        4.1207180     0.8853520    -0.1681380
  H        3.8883030     0.0000000     1.3432050
units angstrom
no_reorient  #important for SAPT in psi4, default
symmetry c1  #important for SAPT in psi4, default
}

set PROPERTIES_ORIGIN ["COM"]
properties('MP2/aug-cc-pvtz', properties = ['dipole'])
--------------------------------------------------------------------------

    Molecular point group: c1
  Charge       = 0
  Multiplicity = 1
  Basis Set: AUG-CC-PVTZ
    Blend: AUG-CC-PVTZ
  Basis Set: (AUG-CC-PVTZ AUX)
    Blend: AUG-CC-PVTZ-JKFIT

    Orbital Energies [Eh]
    ---------------------

    Doubly Occupied:

       1A    -11.237415     2A    -11.233776     3A    -11.232776
       4A    -11.228869     5A    -11.228402     6A    -11.227055
       7A    -11.224514     8A    -11.223862     9A    -11.222496
      10A    -11.221593    11A     -1.163251    12A     -1.130207
      13A     -1.039070    14A     -1.008013    15A     -0.936972
      16A     -0.835273    17A     -0.831491    18A     -0.809791
      19A     -0.767429    20A     -0.688448    21A     -0.652466
      22A     -0.633491    23A     -0.628822    24A     -0.601464
      25A     -0.579039    26A     -0.573160    27A     -0.539385
      28A     -0.528233    29A     -0.512195    30A     -0.489625
      31A     -0.484813    32A     -0.476131    33A     -0.424097
      34A     -0.412699    35A     -0.331226    36A     -0.311975

  @DF-RHF Final Energy:  -385.76880559261775

   => Energetics <=

    Nuclear Repulsion Energy =            482.8856114668498662
    One-Electron Energy =               -1477.9697884100926331
    Two-Electron Energy =                 609.3153713506250142
    Total Energy =                       -385.7688055926176958
  Basis Set: (AUG-CC-PVTZ AUX)
    Blend: AUG-CC-PVTZ-RI
    Molecular point group: c1

    Geometry (in Angstrom), charge = 0, multiplicity = 1:

       Center              X                  Y                   Z               Mass
    ------------   -----------------  -----------------  -----------------  -----------------
         C           -2.124042787950    -0.000332611872    -0.518003518703    12.000000000000
         C           -3.027338787950     0.751910388128     0.424457481297    12.000000000000
         C           -3.027338787950    -0.752571611872     0.424460481297    12.000000000000
         C           -0.647393787950    -0.000332611872    -0.299860518703    12.000000000000
         C            0.064738212050     1.202658388128    -0.210575518703    12.000000000000
         C            0.064738212050    -1.203322611872    -0.210575518703    12.000000000000
         C            1.448731212050     1.200994388128    -0.036601518703    12.000000000000
         C            1.448732212050    -1.201657611872    -0.036601518703    12.000000000000
         C            2.163837212050    -0.000331611872     0.051327481297    12.000000000000
         C            3.652664212050    -0.000330611872     0.283536481297    12.000000000000
         H           -2.434926787950    -0.000335611872    -1.562356518703     1.007825032230
         H           -3.888322787950     1.269593388128     0.013709481297     1.007825032230
         H           -2.557323787950     1.253125388128     1.264682481297     1.007825032230
         H           -2.557323787950    -1.253784611872     1.264687481297     1.007825032230
         H           -3.888323787950    -1.270255611872     0.013715481297     1.007825032230
         H           -0.474306787950     2.146093388128    -0.279135518703     1.007825032230
         H           -0.474305787950    -2.146758611872    -0.279135518703     1.007825032230
         H            1.983280212050     2.147903388128     0.028717481297     1.007825032230
         H            1.958745612050    -2.105103811872     0.025719381297     1.007825032230
         H            4.119637212050    -0.885681611872    -0.157560518703     1.007825032230
         H            4.119637212050     0.885020388128    -0.157559518703     1.007825032230
         H            3.887222212050    -0.000331611872     1.353783481297     1.007825032230

  Basis Set: AUG-CC-PVTZ
    Blend: AUG-CC-PVTZ
  Basis Set: (AUG-CC-PVTZ AUX)
    Blend: AUG-CC-PVTZ-JKFIT
	 Reference Energy          =    -385.7688055926177526 [Eh]
	 Singles Energy            =      -0.0000000000000000 [Eh]
	 Same-Spin Energy          =      -0.4316142042757269 [Eh]
	 Opposite-Spin Energy      =      -1.4111646527001893 [Eh]
	 Correlation Energy        =      -1.8427788569759163 [Eh]
	 Total Energy              =    -387.6115844495936926 [Eh]

	 ================> DF-SCS-MP2 Energies <==================
	-----------------------------------------------------------
	 SCS Same-Spin Scale       =       0.3333333333333333 [-]
	 SCS Opposite-Spin Scale   =       1.2000000000000000 [-]
	 SCS Same-Spin Energy      =      -0.1438714014252423 [Eh]
	 SCS Opposite-Spin Energy  =      -1.6933975832402270 [Eh]
	 SCS Correlation Energy    =      -1.8372689846654693 [Eh]
	 SCS Total Energy          =    -387.6060745772832092 [Eh]
	-----------------------------------------------------------

  Dipole Moment: [D]
     X:     0.1311      Y:    -0.0178      Z:     0.0298     Total:     0.1356

*** Psi4 exiting successfully. Buy a developer a beer!
