                               Psi4 1.4a3.dev225

  ==> Input File <==

--------------------------------------------------------------------------
#psi4
#
memory 32 gb

molecule  {
0 1
  C       -2.1229620    -0.0000010    -0.5285820
  C       -3.0262580     0.7522420     0.4138790
  C       -3.0262580    -0.7522400     0.4138820
  C       -0.6463130    -0.0000010    -0.3104390
  C        0.0658190     1.2029900    -0.2211540
  C        0.0658190    -1.2029910    -0.2211540
  C        1.4498120     1.2013260    -0.0471800
  C        1.4498130    -1.2013260    -0.0471800
  C        2.1649180     0.0000000     0.0407490
  C        3.6537450     0.0000010     0.2729580
  H       -2.4338460    -0.0000040    -1.5729350
  H       -3.8872420     1.2699250     0.0031310
  H       -2.5562430     1.2534570     1.2541040
  H       -2.5562430    -1.2534530     1.2541090
  H       -3.8872430    -1.2699240     0.0031370
  H       -0.4732260     2.1464250    -0.2897140
  H       -0.4732250    -2.1464270    -0.2897140
  H        2.0088966     2.1916978     0.0211371
  H        1.9843620    -2.1482350     0.0181390
  H        4.1207180    -0.8853500    -0.1681390
  H        4.1207180     0.8853520    -0.1681380
  H        3.8883030     0.0000000     1.3432050
units angstrom
no_reorient  #important for SAPT in psi4, default
symmetry c1  #important for SAPT in psi4, default
}

set PROPERTIES_ORIGIN ["COM"]
properties('MP2/aug-cc-pvtz', properties = ['dipole'])
--------------------------------------------------------------------------

    Molecular point group: c1
  Charge       = 0
  Multiplicity = 1
  Basis Set: AUG-CC-PVTZ
    Blend: AUG-CC-PVTZ
  Basis Set: (AUG-CC-PVTZ AUX)
    Blend: AUG-CC-PVTZ-JKFIT

    Orbital Energies [Eh]
    ---------------------

    Doubly Occupied:

       1A    -11.238526     2A    -11.234508     3A    -11.233588
       4A    -11.233234     5A    -11.229397     6A    -11.229235
       7A    -11.227824     8A    -11.224823     9A    -11.224170
      10A    -11.222424    11A     -1.163556    12A     -1.130194
      13A     -1.039257    14A     -1.005774    15A     -0.936441
      16A     -0.833042    17A     -0.832006    18A     -0.807960
      19A     -0.764366    20A     -0.685816    21A     -0.652569
      22A     -0.634052    23A     -0.624551    24A     -0.597482
      25A     -0.574473    26A     -0.573061    27A     -0.537291
      28A     -0.528688    29A     -0.512445    30A     -0.489996
      31A     -0.482417    32A     -0.476039    33A     -0.424422
      34A     -0.412907    35A     -0.331826    36A     -0.312597

  @DF-RHF Final Energy:  -385.76707230736025

   => Energetics <=

    Nuclear Repulsion Energy =            482.3690724399370424
    One-Electron Energy =               -1476.9503770675182750
    Two-Electron Energy =                 608.8142323202209809
    Total Energy =                       -385.7670723073601948
  Basis Set: (AUG-CC-PVTZ AUX)
    Blend: AUG-CC-PVTZ-RI
    Molecular point group: c1

    Geometry (in Angstrom), charge = 0, multiplicity = 1:

       Center              X                  Y                   Z               Mass
    ------------   -----------------  -----------------  -----------------  -----------------
         C           -2.124417182101    -0.000332611872    -0.518049267375    12.000000000000
         C           -3.027713182101     0.751910388128     0.424411732625    12.000000000000
         C           -3.027713182101    -0.752571611872     0.424414732625    12.000000000000
         C           -0.647768182101    -0.000332611872    -0.299906267375    12.000000000000
         C            0.064363817899     1.202658388128    -0.210621267375    12.000000000000
         C            0.064363817899    -1.203322611872    -0.210621267375    12.000000000000
         C            1.448356817899     1.200994388128    -0.036647267375    12.000000000000
         C            1.448357817899    -1.201657611872    -0.036647267375    12.000000000000
         C            2.163462817899    -0.000331611872     0.051281732625    12.000000000000
         C            3.652289817899    -0.000330611872     0.283490732625    12.000000000000
         H           -2.435301182101    -0.000335611872    -1.562402267375     1.007825032230
         H           -3.888697182101     1.269593388128     0.013663732625     1.007825032230
         H           -2.557698182101     1.253125388128     1.264636732625     1.007825032230
         H           -2.557698182101    -1.253784611872     1.264641732625     1.007825032230
         H           -3.888698182101    -1.270255611872     0.013669732625     1.007825032230
         H           -0.474681182101     2.146093388128    -0.279181267375     1.007825032230
         H           -0.474680182101    -2.146758611872    -0.279181267375     1.007825032230
         H            2.007441417899     2.191366188128     0.031669832625     1.007825032230
         H            1.982906817899    -2.148566611872     0.028671732625     1.007825032230
         H            4.119262817899    -0.885681611872    -0.157606267375     1.007825032230
         H            4.119262817899     0.885020388128    -0.157605267375     1.007825032230
         H            3.886847817899    -0.000331611872     1.353737732625     1.007825032230

  Basis Set: AUG-CC-PVTZ
    Blend: AUG-CC-PVTZ
  Basis Set: (AUG-CC-PVTZ AUX)
    Blend: AUG-CC-PVTZ-JKFIT
	 Reference Energy          =    -385.7670723073602517 [Eh]
	 Singles Energy            =      -0.0000000000000000 [Eh]
	 Same-Spin Energy          =      -0.4318279591499628 [Eh]
	 Opposite-Spin Energy      =      -1.4119224842256772 [Eh]
	 Correlation Energy        =      -1.8437504433756400 [Eh]
	 Total Energy              =    -387.6108227507359061 [Eh]

	 ================> DF-SCS-MP2 Energies <==================
	-----------------------------------------------------------
	 SCS Same-Spin Scale       =       0.3333333333333333 [-]
	 SCS Opposite-Spin Scale   =       1.2000000000000000 [-]
	 SCS Same-Spin Energy      =      -0.1439426530499876 [Eh]
	 SCS Opposite-Spin Energy  =      -1.6943069810708127 [Eh]
	 SCS Correlation Energy    =      -1.8382496341208003 [Eh]
	 SCS Total Energy          =    -387.6053219414810656 [Eh]
	-----------------------------------------------------------

  Dipole Moment: [D]
     X:     0.0975      Y:    -0.0216      Z:     0.0285     Total:     0.1039

*** Psi4 exiting successfully. Buy a developer a beer!
