                               Psi4 1.4a3.dev225

  ==> Input File <==

--------------------------------------------------------------------------
#psi4
#
memory 32 gb

molecule  {
0 1
  C       -2.1229620    -0.0000010    -0.5285820
  C       -3.1077058     0.7199779     0.3557007
  C       -3.0262580    -0.7522400     0.4138820
  C       -0.6463130    -0.0000010    -0.3104390
  C        0.0658190     1.2029900    -0.2211540
  C        0.0658190    -1.2029910    -0.2211540
  C        1.4498120     1.2013260    -0.0471800
  C        1.4498130    -1.2013260    -0.0471800
  C        2.1649180     0.0000000     0.0407490
  C        3.6537450     0.0000010     0.2729580
  H       -2.4338460    -0.0000040    -1.5729350
  H       -3.8872420     1.2699250     0.0031310
  H       -2.5562430     1.2534570     1.2541040
  H       -2.5562430    -1.2534530     1.2541090
  H       -3.8872430    -1.2699240     0.0031370
  H       -0.4732260     2.1464250    -0.2897140
  H       -0.4732250    -2.1464270    -0.2897140
  H        1.9843610     2.1482350     0.0181390
  H        1.9843620    -2.1482350     0.0181390
  H        4.1207180    -0.8853500    -0.1681390
  H        4.1207180     0.8853520    -0.1681380
  H        3.8883030     0.0000000     1.3432050
units angstrom
no_reorient  #important for SAPT in psi4, default
symmetry c1  #important for SAPT in psi4, default
}

set PROPERTIES_ORIGIN ["COM"]
properties('MP2/aug-cc-pvtz', properties = ['dipole'])
--------------------------------------------------------------------------

    Molecular point group: c1
  Charge       = 0
  Multiplicity = 1
  Basis Set: AUG-CC-PVTZ
    Blend: AUG-CC-PVTZ
  Basis Set: (AUG-CC-PVTZ AUX)
    Blend: AUG-CC-PVTZ-JKFIT

    Orbital Energies [Eh]
    ---------------------

    Doubly Occupied:

       1A    -11.238212     2A    -11.235195     3A    -11.232260
       4A    -11.229798     5A    -11.229216     6A    -11.227801
       7A    -11.227440     8A    -11.226122     9A    -11.224395
      10A    -11.222591    11A     -1.164982    12A     -1.133206
      13A     -1.040539    14A     -1.006955    15A     -0.937666
      16A     -0.833699    17A     -0.832887    18A     -0.810193
      19A     -0.765640    20A     -0.683871    21A     -0.663126
      22A     -0.634083    23A     -0.627523    24A     -0.597517
      25A     -0.577258    26A     -0.573294    27A     -0.538779
      28A     -0.527954    29A     -0.503682    30A     -0.490022
      31A     -0.483623    32A     -0.476149    33A     -0.431281
      34A     -0.406581    35A     -0.331628    36A     -0.312817

  @DF-RHF Final Energy:  -385.75705482386934

   => Energetics <=

    Nuclear Repulsion Energy =            482.3045183467263541
    One-Electron Energy =               -1476.7671811234392862
    Two-Electron Energy =                 608.7056079528435930
    Total Energy =                       -385.7570548238693391
  Basis Set: (AUG-CC-PVTZ AUX)
    Blend: AUG-CC-PVTZ-RI
    Molecular point group: c1

    Geometry (in Angstrom), charge = 0, multiplicity = 1:

       Center              X                  Y                   Z               Mass
    ------------   -----------------  -----------------  -----------------  -----------------
         C           -2.116830903030     0.002930007344    -0.512741216374    12.000000000000
         C           -3.101574703030     0.722908907344     0.371541483626    12.000000000000
         C           -3.020126903030    -0.749308992656     0.429722783626    12.000000000000
         C           -0.640181903030     0.002930007344    -0.294598216374    12.000000000000
         C            0.071950096970     1.205921007344    -0.205313216374    12.000000000000
         C            0.071950096970    -1.200059992656    -0.205313216374    12.000000000000
         C            1.455943096970     1.204257007344    -0.031339216374    12.000000000000
         C            1.455944096970    -1.198394992656    -0.031339216374    12.000000000000
         C            2.171049096970     0.002931007344     0.056589783626    12.000000000000
         C            3.659876096970     0.002932007344     0.288798783626    12.000000000000
         H           -2.427714903030     0.002927007344    -1.557094216374     1.007825032230
         H           -3.881110903030     1.272856007344     0.018971783626     1.007825032230
         H           -2.550111903030     1.256388007344     1.269944783626     1.007825032230
         H           -2.550111903030    -1.250521992656     1.269949783626     1.007825032230
         H           -3.881111903030    -1.266992992656     0.018977783626     1.007825032230
         H           -0.467094903030     2.149356007344    -0.273873216374     1.007825032230
         H           -0.467093903030    -2.143495992656    -0.273873216374     1.007825032230
         H            1.990492096970     2.151166007344     0.033979783626     1.007825032230
         H            1.990493096970    -2.145303992656     0.033979783626     1.007825032230
         H            4.126849096970    -0.882418992656    -0.152298216374     1.007825032230
         H            4.126849096970     0.888283007344    -0.152297216374     1.007825032230
         H            3.894434096970     0.002931007344     1.359045783626     1.007825032230

  Basis Set: AUG-CC-PVTZ
    Blend: AUG-CC-PVTZ
  Basis Set: (AUG-CC-PVTZ AUX)
    Blend: AUG-CC-PVTZ-JKFIT
	 Reference Energy          =    -385.7570548238693391 [Eh]
	 Singles Energy            =      -0.0000000000000000 [Eh]
	 Same-Spin Energy          =      -0.4319443288448105 [Eh]
	 Opposite-Spin Energy      =      -1.4119468980098802 [Eh]
	 Correlation Energy        =      -1.8438912268546908 [Eh]
	 Total Energy              =    -387.6009460507240192 [Eh]

	 ================> DF-SCS-MP2 Energies <==================
	-----------------------------------------------------------
	 SCS Same-Spin Scale       =       0.3333333333333333 [-]
	 SCS Opposite-Spin Scale   =       1.2000000000000000 [-]
	 SCS Same-Spin Energy      =      -0.1439814429482701 [Eh]
	 SCS Opposite-Spin Energy  =      -1.6943362776118562 [Eh]
	 SCS Correlation Energy    =      -1.8383177205601264 [Eh]
	 SCS Total Energy          =    -387.5953725444294378 [Eh]
	-----------------------------------------------------------

  Dipole Moment: [D]
     X:     0.1046      Y:     0.0025      Z:     0.0075     Total:     0.1049

*** Psi4 exiting successfully. Buy a developer a beer!
