                               Psi4 1.4a3.dev225

  ==> Input File <==

--------------------------------------------------------------------------
#psi4
#
memory 32 gb

molecule  {
0 1
  C       -2.1229620    -0.0000010    -0.5285820
  C       -3.0262580     0.7522420     0.4138790
  C       -2.9962814    -0.7272763     0.3826055
  C       -0.6463130    -0.0000010    -0.3104390
  C        0.0658190     1.2029900    -0.2211540
  C        0.0658190    -1.2029910    -0.2211540
  C        1.4498120     1.2013260    -0.0471800
  C        1.4498130    -1.2013260    -0.0471800
  C        2.1649180     0.0000000     0.0407490
  C        3.6537450     0.0000010     0.2729580
  H       -2.4338460    -0.0000040    -1.5729350
  H       -3.8872420     1.2699250     0.0031310
  H       -2.5562430     1.2534570     1.2541040
  H       -2.5562430    -1.2534530     1.2541090
  H       -3.8872430    -1.2699240     0.0031370
  H       -0.4732260     2.1464250    -0.2897140
  H       -0.4732250    -2.1464270    -0.2897140
  H        1.9843610     2.1482350     0.0181390
  H        1.9843620    -2.1482350     0.0181390
  H        4.1207180    -0.8853500    -0.1681390
  H        4.1207180     0.8853520    -0.1681380
  H        3.8883030     0.0000000     1.3432050
units angstrom
no_reorient  #important for SAPT in psi4, default
symmetry c1  #important for SAPT in psi4, default
}

set PROPERTIES_ORIGIN ["COM"]
properties('MP2/aug-cc-pvtz', properties = ['dipole'])
--------------------------------------------------------------------------

    Molecular point group: c1
  Charge       = 0
  Multiplicity = 1
  Basis Set: AUG-CC-PVTZ
    Blend: AUG-CC-PVTZ
  Basis Set: (AUG-CC-PVTZ AUX)
    Blend: AUG-CC-PVTZ-JKFIT

    Orbital Energies [Eh]
    ---------------------

    Doubly Occupied:

       1A    -11.237942     2A    -11.234026     3A    -11.230875
       4A    -11.229321     5A    -11.228970     6A    -11.227552
       7A    -11.227367     8A    -11.224961     9A    -11.222467
      10A    -11.221286    11A     -1.170364    12A     -1.135918
      13A     -1.040012    14A     -1.006794    15A     -0.936827
      16A     -0.834580    17A     -0.830097    18A     -0.805799
      19A     -0.766119    20A     -0.688229    21A     -0.655669
      22A     -0.633777    23A     -0.627665    24A     -0.600153
      25A     -0.577077    26A     -0.573137    27A     -0.538531
      28A     -0.526985    29A     -0.501974    30A     -0.489899
      31A     -0.484070    32A     -0.475038    33A     -0.432940
      34A     -0.414045    35A     -0.331506    36A     -0.312462

  @DF-RHF Final Energy:  -385.76685744708016

   => Energetics <=

    Nuclear Repulsion Energy =            483.5578692944104091
    One-Electron Energy =               -1479.3005782212126178
    Two-Electron Energy =                 609.9758514797219959
    Total Energy =                       -385.7668574470801559
  Basis Set: (AUG-CC-PVTZ AUX)
    Blend: AUG-CC-PVTZ-RI
    Molecular point group: c1

    Geometry (in Angstrom), charge = 0, multiplicity = 1:

       Center              X                  Y                   Z               Mass
    ------------   -----------------  -----------------  -----------------  -----------------
         C           -2.126953193280    -0.002268821655    -0.515185096061    12.000000000000
         C           -3.030249193280     0.749974178345     0.427275903939    12.000000000000
         C           -3.000272593280    -0.729544121655     0.396002403939    12.000000000000
         C           -0.650304193280    -0.002268821655    -0.297042096061    12.000000000000
         C            0.061827806720     1.200722178345    -0.207757096061    12.000000000000
         C            0.061827806720    -1.205258821655    -0.207757096061    12.000000000000
         C            1.445820806720     1.199058178345    -0.033783096061    12.000000000000
         C            1.445821806720    -1.203593821655    -0.033783096061    12.000000000000
         C            2.160926806720    -0.002267821655     0.054145903939    12.000000000000
         C            3.649753806720    -0.002266821655     0.286354903939    12.000000000000
         H           -2.437837193280    -0.002271821655    -1.559538096061     1.007825032230
         H           -3.891233193280     1.267657178345     0.016527903939     1.007825032230
         H           -2.560234193280     1.251189178345     1.267500903939     1.007825032230
         H           -2.560234193280    -1.255720821655     1.267505903939     1.007825032230
         H           -3.891234193280    -1.272191821655     0.016533903939     1.007825032230
         H           -0.477217193280     2.144157178345    -0.276317096061     1.007825032230
         H           -0.477216193280    -2.148694821655    -0.276317096061     1.007825032230
         H            1.980369806720     2.145967178345     0.031535903939     1.007825032230
         H            1.980370806720    -2.150502821655     0.031535903939     1.007825032230
         H            4.116726806720    -0.887617821655    -0.154742096061     1.007825032230
         H            4.116726806720     0.883084178345    -0.154741096061     1.007825032230
         H            3.884311806720    -0.002267821655     1.356601903939     1.007825032230

  Basis Set: AUG-CC-PVTZ
    Blend: AUG-CC-PVTZ
  Basis Set: (AUG-CC-PVTZ AUX)
    Blend: AUG-CC-PVTZ-JKFIT
	 Reference Energy          =    -385.7668574470801559 [Eh]
	 Singles Energy            =      -0.0000000000000000 [Eh]
	 Same-Spin Energy          =      -0.4319369216641764 [Eh]
	 Opposite-Spin Energy      =      -1.4113402670633877 [Eh]
	 Correlation Energy        =      -1.8432771887275641 [Eh]
	 Total Energy              =    -387.6101346358076967 [Eh]

	 ================> DF-SCS-MP2 Energies <==================
	-----------------------------------------------------------
	 SCS Same-Spin Scale       =       0.3333333333333333 [-]
	 SCS Opposite-Spin Scale   =       1.2000000000000000 [-]
	 SCS Same-Spin Energy      =      -0.1439789738880588 [Eh]
	 SCS Opposite-Spin Energy  =      -1.6936083204760652 [Eh]
	 SCS Correlation Energy    =      -1.8375872943641240 [Eh]
	 SCS Total Energy          =    -387.6044447414442971 [Eh]
	-----------------------------------------------------------

  Dipole Moment: [D]
     X:     0.1066      Y:    -0.0282      Z:     0.0366     Total:     0.1162

*** Psi4 exiting successfully. Buy a developer a beer!
