                               Psi4 1.4a3.dev225

  ==> Input File <==

--------------------------------------------------------------------------
#psi4
#
memory 32 gb

molecule  {
0 1
  C       -2.1229620    -0.0000010    -0.5285820
  C       -3.0262580     0.7522420     0.4138790
  C       -3.0871247    -0.7752915     0.3312787
  C       -0.6463130    -0.0000010    -0.3104390
  C        0.0658190     1.2029900    -0.2211540
  C        0.0658190    -1.2029910    -0.2211540
  C        1.4498120     1.2013260    -0.0471800
  C        1.4498130    -1.2013260    -0.0471800
  C        2.1649180     0.0000000     0.0407490
  C        3.6537450     0.0000010     0.2729580
  H       -2.4338460    -0.0000040    -1.5729350
  H       -3.8872420     1.2699250     0.0031310
  H       -2.5562430     1.2534570     1.2541040
  H       -2.5562430    -1.2534530     1.2541090
  H       -3.8872430    -1.2699240     0.0031370
  H       -0.4732260     2.1464250    -0.2897140
  H       -0.4732250    -2.1464270    -0.2897140
  H        1.9843610     2.1482350     0.0181390
  H        1.9843620    -2.1482350     0.0181390
  H        4.1207180    -0.8853500    -0.1681390
  H        4.1207180     0.8853520    -0.1681380
  H        3.8883030     0.0000000     1.3432050
units angstrom
no_reorient  #important for SAPT in psi4, default
symmetry c1  #important for SAPT in psi4, default
}

set PROPERTIES_ORIGIN ["COM"]
properties('MP2/aug-cc-pvtz', properties = ['dipole'])
--------------------------------------------------------------------------

    Molecular point group: c1
  Charge       = 0
  Multiplicity = 1
  Basis Set: AUG-CC-PVTZ
    Blend: AUG-CC-PVTZ
  Basis Set: (AUG-CC-PVTZ AUX)
    Blend: AUG-CC-PVTZ-JKFIT

    Orbital Energies [Eh]
    ---------------------

    Doubly Occupied:

       1A    -11.238484     2A    -11.235811     3A    -11.235108
       4A    -11.230228     5A    -11.229579     6A    -11.228162
       7A    -11.227765     8A    -11.225921     9A    -11.225328
      10A    -11.222786    11A     -1.162093    12A     -1.128338
      13A     -1.039557    14A     -1.007304    15A     -0.937220
      16A     -0.837153    17A     -0.831975    18A     -0.812734
      19A     -0.765887    20A     -0.683807    21A     -0.662372
      22A     -0.634550    23A     -0.627273    24A     -0.594519
      25A     -0.577588    26A     -0.573492    27A     -0.539367
      28A     -0.527465    29A     -0.511923    30A     -0.488980
      31A     -0.484268    32A     -0.476994    33A     -0.417300
      34A     -0.414546    35A     -0.331973    36A     -0.312526

  @DF-RHF Final Energy:  -385.75595329935078

   => Energetics <=

    Nuclear Repulsion Energy =            482.0040714224602993
    One-Electron Energy =               -1476.1592974637062525
    Two-Electron Energy =                 608.3992727418950608
    Total Energy =                       -385.7559532993508356
  Basis Set: (AUG-CC-PVTZ AUX)
    Blend: AUG-CC-PVTZ-RI
    Molecular point group: c1

    Geometry (in Angstrom), charge = 0, multiplicity = 1:

       Center              X                  Y                   Z               Mass
    ------------   -----------------  -----------------  -----------------  -----------------
         C           -2.118700582094     0.002093093606    -0.510522340262    12.000000000000
         C           -3.021996582094     0.754336093606     0.431938659738    12.000000000000
         C           -3.082863282094    -0.773197406394     0.349338359738    12.000000000000
         C           -0.642051582094     0.002093093606    -0.292379340262    12.000000000000
         C            0.070080417906     1.205084093606    -0.203094340262    12.000000000000
         C            0.070080417906    -1.200896906394    -0.203094340262    12.000000000000
         C            1.454073417906     1.203420093606    -0.029120340262    12.000000000000
         C            1.454074417906    -1.199231906394    -0.029120340262    12.000000000000
         C            2.169179417906     0.002094093606     0.058808659738    12.000000000000
         C            3.658006417906     0.002095093606     0.291017659738    12.000000000000
         H           -2.429584582094     0.002090093606    -1.554875340262     1.007825032230
         H           -3.882980582094     1.272019093606     0.021190659738     1.007825032230
         H           -2.551981582094     1.255551093606     1.272163659738     1.007825032230
         H           -2.551981582094    -1.251358906394     1.272168659738     1.007825032230
         H           -3.882981582094    -1.267829906394     0.021196659738     1.007825032230
         H           -0.468964582094     2.148519093606    -0.271654340262     1.007825032230
         H           -0.468963582094    -2.144332906394    -0.271654340262     1.007825032230
         H            1.988622417906     2.150329093606     0.036198659738     1.007825032230
         H            1.988623417906    -2.146140906394     0.036198659738     1.007825032230
         H            4.124979417906    -0.883255906394    -0.150079340262     1.007825032230
         H            4.124979417906     0.887446093606    -0.150078340262     1.007825032230
         H            3.892564417906     0.002094093606     1.361264659738     1.007825032230

  Basis Set: AUG-CC-PVTZ
    Blend: AUG-CC-PVTZ
  Basis Set: (AUG-CC-PVTZ AUX)
    Blend: AUG-CC-PVTZ-JKFIT
	 Reference Energy          =    -385.7559532993507787 [Eh]
	 Singles Energy            =      -0.0000000000000000 [Eh]
	 Same-Spin Energy          =      -0.4318621111650826 [Eh]
	 Opposite-Spin Energy      =      -1.4122767347454763 [Eh]
	 Correlation Energy        =      -1.8441388459105590 [Eh]
	 Total Energy              =    -387.6000921452613284 [Eh]

	 ================> DF-SCS-MP2 Energies <==================
	-----------------------------------------------------------
	 SCS Same-Spin Scale       =       0.3333333333333333 [-]
	 SCS Opposite-Spin Scale   =       1.2000000000000000 [-]
	 SCS Same-Spin Energy      =      -0.1439540370550275 [Eh]
	 SCS Opposite-Spin Energy  =      -1.6947320816945715 [Eh]
	 SCS Correlation Energy    =      -1.8386861187495989 [Eh]
	 SCS Total Energy          =    -387.5946394181003711 [Eh]
	-----------------------------------------------------------

  Dipole Moment: [D]
     X:     0.1415      Y:     0.0071      Z:    -0.0143     Total:     0.1424

*** Psi4 exiting successfully. Buy a developer a beer!
