                               Psi4 1.4a3.dev225

  ==> Input File <==

--------------------------------------------------------------------------
#psi4
#
memory 32 gb

molecule  {
0 1
  C       -2.1229620    -0.0000010    -0.5285820
  C       -3.0262580     0.7522420     0.4138790
  C       -3.0262580    -0.7522400     0.4138820
  C       -0.6463130    -0.0000010    -0.3104390
  C        0.0658190     1.2029900    -0.2211540
  C        0.0658190    -1.2029910    -0.2211540
  C        1.4498120     1.2013260    -0.0471800
  C        1.4498130    -1.2013260    -0.0471800
  C        2.1649180     0.0000000     0.0407490
  C        3.6537450     0.0000010     0.2729580
  H       -2.4909076    -0.0000046    -1.7646222
  H       -3.8872420     1.2699250     0.0031310
  H       -2.5562430     1.2534570     1.2541040
  H       -2.5562430    -1.2534530     1.2541090
  H       -3.8872430    -1.2699240     0.0031370
  H       -0.4732260     2.1464250    -0.2897140
  H       -0.4732250    -2.1464270    -0.2897140
  H        1.9843610     2.1482350     0.0181390
  H        1.9843620    -2.1482350     0.0181390
  H        4.1207180    -0.8853500    -0.1681390
  H        4.1207180     0.8853520    -0.1681380
  H        3.8883030     0.0000000     1.3432050
units angstrom
no_reorient  #important for SAPT in psi4, default
symmetry c1  #important for SAPT in psi4, default
}

set PROPERTIES_ORIGIN ["COM"]
properties('MP2/aug-cc-pvtz', properties = ['dipole'])
--------------------------------------------------------------------------

    Molecular point group: c1
  Charge       = 0
  Multiplicity = 1
  Basis Set: AUG-CC-PVTZ
    Blend: AUG-CC-PVTZ
  Basis Set: (AUG-CC-PVTZ AUX)
    Blend: AUG-CC-PVTZ-JKFIT

    Orbital Energies [Eh]
    ---------------------

    Doubly Occupied:

       1A    -11.254471     2A    -11.238998     3A    -11.235630
       4A    -11.230222     5A    -11.230076     6A    -11.228123
       7A    -11.228058     8A    -11.226513     9A    -11.225842
      10A    -11.223069    11A     -1.163074    12A     -1.130061
      13A     -1.040123    14A     -1.007534    15A     -0.937008
      16A     -0.835063    17A     -0.824880    18A     -0.809827
      19A     -0.757413    20A     -0.680083    21A     -0.647867
      22A     -0.634618    23A     -0.626602    24A     -0.594165
      25A     -0.577797    26A     -0.573759    27A     -0.539128
      28A     -0.516933    29A     -0.513298    30A     -0.490345
      31A     -0.484549    32A     -0.468736    33A     -0.422360
      34A     -0.414845    35A     -0.332157    36A     -0.311698

  @DF-RHF Final Energy:  -385.74853263697821

   => Energetics <=

    Nuclear Repulsion Energy =            481.6705536154235006
    One-Electron Energy =               -1475.5283198515232925
    Two-Electron Energy =                 608.1092335991215805
    Total Energy =                       -385.7485326369782115
  Basis Set: (AUG-CC-PVTZ AUX)
    Blend: AUG-CC-PVTZ-RI
    Molecular point group: c1

    Geometry (in Angstrom), charge = 0, multiplicity = 1:

       Center              X                  Y                   Z               Mass
    ------------   -----------------  -----------------  -----------------  -----------------
         C           -2.123794627233    -0.000001003052    -0.516563894332    12.000000000000
         C           -3.027090627233     0.752241996948     0.425897105668    12.000000000000
         C           -3.027090627233    -0.752240003052     0.425900105668    12.000000000000
         C           -0.647145627233    -0.000001003052    -0.298420894332    12.000000000000
         C            0.064986372767     1.202989996948    -0.209135894332    12.000000000000
         C            0.064986372767    -1.202991003052    -0.209135894332    12.000000000000
         C            1.448979372767     1.201325996948    -0.035161894332    12.000000000000
         C            1.448980372767    -1.201326003052    -0.035161894332    12.000000000000
         C            2.164085372767    -0.000000003052     0.052767105668    12.000000000000
         C            3.652912372767     0.000000996948     0.284976105668    12.000000000000
         H           -2.491740227233    -0.000004603052    -1.752604094332     1.007825032230
         H           -3.888074627233     1.269924996948     0.015149105668     1.007825032230
         H           -2.557075627233     1.253456996948     1.266122105668     1.007825032230
         H           -2.557075627233    -1.253453003052     1.266127105668     1.007825032230
         H           -3.888075627233    -1.269924003052     0.015155105668     1.007825032230
         H           -0.474058627233     2.146424996948    -0.277695894332     1.007825032230
         H           -0.474057627233    -2.146427003052    -0.277695894332     1.007825032230
         H            1.983528372767     2.148234996948     0.030157105668     1.007825032230
         H            1.983529372767    -2.148235003052     0.030157105668     1.007825032230
         H            4.119885372767    -0.885350003052    -0.156120894332     1.007825032230
         H            4.119885372767     0.885351996948    -0.156119894332     1.007825032230
         H            3.887470372767    -0.000000003052     1.355223105668     1.007825032230

  Basis Set: AUG-CC-PVTZ
    Blend: AUG-CC-PVTZ
  Basis Set: (AUG-CC-PVTZ AUX)
    Blend: AUG-CC-PVTZ-JKFIT
	 Reference Energy          =    -385.7485326369782115 [Eh]
	 Singles Energy            =      -0.0000000000000000 [Eh]
	 Same-Spin Energy          =      -0.4319215798708338 [Eh]
	 Opposite-Spin Energy      =      -1.4131957942753208 [Eh]
	 Correlation Energy        =      -1.8451173741461546 [Eh]
	 Total Energy              =    -387.5936500111243390 [Eh]

	 ================> DF-SCS-MP2 Energies <==================
	-----------------------------------------------------------
	 SCS Same-Spin Scale       =       0.3333333333333333 [-]
	 SCS Opposite-Spin Scale   =       1.2000000000000000 [-]
	 SCS Same-Spin Energy      =      -0.1439738599569446 [Eh]
	 SCS Opposite-Spin Energy  =      -1.6958349531303849 [Eh]
	 SCS Correlation Energy    =      -1.8398088130873296 [Eh]
	 SCS Total Energy          =    -387.5883414500655135 [Eh]
	-----------------------------------------------------------

  Dipole Moment: [D]
     X:     0.1849      Y:     0.0000      Z:     0.1386     Total:     0.2310

*** Psi4 exiting successfully. Buy a developer a beer!
