                               Psi4 1.4a3.dev225

  ==> Input File <==

--------------------------------------------------------------------------
#psi4
#
memory 32 gb

molecule  {
0 1
  C       -2.1229620    -0.0000010    -0.5285820
  C       -3.0262580     0.7522420     0.4138790
  C       -3.0862113    -0.8021674     0.4764349
  C       -0.6463130    -0.0000010    -0.3104390
  C        0.0658190     1.2029900    -0.2211540
  C        0.0658190    -1.2029910    -0.2211540
  C        1.4498120     1.2013260    -0.0471800
  C        1.4498130    -1.2013260    -0.0471800
  C        2.1649180     0.0000000     0.0407490
  C        3.6537450     0.0000010     0.2729580
  H       -2.4338460    -0.0000040    -1.5729350
  H       -3.8872420     1.2699250     0.0031310
  H       -2.5562430     1.2534570     1.2541040
  H       -2.5562430    -1.2534530     1.2541090
  H       -3.8872430    -1.2699240     0.0031370
  H       -0.4732260     2.1464250    -0.2897140
  H       -0.4732250    -2.1464270    -0.2897140
  H        1.9843610     2.1482350     0.0181390
  H        1.9843620    -2.1482350     0.0181390
  H        4.1207180    -0.8853500    -0.1681390
  H        4.1207180     0.8853520    -0.1681380
  H        3.8883030     0.0000000     1.3432050
units angstrom
no_reorient  #important for SAPT in psi4, default
symmetry c1  #important for SAPT in psi4, default
}

set PROPERTIES_ORIGIN ["COM"]
properties('MP2/aug-cc-pvtz', properties = ['dipole'])
--------------------------------------------------------------------------

    Molecular point group: c1
  Charge       = 0
  Multiplicity = 1
  Basis Set: AUG-CC-PVTZ
    Blend: AUG-CC-PVTZ
  Basis Set: (AUG-CC-PVTZ AUX)
    Blend: AUG-CC-PVTZ-JKFIT

    Orbital Energies [Eh]
    ---------------------

    Doubly Occupied:

       1A    -11.238120     2A    -11.237668     3A    -11.234425
       4A    -11.230853     5A    -11.229577     6A    -11.228935
       7A    -11.227742     8A    -11.227396     9A    -11.224085
      10A    -11.222588    11A     -1.156814    12A     -1.115662
      13A     -1.037231    14A     -1.006878    15A     -0.936622
      16A     -0.840858    17A     -0.830331    18A     -0.813072
      19A     -0.764981    20A     -0.686008    21A     -0.648616
      22A     -0.633949    23A     -0.623576    24A     -0.596716
      25A     -0.577205    26A     -0.573341    27A     -0.542155
      28A     -0.537713    29A     -0.523232    30A     -0.489301
      31A     -0.483382    32A     -0.476998    33A     -0.426293
      34A     -0.390493    35A     -0.331692    36A     -0.311829

  @DF-RHF Final Energy:  -385.76052193660405

   => Energetics <=

    Nuclear Repulsion Energy =            480.8183262062649419
    One-Electron Energy =               -1473.8450280319530066
    Two-Electron Energy =                 607.2661798890840146
    Total Energy =                       -385.7605219366040501
  Basis Set: (AUG-CC-PVTZ AUX)
    Blend: AUG-CC-PVTZ-RI
    Molecular point group: c1

    Geometry (in Angstrom), charge = 0, multiplicity = 1:

       Center              X                  Y                   Z               Mass
    ------------   -----------------  -----------------  -----------------  -----------------
         C           -2.118783559430     0.004534620422    -0.523708977911    12.000000000000
         C           -3.022079559430     0.756777620422     0.418752022089    12.000000000000
         C           -3.082032859430    -0.797631779578     0.481307922089    12.000000000000
         C           -0.642134559430     0.004534620422    -0.305565977911    12.000000000000
         C            0.069997440570     1.207525620422    -0.216280977911    12.000000000000
         C            0.069997440570    -1.198455379578    -0.216280977911    12.000000000000
         C            1.453990440570     1.205861620422    -0.042306977911    12.000000000000
         C            1.453991440570    -1.196790379578    -0.042306977911    12.000000000000
         C            2.169096440570     0.004535620422     0.045622022089    12.000000000000
         C            3.657923440570     0.004536620422     0.277831022089    12.000000000000
         H           -2.429667559430     0.004531620422    -1.568061977911     1.007825032230
         H           -3.883063559430     1.274460620422     0.008004022089     1.007825032230
         H           -2.552064559430     1.257992620422     1.258977022089     1.007825032230
         H           -2.552064559430    -1.248917379578     1.258982022089     1.007825032230
         H           -3.883064559430    -1.265388379578     0.008010022089     1.007825032230
         H           -0.469047559430     2.150960620422    -0.284840977911     1.007825032230
         H           -0.469046559430    -2.141891379578    -0.284840977911     1.007825032230
         H            1.988539440570     2.152770620422     0.023012022089     1.007825032230
         H            1.988540440570    -2.143699379578     0.023012022089     1.007825032230
         H            4.124896440570    -0.880814379578    -0.163265977911     1.007825032230
         H            4.124896440570     0.889887620422    -0.163264977911     1.007825032230
         H            3.892481440570     0.004535620422     1.348078022089     1.007825032230

  Basis Set: AUG-CC-PVTZ
    Blend: AUG-CC-PVTZ
  Basis Set: (AUG-CC-PVTZ AUX)
    Blend: AUG-CC-PVTZ-JKFIT
	 Reference Energy          =    -385.7605219366040501 [Eh]
	 Singles Energy            =      -0.0000000000000000 [Eh]
	 Same-Spin Energy          =      -0.4316901139910978 [Eh]
	 Opposite-Spin Energy      =      -1.4127135928187395 [Eh]
	 Correlation Energy        =      -1.8444037068098373 [Eh]
	 Total Energy              =    -387.6049256434138783 [Eh]

	 ================> DF-SCS-MP2 Energies <==================
	-----------------------------------------------------------
	 SCS Same-Spin Scale       =       0.3333333333333333 [-]
	 SCS Opposite-Spin Scale   =       1.2000000000000000 [-]
	 SCS Same-Spin Energy      =      -0.1438967046636992 [Eh]
	 SCS Opposite-Spin Energy  =      -1.6952563113824874 [Eh]
	 SCS Correlation Energy    =      -1.8391530160461866 [Eh]
	 SCS Total Energy          =    -387.5996749526502185 [Eh]
	-----------------------------------------------------------

  Dipole Moment: [D]
     X:     0.1708      Y:     0.0717      Z:    -0.0051     Total:     0.1853

*** Psi4 exiting successfully. Buy a developer a beer!
