                               Psi4 1.4a3.dev225

  ==> Input File <==

--------------------------------------------------------------------------
#psi4
#
memory 32 gb

molecule  {
0 1
  C       -2.1229620    -0.0000010    -0.5285820
  C       -2.8843213     0.7440004     0.4815921
  C       -3.0262580    -0.7522400     0.4138820
  C       -0.6463130    -0.0000010    -0.3104390
  C        0.0658190     1.2029900    -0.2211540
  C        0.0658190    -1.2029910    -0.2211540
  C        1.4498120     1.2013260    -0.0471800
  C        1.4498130    -1.2013260    -0.0471800
  C        2.1649180     0.0000000     0.0407490
  C        3.6537450     0.0000010     0.2729580
  H       -2.4338460    -0.0000040    -1.5729350
  H       -3.8872420     1.2699250     0.0031310
  H       -2.5562430     1.2534570     1.2541040
  H       -2.5562430    -1.2534530     1.2541090
  H       -3.8872430    -1.2699240     0.0031370
  H       -0.4732260     2.1464250    -0.2897140
  H       -0.4732250    -2.1464270    -0.2897140
  H        1.9843610     2.1482350     0.0181390
  H        1.9843620    -2.1482350     0.0181390
  H        4.1207180    -0.8853500    -0.1681390
  H        4.1207180     0.8853520    -0.1681380
  H        3.8883030     0.0000000     1.3432050
units angstrom
no_reorient  #important for SAPT in psi4, default
symmetry c1  #important for SAPT in psi4, default
}

set PROPERTIES_ORIGIN ["COM"]
properties('MP2/aug-cc-pvtz', properties = ['dipole'])
--------------------------------------------------------------------------

    Molecular point group: c1
  Charge       = 0
  Multiplicity = 1
  Basis Set: AUG-CC-PVTZ
    Blend: AUG-CC-PVTZ
  Basis Set: (AUG-CC-PVTZ AUX)
    Blend: AUG-CC-PVTZ-JKFIT

    Orbital Energies [Eh]
    ---------------------

    Doubly Occupied:

       1A    -11.237969     2A    -11.234499     3A    -11.232979
       4A    -11.229509     5A    -11.228511     6A    -11.227885
       7A    -11.227497     8A    -11.227188     9A    -11.224293
      10A    -11.222562    11A     -1.169231    12A     -1.133762
      13A     -1.038913    14A     -1.006923    15A     -0.936328
      16A     -0.838567    17A     -0.833438    18A     -0.811395
      19A     -0.769183    20A     -0.690478    21A     -0.650121
      22A     -0.634245    23A     -0.630729    24A     -0.604680
      25A     -0.577139    26A     -0.573196    27A     -0.538917
      28A     -0.528139    29A     -0.506887    30A     -0.486793
      31A     -0.482270    32A     -0.475164    33A     -0.427308
      34A     -0.408280    35A     -0.331679    36A     -0.312337

  @DF-RHF Final Energy:  -385.74179311969971

   => Energetics <=

    Nuclear Repulsion Energy =            484.1168053143248926
    One-Electron Energy =               -1480.3392078886049603
    Two-Electron Energy =                 610.4806094545804172
    Total Energy =                       -385.7417931196996506
  Basis Set: (AUG-CC-PVTZ AUX)
    Blend: AUG-CC-PVTZ-RI
    Molecular point group: c1

    Geometry (in Angstrom), charge = 0, multiplicity = 1:

       Center              X                  Y                   Z               Mass
    ------------   -----------------  -----------------  -----------------  -----------------
         C           -2.137124148912     0.000747696131    -0.524177753531    12.000000000000
         C           -2.898483448912     0.744749096131     0.485996346469    12.000000000000
         C           -3.040420148912    -0.751491303869     0.418286246469    12.000000000000
         C           -0.660475148912     0.000747696131    -0.306034753531    12.000000000000
         C            0.051656851088     1.203738696131    -0.216749753531    12.000000000000
         C            0.051656851088    -1.202242303869    -0.216749753531    12.000000000000
         C            1.435649851088     1.202074696131    -0.042775753531    12.000000000000
         C            1.435650851088    -1.200577303869    -0.042775753531    12.000000000000
         C            2.150755851088     0.000748696131     0.045153246469    12.000000000000
         C            3.639582851088     0.000749696131     0.277362246469    12.000000000000
         H           -2.448008148912     0.000744696131    -1.568530753531     1.007825032230
         H           -3.901404148912     1.270673696131     0.007535246469     1.007825032230
         H           -2.570405148912     1.254205696131     1.258508246469     1.007825032230
         H           -2.570405148912    -1.252704303869     1.258513246469     1.007825032230
         H           -3.901405148912    -1.269175303869     0.007541246469     1.007825032230
         H           -0.487388148912     2.147173696131    -0.285309753531     1.007825032230
         H           -0.487387148912    -2.145678303869    -0.285309753531     1.007825032230
         H            1.970198851088     2.148983696131     0.022543246469     1.007825032230
         H            1.970199851088    -2.147486303869     0.022543246469     1.007825032230
         H            4.106555851088    -0.884601303869    -0.163734753531     1.007825032230
         H            4.106555851088     0.886100696131    -0.163733753531     1.007825032230
         H            3.874140851088     0.000748696131     1.347609246469     1.007825032230

  Basis Set: AUG-CC-PVTZ
    Blend: AUG-CC-PVTZ
  Basis Set: (AUG-CC-PVTZ AUX)
    Blend: AUG-CC-PVTZ-JKFIT
	 Reference Energy          =    -385.7417931196997074 [Eh]
	 Singles Energy            =      -0.0000000000000000 [Eh]
	 Same-Spin Energy          =      -0.4322646600008561 [Eh]
	 Opposite-Spin Energy      =      -1.4128808771049473 [Eh]
	 Correlation Energy        =      -1.8451455371058034 [Eh]
	 Total Energy              =    -387.5869386568055006 [Eh]

	 ================> DF-SCS-MP2 Energies <==================
	-----------------------------------------------------------
	 SCS Same-Spin Scale       =       0.3333333333333333 [-]
	 SCS Opposite-Spin Scale   =       1.2000000000000000 [-]
	 SCS Same-Spin Energy      =      -0.1440882200002853 [Eh]
	 SCS Opposite-Spin Energy  =      -1.6954570525259367 [Eh]
	 SCS Correlation Energy    =      -1.8395452725262220 [Eh]
	 SCS Total Energy          =    -387.5813383922259163 [Eh]
	-----------------------------------------------------------

  Dipole Moment: [D]
     X:     0.1831      Y:    -0.0618      Z:     0.0470     Total:     0.1989

*** Psi4 exiting successfully. Buy a developer a beer!
