                               Psi4 1.4a3.dev225

  ==> Input File <==

--------------------------------------------------------------------------
#psi4
#
memory 32 gb

molecule  {
0 1
  C       -2.1229620    -0.0000010    -0.5285820
  C       -3.0262580     0.7522420     0.4138790
  C       -3.0262580    -0.7522400     0.4138820
  C       -0.6875345     0.0257795    -0.3156257
  C        0.0658190     1.2029900    -0.2211540
  C        0.0658190    -1.2029910    -0.2211540
  C        1.4498120     1.2013260    -0.0471800
  C        1.4498130    -1.2013260    -0.0471800
  C        2.1649180     0.0000000     0.0407490
  C        3.6537450     0.0000010     0.2729580
  H       -2.4338460    -0.0000040    -1.5729350
  H       -3.8872420     1.2699250     0.0031310
  H       -2.5562430     1.2534570     1.2541040
  H       -2.5562430    -1.2534530     1.2541090
  H       -3.8872430    -1.2699240     0.0031370
  H       -0.4732260     2.1464250    -0.2897140
  H       -0.4732250    -2.1464270    -0.2897140
  H        1.9843610     2.1482350     0.0181390
  H        1.9843620    -2.1482350     0.0181390
  H        4.1207180    -0.8853500    -0.1681390
  H        4.1207180     0.8853520    -0.1681380
  H        3.8883030     0.0000000     1.3432050
units angstrom
no_reorient  #important for SAPT in psi4, default
symmetry c1  #important for SAPT in psi4, default
}

set PROPERTIES_ORIGIN ["COM"]
properties('MP2/aug-cc-pvtz', properties = ['dipole'])
--------------------------------------------------------------------------

    Molecular point group: c1
  Charge       = 0
  Multiplicity = 1
  Basis Set: AUG-CC-PVTZ
    Blend: AUG-CC-PVTZ
  Basis Set: (AUG-CC-PVTZ AUX)
    Blend: AUG-CC-PVTZ-JKFIT

    Orbital Energies [Eh]
    ---------------------

    Doubly Occupied:

       1A    -11.238386     2A    -11.236224     3A    -11.233161
       4A    -11.231897     5A    -11.228995     6A    -11.227499
       7A    -11.227098     8A    -11.225972     9A    -11.224811
      10A    -11.222526    11A     -1.164334    12A     -1.129859
      13A     -1.037425    14A     -1.004377    15A     -0.939202
      16A     -0.837455    17A     -0.833529    18A     -0.807511
      19A     -0.764272    20A     -0.688724    21A     -0.653610
      22A     -0.632494    23A     -0.627381    24A     -0.600244
      25A     -0.573461    26A     -0.573060    27A     -0.538103
      28A     -0.531074    29A     -0.513196    30A     -0.490354
      31A     -0.481591    32A     -0.478386    33A     -0.426418
      34A     -0.411015    35A     -0.331106    36A     -0.308474

  @DF-RHF Final Energy:  -385.76537120474427

   => Energetics <=

    Nuclear Repulsion Energy =            482.4367090395254536
    One-Electron Energy =               -1477.0577119508111537
    Two-Electron Energy =                 608.8556317065414305
    Total Energy =                       -385.7653712047442696
  Basis Set: (AUG-CC-PVTZ AUX)
    Blend: AUG-CC-PVTZ-RI
    Molecular point group: c1

    Geometry (in Angstrom), charge = 0, multiplicity = 1:

       Center              X                  Y                   Z               Mass
    ------------   -----------------  -----------------  -----------------  -----------------
         C           -2.120485239821    -0.002343023416    -0.517555210041    12.000000000000
         C           -3.023781239821     0.749899976584     0.424905789959    12.000000000000
         C           -3.023781239821    -0.754582023416     0.424908789959    12.000000000000
         C           -0.685057739821     0.023437476584    -0.304598910041    12.000000000000
         C            0.068295760179     1.200647976584    -0.210127210041    12.000000000000
         C            0.068295760179    -1.205333023416    -0.210127210041    12.000000000000
         C            1.452288760179     1.198983976584    -0.036153210041    12.000000000000
         C            1.452289760179    -1.203668023416    -0.036153210041    12.000000000000
         C            2.167394760179    -0.002342023416     0.051775789959    12.000000000000
         C            3.656221760179    -0.002341023416     0.283984789959    12.000000000000
         H           -2.431369239821    -0.002346023416    -1.561908210041     1.007825032230
         H           -3.884765239821     1.267582976584     0.014157789959     1.007825032230
         H           -2.553766239821     1.251114976584     1.265130789959     1.007825032230
         H           -2.553766239821    -1.255795023416     1.265135789959     1.007825032230
         H           -3.884766239821    -1.272266023416     0.014163789959     1.007825032230
         H           -0.470749239821     2.144082976584    -0.278687210041     1.007825032230
         H           -0.470748239821    -2.148769023416    -0.278687210041     1.007825032230
         H            1.986837760179     2.145892976584     0.029165789959     1.007825032230
         H            1.986838760179    -2.150577023416     0.029165789959     1.007825032230
         H            4.123194760179    -0.887692023416    -0.157112210041     1.007825032230
         H            4.123194760179     0.883009976584    -0.157111210041     1.007825032230
         H            3.890779760179    -0.002342023416     1.354231789959     1.007825032230

  Basis Set: AUG-CC-PVTZ
    Blend: AUG-CC-PVTZ
  Basis Set: (AUG-CC-PVTZ AUX)
    Blend: AUG-CC-PVTZ-JKFIT
	 Reference Energy          =    -385.7653712047442696 [Eh]
	 Singles Energy            =      -0.0000000000000000 [Eh]
	 Same-Spin Energy          =      -0.4322440902618596 [Eh]
	 Opposite-Spin Energy      =      -1.4124224265756160 [Eh]
	 Correlation Energy        =      -1.8446665168374756 [Eh]
	 Total Energy              =    -387.6100377215817616 [Eh]

	 ================> DF-SCS-MP2 Energies <==================
	-----------------------------------------------------------
	 SCS Same-Spin Scale       =       0.3333333333333333 [-]
	 SCS Opposite-Spin Scale   =       1.2000000000000000 [-]
	 SCS Same-Spin Energy      =      -0.1440813634206198 [Eh]
	 SCS Opposite-Spin Energy  =      -1.6949069118907392 [Eh]
	 SCS Correlation Energy    =      -1.8389882753113591 [Eh]
	 SCS Total Energy          =    -387.6043594800556207 [Eh]
	-----------------------------------------------------------

  Dipole Moment: [D]
     X:     0.0530      Y:    -0.0065      Z:     0.0321     Total:     0.0623

*** Psi4 exiting successfully. Buy a developer a beer!
