                               Psi4 1.4a3.dev225

  ==> Input File <==

--------------------------------------------------------------------------
#psi4
#
memory 32 gb

molecule  {
0 1
  C       -2.1229620    -0.0000010    -0.5285820
  C       -3.0675573     0.7365586     0.3853466
  C       -3.0262580    -0.7522400     0.4138820
  C       -0.6463130    -0.0000010    -0.3104390
  C        0.0658190     1.2029900    -0.2211540
  C        0.0658190    -1.2029910    -0.2211540
  C        1.4498120     1.2013260    -0.0471800
  C        1.4498130    -1.2013260    -0.0471800
  C        2.1649180     0.0000000     0.0407490
  C        3.6537450     0.0000010     0.2729580
  H       -2.4338460    -0.0000040    -1.5729350
  H       -3.8872420     1.2699250     0.0031310
  H       -2.5562430     1.2534570     1.2541040
  H       -2.5562430    -1.2534530     1.2541090
  H       -3.8872430    -1.2699240     0.0031370
  H       -0.4732260     2.1464250    -0.2897140
  H       -0.4732250    -2.1464270    -0.2897140
  H        1.9843610     2.1482350     0.0181390
  H        1.9843620    -2.1482350     0.0181390
  H        4.1207180    -0.8853500    -0.1681390
  H        4.1207180     0.8853520    -0.1681380
  H        3.8883030     0.0000000     1.3432050
units angstrom
no_reorient  #important for SAPT in psi4, default
symmetry c1  #important for SAPT in psi4, default
}

set PROPERTIES_ORIGIN ["COM"]
properties('MP2/aug-cc-pvtz', properties = ['dipole'])
--------------------------------------------------------------------------

    Molecular point group: c1
  Charge       = 0
  Multiplicity = 1
  Basis Set: AUG-CC-PVTZ
    Blend: AUG-CC-PVTZ
  Basis Set: (AUG-CC-PVTZ AUX)
    Blend: AUG-CC-PVTZ-JKFIT

    Orbital Energies [Eh]
    ---------------------

    Doubly Occupied:

       1A    -11.238035     2A    -11.234575     3A    -11.232420
       4A    -11.229412     5A    -11.229102     6A    -11.227588
       7A    -11.227400     8A    -11.224986     9A    -11.224030
      10A    -11.222503    11A     -1.164043    12A     -1.131621
      13A     -1.039806    14A     -1.006814    15A     -0.937121
      16A     -0.833441    17A     -0.832097    18A     -0.808916
      19A     -0.765477    20A     -0.685530    21A     -0.657566
      22A     -0.633886    23A     -0.626804    24A     -0.597737
      25A     -0.577121    26A     -0.573207    27A     -0.538594
      28A     -0.527944    29A     -0.508371    30A     -0.490459
      31A     -0.483649    32A     -0.476199    33A     -0.428213
      34A     -0.410002    35A     -0.331537    36A     -0.312514

  @DF-RHF Final Energy:  -385.76631792651159

   => Energetics <=

    Nuclear Repulsion Energy =            482.4540585826882761
    One-Electron Energy =               -1477.1033159564151447
    Two-Electron Energy =                 608.8829394472152217
    Total Energy =                       -385.7663179265116469
  Basis Set: (AUG-CC-PVTZ AUX)
    Blend: AUG-CC-PVTZ-RI
    Molecular point group: c1

    Geometry (in Angstrom), charge = 0, multiplicity = 1:

       Center              X                  Y                   Z               Mass
    ------------   -----------------  -----------------  -----------------  -----------------
         C           -2.120478172121     0.001423742487    -0.515434382363    12.000000000000
         C           -3.065073472121     0.737983342487     0.398494217637    12.000000000000
         C           -3.023774172121    -0.750815257513     0.427029617637    12.000000000000
         C           -0.643829172121     0.001423742487    -0.297291382363    12.000000000000
         C            0.068302827879     1.204414742487    -0.208006382363    12.000000000000
         C            0.068302827879    -1.201566257513    -0.208006382363    12.000000000000
         C            1.452295827879     1.202750742487    -0.034032382363    12.000000000000
         C            1.452296827879    -1.199901257513    -0.034032382363    12.000000000000
         C            2.167401827879     0.001424742487     0.053896617637    12.000000000000
         C            3.656228827879     0.001425742487     0.286105617637    12.000000000000
         H           -2.431362172121     0.001420742487    -1.559787382363     1.007825032230
         H           -3.884758172121     1.271349742487     0.016278617637     1.007825032230
         H           -2.553759172121     1.254881742487     1.267251617637     1.007825032230
         H           -2.553759172121    -1.252028257513     1.267256617637     1.007825032230
         H           -3.884759172121    -1.268499257513     0.016284617637     1.007825032230
         H           -0.470742172121     2.147849742487    -0.276566382363     1.007825032230
         H           -0.470741172121    -2.145002257513    -0.276566382363     1.007825032230
         H            1.986844827879     2.149659742487     0.031286617637     1.007825032230
         H            1.986845827879    -2.146810257513     0.031286617637     1.007825032230
         H            4.123201827879    -0.883925257513    -0.154991382363     1.007825032230
         H            4.123201827879     0.886776742487    -0.154990382363     1.007825032230
         H            3.890786827879     0.001424742487     1.356352617637     1.007825032230

  Basis Set: AUG-CC-PVTZ
    Blend: AUG-CC-PVTZ
  Basis Set: (AUG-CC-PVTZ AUX)
    Blend: AUG-CC-PVTZ-JKFIT
	 Reference Energy          =    -385.7663179265115900 [Eh]
	 Singles Energy            =      -0.0000000000000000 [Eh]
	 Same-Spin Energy          =      -0.4317799915243276 [Eh]
	 Opposite-Spin Energy      =      -1.4115526094406414 [Eh]
	 Correlation Energy        =      -1.8433326009649691 [Eh]
	 Total Energy              =    -387.6096505274765605 [Eh]

	 ================> DF-SCS-MP2 Energies <==================
	-----------------------------------------------------------
	 SCS Same-Spin Scale       =       0.3333333333333333 [-]
	 SCS Opposite-Spin Scale   =       1.2000000000000000 [-]
	 SCS Same-Spin Energy      =      -0.1439266638414425 [Eh]
	 SCS Opposite-Spin Energy  =      -1.6938631313287698 [Eh]
	 SCS Correlation Energy    =      -1.8377897951702122 [Eh]
	 SCS Total Energy          =    -387.6041077216818280 [Eh]
	-----------------------------------------------------------

  Dipole Moment: [D]
     X:     0.1071      Y:     0.0070      Z:     0.0217     Total:     0.1095

*** Psi4 exiting successfully. Buy a developer a beer!
