                               Psi4 1.4a3.dev225

  ==> Input File <==

--------------------------------------------------------------------------
#psi4
#
memory 32 gb

molecule  {
0 1
  C       -2.1229620    -0.0000010    -0.5285820
  C       -2.9315374     0.7485772     0.4590669
  C       -3.0262580    -0.7522400     0.4138820
  C       -0.6463130    -0.0000010    -0.3104390
  C        0.0658190     1.2029900    -0.2211540
  C        0.0658190    -1.2029910    -0.2211540
  C        1.4498120     1.2013260    -0.0471800
  C        1.4498130    -1.2013260    -0.0471800
  C        2.1649180     0.0000000     0.0407490
  C        3.6537450     0.0000010     0.2729580
  H       -2.4338460    -0.0000040    -1.5729350
  H       -3.8872420     1.2699250     0.0031310
  H       -2.5562430     1.2534570     1.2541040
  H       -2.5562430    -1.2534530     1.2541090
  H       -3.8872430    -1.2699240     0.0031370
  H       -0.4732260     2.1464250    -0.2897140
  H       -0.4732250    -2.1464270    -0.2897140
  H        1.9843610     2.1482350     0.0181390
  H        1.9843620    -2.1482350     0.0181390
  H        4.1207180    -0.8853500    -0.1681390
  H        4.1207180     0.8853520    -0.1681380
  H        3.8883030     0.0000000     1.3432050
units angstrom
no_reorient  #important for SAPT in psi4, default
symmetry c1  #important for SAPT in psi4, default
}

set PROPERTIES_ORIGIN ["COM"]
properties('MP2/aug-cc-pvtz', properties = ['dipole'])
--------------------------------------------------------------------------

    Molecular point group: c1
  Charge       = 0
  Multiplicity = 1
  Basis Set: AUG-CC-PVTZ
    Blend: AUG-CC-PVTZ
  Basis Set: (AUG-CC-PVTZ AUX)
    Blend: AUG-CC-PVTZ-JKFIT

    Orbital Energies [Eh]
    ---------------------

    Doubly Occupied:

       1A    -11.237854     2A    -11.233760     3A    -11.233001
       4A    -11.229270     5A    -11.228573     6A    -11.227640
       7A    -11.227173     8A    -11.225764     9A    -11.223826
      10A    -11.222460    11A     -1.166920    12A     -1.132550
      13A     -1.038871    14A     -1.006758    15A     -0.936297
      16A     -0.836077    17A     -0.832402    18A     -0.809661
      19A     -0.767839    20A     -0.689555    21A     -0.648452
      22A     -0.633651    23A     -0.628992    24A     -0.604146
      25A     -0.577008    26A     -0.573104    27A     -0.538549
      28A     -0.527918    29A     -0.508896    30A     -0.487479
      31A     -0.483455    32A     -0.475688    33A     -0.425492
      34A     -0.412437    35A     -0.331528    36A     -0.312213

  @DF-RHF Final Energy:  -385.75688218347352

   => Energetics <=

    Nuclear Repulsion Energy =            483.6084754813818449
    One-Electron Energy =               -1479.3801964361480259
    Two-Electron Energy =                 610.0148387712926024
    Total Energy =                       -385.7568821834735218
  Basis Set: (AUG-CC-PVTZ AUX)
    Blend: AUG-CC-PVTZ-RI
    Molecular point group: c1

    Geometry (in Angstrom), charge = 0, multiplicity = 1:

       Center              X                  Y                   Z               Mass
    ------------   -----------------  -----------------  -----------------  -----------------
         C           -2.132834827464     0.000331919174    -0.522131463738    12.000000000000
         C           -2.941410227464     0.748910119174     0.465517436262    12.000000000000
         C           -3.036130827464    -0.751907080826     0.420332536262    12.000000000000
         C           -0.656185827464     0.000331919174    -0.303988463738    12.000000000000
         C            0.055946172536     1.203322919174    -0.214703463738    12.000000000000
         C            0.055946172536    -1.202658080826    -0.214703463738    12.000000000000
         C            1.439939172536     1.201658919174    -0.040729463738    12.000000000000
         C            1.439940172536    -1.200993080826    -0.040729463738    12.000000000000
         C            2.155045172536     0.000332919174     0.047199536262    12.000000000000
         C            3.643872172536     0.000333919174     0.279408536262    12.000000000000
         H           -2.443718827464     0.000328919174    -1.566484463738     1.007825032230
         H           -3.897114827464     1.270257919174     0.009581536262     1.007825032230
         H           -2.566115827464     1.253789919174     1.260554536262     1.007825032230
         H           -2.566115827464    -1.253120080826     1.260559536262     1.007825032230
         H           -3.897115827464    -1.269591080826     0.009587536262     1.007825032230
         H           -0.483098827464     2.146757919174    -0.283263463738     1.007825032230
         H           -0.483097827464    -2.146094080826    -0.283263463738     1.007825032230
         H            1.974488172536     2.148567919174     0.024589536262     1.007825032230
         H            1.974489172536    -2.147902080826     0.024589536262     1.007825032230
         H            4.110845172536    -0.885017080826    -0.161688463738     1.007825032230
         H            4.110845172536     0.885684919174    -0.161687463738     1.007825032230
         H            3.878430172536     0.000332919174     1.349655536262     1.007825032230

  Basis Set: AUG-CC-PVTZ
    Blend: AUG-CC-PVTZ
  Basis Set: (AUG-CC-PVTZ AUX)
    Blend: AUG-CC-PVTZ-JKFIT
	 Reference Energy          =    -385.7568821834735218 [Eh]
	 Singles Energy            =      -0.0000000000000000 [Eh]
	 Same-Spin Energy          =      -0.4319812379544262 [Eh]
	 Opposite-Spin Energy      =      -1.4121076005110629 [Eh]
	 Correlation Energy        =      -1.8440888384654892 [Eh]
	 Total Energy              =    -387.6009710219390172 [Eh]

	 ================> DF-SCS-MP2 Energies <==================
	-----------------------------------------------------------
	 SCS Same-Spin Scale       =       0.3333333333333333 [-]
	 SCS Opposite-Spin Scale   =       1.2000000000000000 [-]
	 SCS Same-Spin Energy      =      -0.1439937459848087 [Eh]
	 SCS Opposite-Spin Energy  =      -1.6945291206132753 [Eh]
	 SCS Correlation Energy    =      -1.8385228665980839 [Eh]
	 SCS Total Energy          =    -387.5954050500716335 [Eh]
	-----------------------------------------------------------

  Dipole Moment: [D]
     X:     0.1473      Y:    -0.0298      Z:     0.0443     Total:     0.1566

*** Psi4 exiting successfully. Buy a developer a beer!
