                               Psi4 1.4a3.dev225

  ==> Input File <==

--------------------------------------------------------------------------
#psi4
#
memory 32 gb

molecule  {
0 1
  C       -2.1229620    -0.0000010    -0.5285820
  C       -3.0262580     0.7522420     0.4138790
  C       -3.0262580    -0.7522400     0.4138820
  C       -0.6463130    -0.0000010    -0.3104390
  C        0.0658190     1.2029900    -0.2211540
  C        0.0658190    -1.2029910    -0.2211540
  C        1.6482502     1.2010874    -0.0222354
  C        1.4498130    -1.2013260    -0.0471800
  C        2.1649180     0.0000000     0.0407490
  C        3.6537450     0.0000010     0.2729580
  H       -2.4338460    -0.0000040    -1.5729350
  H       -3.8872420     1.2699250     0.0031310
  H       -2.5562430     1.2534570     1.2541040
  H       -2.5562430    -1.2534530     1.2541090
  H       -3.8872430    -1.2699240     0.0031370
  H       -0.4732260     2.1464250    -0.2897140
  H       -0.4732250    -2.1464270    -0.2897140
  H        1.9843610     2.1482350     0.0181390
  H        1.9843620    -2.1482350     0.0181390
  H        4.1207180    -0.8853500    -0.1681390
  H        4.1207180     0.8853520    -0.1681380
  H        3.8883030     0.0000000     1.3432050
units angstrom
no_reorient  #important for SAPT in psi4, default
symmetry c1  #important for SAPT in psi4, default
}

set PROPERTIES_ORIGIN ["COM"]
properties('MP2/aug-cc-pvtz', properties = ['dipole'])
--------------------------------------------------------------------------

    Molecular point group: c1
  Charge       = 0
  Multiplicity = 1
  Basis Set: AUG-CC-PVTZ
    Blend: AUG-CC-PVTZ
  Basis Set: (AUG-CC-PVTZ AUX)
    Blend: AUG-CC-PVTZ-JKFIT

    Orbital Energies [Eh]
    ---------------------

    Doubly Occupied:

       1A    -11.243790     2A    -11.234647     3A    -11.233708
       4A    -11.233244     5A    -11.230485     6A    -11.229461
       7A    -11.227521     8A    -11.225023     9A    -11.224270
      10A    -11.216827    11A     -1.161349    12A     -1.132104
      13A     -1.048214    14A     -0.990886    15A     -0.931643
      16A     -0.844548    17A     -0.828131    18A     -0.813763
      19A     -0.766659    20A     -0.687612    21A     -0.652267
      22A     -0.650689    23A     -0.627032    24A     -0.601670
      25A     -0.573121    26A     -0.571838    27A     -0.536749
      28A     -0.522458    29A     -0.512321    30A     -0.504794
      31A     -0.480760    32A     -0.448003    33A     -0.424236
      34A     -0.412198    35A     -0.332873    36A     -0.310890

  @DF-RHF Final Energy:  -385.72725366108114

   => Energetics <=

    Nuclear Repulsion Energy =            481.2546946961048207
    One-Electron Energy =               -1474.6323293350651511
    Two-Electron Energy =                 607.6503809778791947
    Total Energy =                       -385.7272536610811358
  Basis Set: (AUG-CC-PVTZ AUX)
    Blend: AUG-CC-PVTZ-RI
    Molecular point group: c1

    Geometry (in Angstrom), charge = 0, multiplicity = 1:

       Center              X                  Y                   Z               Mass
    ------------   -----------------  -----------------  -----------------  -----------------
         C           -2.142256997575     0.000020667860    -0.520292471935    12.000000000000
         C           -3.045552997575     0.752263667860     0.422168528065    12.000000000000
         C           -3.045552997575    -0.752218332140     0.422171528065    12.000000000000
         C           -0.665607997575     0.000020667860    -0.302149471935    12.000000000000
         C            0.046524002425     1.203011667860    -0.212864471935    12.000000000000
         C            0.046524002425    -1.202969332140    -0.212864471935    12.000000000000
         C            1.628955202425     1.201109067860    -0.013945871935    12.000000000000
         C            1.430518002425    -1.201304332140    -0.038890471935    12.000000000000
         C            2.145623002425     0.000021667860     0.049038528065    12.000000000000
         C            3.634450002425     0.000022667860     0.281247528065    12.000000000000
         H           -2.453140997575     0.000017667860    -1.564645471935     1.007825032230
         H           -3.906536997575     1.269946667860     0.011420528065     1.007825032230
         H           -2.575537997575     1.253478667860     1.262393528065     1.007825032230
         H           -2.575537997575    -1.253431332140     1.262398528065     1.007825032230
         H           -3.906537997575    -1.269902332140     0.011426528065     1.007825032230
         H           -0.492520997575     2.146446667860    -0.281424471935     1.007825032230
         H           -0.492519997575    -2.146405332140    -0.281424471935     1.007825032230
         H            1.965066002425     2.148256667860     0.026428528065     1.007825032230
         H            1.965067002425    -2.148213332140     0.026428528065     1.007825032230
         H            4.101423002425    -0.885328332140    -0.159849471935     1.007825032230
         H            4.101423002425     0.885373667860    -0.159848471935     1.007825032230
         H            3.869008002425     0.000021667860     1.351494528065     1.007825032230

  Basis Set: AUG-CC-PVTZ
    Blend: AUG-CC-PVTZ
  Basis Set: (AUG-CC-PVTZ AUX)
    Blend: AUG-CC-PVTZ-JKFIT
	 Reference Energy          =    -385.7272536610811358 [Eh]
	 Singles Energy            =      -0.0000000000000000 [Eh]
	 Same-Spin Energy          =      -0.4313311404090975 [Eh]
	 Opposite-Spin Energy      =      -1.4140800127720612 [Eh]
	 Correlation Energy        =      -1.8454111531811588 [Eh]
	 Total Energy              =    -387.5726648142622821 [Eh]

	 ================> DF-SCS-MP2 Energies <==================
	-----------------------------------------------------------
	 SCS Same-Spin Scale       =       0.3333333333333333 [-]
	 SCS Opposite-Spin Scale   =       1.2000000000000000 [-]
	 SCS Same-Spin Energy      =      -0.1437770468030325 [Eh]
	 SCS Opposite-Spin Energy  =      -1.6968960153264734 [Eh]
	 SCS Correlation Energy    =      -1.8406730621295058 [Eh]
	 SCS Total Energy          =    -387.5679267232106326 [Eh]
	-----------------------------------------------------------

  Dipole Moment: [D]
     X:    -0.0045      Y:     0.0292      Z:     0.0150     Total:     0.0331

*** Psi4 exiting successfully. Buy a developer a beer!
