                               Psi4 1.4a3.dev225

  ==> Input File <==

--------------------------------------------------------------------------
#psi4
#
memory 32 gb

molecule  {
0 1
  C       -2.1229620    -0.0000010    -0.5285820
  C       -3.0262580     0.7522420     0.4138790
  C       -3.0262580    -0.7522400     0.4138820
  C       -0.6463130    -0.0000010    -0.3104390
  C        0.0658190     1.2029900    -0.2211540
  C        0.0658190    -1.2029910    -0.2211540
  C        1.4002025     1.2013856    -0.0534161
  C        1.4498130    -1.2013260    -0.0471800
  C        2.1649180     0.0000000     0.0407490
  C        3.6537450     0.0000010     0.2729580
  H       -2.4338460    -0.0000040    -1.5729350
  H       -3.8872420     1.2699250     0.0031310
  H       -2.5562430     1.2534570     1.2541040
  H       -2.5562430    -1.2534530     1.2541090
  H       -3.8872430    -1.2699240     0.0031370
  H       -0.4732260     2.1464250    -0.2897140
  H       -0.4732250    -2.1464270    -0.2897140
  H        1.9843610     2.1482350     0.0181390
  H        1.9843620    -2.1482350     0.0181390
  H        4.1207180    -0.8853500    -0.1681390
  H        4.1207180     0.8853520    -0.1681380
  H        3.8883030     0.0000000     1.3432050
units angstrom
no_reorient  #important for SAPT in psi4, default
symmetry c1  #important for SAPT in psi4, default
}

set PROPERTIES_ORIGIN ["COM"]
properties('MP2/aug-cc-pvtz', properties = ['dipole'])
--------------------------------------------------------------------------

    Molecular point group: c1
  Charge       = 0
  Multiplicity = 1
  Basis Set: AUG-CC-PVTZ
    Blend: AUG-CC-PVTZ
  Basis Set: (AUG-CC-PVTZ AUX)
    Blend: AUG-CC-PVTZ-JKFIT

    Orbital Energies [Eh]
    ---------------------

    Doubly Occupied:

       1A    -11.240311     2A    -11.233922     3A    -11.232817
       4A    -11.228112     5A    -11.227441     6A    -11.226655
       7A    -11.224549     8A    -11.223967     9A    -11.223889
      10A    -11.222963    11A     -1.164585    12A     -1.130463
      13A     -1.038309    14A     -1.011797    15A     -0.937486
      16A     -0.833223    17A     -0.830874    18A     -0.806314
      19A     -0.766816    20A     -0.687102    21A     -0.653088
      22A     -0.636013    23A     -0.623978    24A     -0.596669
      25A     -0.577238    26A     -0.573419    27A     -0.540050
      28A     -0.528766    29A     -0.512262    30A     -0.492776
      31A     -0.479814    32A     -0.475135    33A     -0.424183
      34A     -0.412412    35A     -0.337617    36A     -0.308358

  @DF-RHF Final Energy:  -385.76633400482660

   => Energetics <=

    Nuclear Repulsion Energy =            483.0459026895554757
    One-Electron Energy =               -1478.2977308204986002
    Two-Electron Energy =                 609.4854941261164640
    Total Energy =                       -385.7663340048266036
  Basis Set: (AUG-CC-PVTZ AUX)
    Blend: AUG-CC-PVTZ-RI
    Molecular point group: c1

    Geometry (in Angstrom), charge = 0, multiplicity = 1:

       Center              X                  Y                   Z               Mass
    ------------   -----------------  -----------------  -----------------  -----------------
         C           -2.119723236430    -0.000006421960    -0.517459877857    12.000000000000
         C           -3.023019236430     0.752236578040     0.425001122143    12.000000000000
         C           -3.023019236430    -0.752245421960     0.425004122143    12.000000000000
         C           -0.643074236430    -0.000006421960    -0.299316877857    12.000000000000
         C            0.069057763570     1.202984578040    -0.210031877857    12.000000000000
         C            0.069057763570    -1.202996421960    -0.210031877857    12.000000000000
         C            1.403441263570     1.201380178040    -0.042293977857    12.000000000000
         C            1.453051763570    -1.201331421960    -0.036057877857    12.000000000000
         C            2.168156763570    -0.000005421960     0.051871122143    12.000000000000
         C            3.656983763570    -0.000004421960     0.284080122143    12.000000000000
         H           -2.430607236430    -0.000009421960    -1.561812877857     1.007825032230
         H           -3.884003236430     1.269919578040     0.014253122143     1.007825032230
         H           -2.553004236430     1.253451578040     1.265226122143     1.007825032230
         H           -2.553004236430    -1.253458421960     1.265231122143     1.007825032230
         H           -3.884004236430    -1.269929421960     0.014259122143     1.007825032230
         H           -0.469987236430     2.146419578040    -0.278591877857     1.007825032230
         H           -0.469986236430    -2.146432421960    -0.278591877857     1.007825032230
         H            1.987599763570     2.148229578040     0.029261122143     1.007825032230
         H            1.987600763570    -2.148240421960     0.029261122143     1.007825032230
         H            4.123956763570    -0.885355421960    -0.157016877857     1.007825032230
         H            4.123956763570     0.885346578040    -0.157015877857     1.007825032230
         H            3.891541763570    -0.000005421960     1.354327122143     1.007825032230

  Basis Set: AUG-CC-PVTZ
    Blend: AUG-CC-PVTZ
  Basis Set: (AUG-CC-PVTZ AUX)
    Blend: AUG-CC-PVTZ-JKFIT
	 Reference Energy          =    -385.7663340048266036 [Eh]
	 Singles Energy            =      -0.0000000000000000 [Eh]
	 Same-Spin Energy          =      -0.4317217595953690 [Eh]
	 Opposite-Spin Energy      =      -1.4115067574960514 [Eh]
	 Correlation Energy        =      -1.8432285170914202 [Eh]
	 Total Energy              =    -387.6095625219180079 [Eh]

	 ================> DF-SCS-MP2 Energies <==================
	-----------------------------------------------------------
	 SCS Same-Spin Scale       =       0.3333333333333333 [-]
	 SCS Opposite-Spin Scale   =       1.2000000000000000 [-]
	 SCS Same-Spin Energy      =      -0.1439072531984563 [Eh]
	 SCS Opposite-Spin Energy  =      -1.6938081089952617 [Eh]
	 SCS Correlation Energy    =      -1.8377153621937179 [Eh]
	 SCS Total Energy          =    -387.6040493670203091 [Eh]
	-----------------------------------------------------------

  Dipole Moment: [D]
     X:     0.1444      Y:    -0.0154      Z:     0.0323     Total:     0.1487

*** Psi4 exiting successfully. Buy a developer a beer!
