                               Psi4 1.4a3.dev225

  ==> Input File <==

--------------------------------------------------------------------------
#psi4
#
memory 32 gb

molecule  {
0 1
  C       -2.1229620    -0.0000010    -0.5285820
  C       -3.0262580     0.7522420     0.4138790
  C       -3.0262580    -0.7522400     0.4138820
  C       -0.6463130    -0.0000010    -0.3104390
  C        0.0658190     1.2029900    -0.2211540
  C        0.0658190    -1.2029910    -0.2211540
  C        1.4498120     1.2013260    -0.0471800
  C        1.4498130    -1.2013260    -0.0471800
  C        2.1649180     0.0000000     0.0407490
  C        3.6537450     0.0000010     0.2729580
  H       -2.4338460    -0.0000040    -1.5729350
  H       -3.8872420     1.2699250     0.0031310
  H       -2.5649036     1.2442215     1.2386218
  H       -2.5562430    -1.2534530     1.2541090
  H       -3.8872430    -1.2699240     0.0031370
  H       -0.4732260     2.1464250    -0.2897140
  H       -0.4732250    -2.1464270    -0.2897140
  H        1.9843610     2.1482350     0.0181390
  H        1.9843620    -2.1482350     0.0181390
  H        4.1207180    -0.8853500    -0.1681390
  H        4.1207180     0.8853520    -0.1681380
  H        3.8883030     0.0000000     1.3432050
units angstrom
no_reorient  #important for SAPT in psi4, default
symmetry c1  #important for SAPT in psi4, default
}

set PROPERTIES_ORIGIN ["COM"]
properties('MP2/aug-cc-pvtz', properties = ['dipole'])
--------------------------------------------------------------------------

    Molecular point group: c1
  Charge       = 0
  Multiplicity = 1
  Basis Set: AUG-CC-PVTZ
    Blend: AUG-CC-PVTZ
  Basis Set: (AUG-CC-PVTZ AUX)
    Blend: AUG-CC-PVTZ-JKFIT

    Orbital Energies [Eh]
    ---------------------

    Doubly Occupied:

       1A    -11.237929     2A    -11.234084     3A    -11.232835
       4A    -11.229168     5A    -11.229008     6A    -11.227467
       7A    -11.227398     8A    -11.224226     9A    -11.222462
      10A    -11.221948    11A     -1.163445    12A     -1.130272
      13A     -1.039169    14A     -1.006748    15A     -0.936698
      16A     -0.834900    17A     -0.831909    18A     -0.809766
      19A     -0.766111    20A     -0.687732    21A     -0.652356
      22A     -0.633764    23A     -0.626583    24A     -0.600221
      25A     -0.577046    26A     -0.573156    27A     -0.538444
      28A     -0.528867    29A     -0.513882    30A     -0.489750
      31A     -0.483705    32A     -0.476200    33A     -0.424152
      34A     -0.412804    35A     -0.331513    36A     -0.312271

  @DF-RHF Final Energy:  -385.76960644877170

   => Energetics <=

    Nuclear Repulsion Energy =            482.7039658991657802
    One-Electron Energy =               -1477.6111676331415765
    Two-Electron Energy =                 609.1375952852041564
    Total Energy =                       -385.7696064487716967
  Basis Set: (AUG-CC-PVTZ AUX)
    Blend: AUG-CC-PVTZ-RI
    Molecular point group: c1

    Geometry (in Angstrom), charge = 0, multiplicity = 1:

       Center              X                  Y                   Z               Mass
    ------------   -----------------  -----------------  -----------------  -----------------
         C           -2.124163908019     0.000069455640    -0.517908269881    12.000000000000
         C           -3.027459908019     0.752312455640     0.424552730119    12.000000000000
         C           -3.027459908019    -0.752169544360     0.424555730119    12.000000000000
         C           -0.647514908019     0.000069455640    -0.299765269881    12.000000000000
         C            0.064617091981     1.203060455640    -0.210480269881    12.000000000000
         C            0.064617091981    -1.202920544360    -0.210480269881    12.000000000000
         C            1.448610091981     1.201396455640    -0.036506269881    12.000000000000
         C            1.448611091981    -1.201255544360    -0.036506269881    12.000000000000
         C            2.163716091981     0.000070455640     0.051422730119    12.000000000000
         C            3.652543091981     0.000071455640     0.283631730119    12.000000000000
         H           -2.435047908019     0.000066455640    -1.562261269881     1.007825032230
         H           -3.888443908019     1.269995455640     0.013804730119     1.007825032230
         H           -2.566105508019     1.244291955640     1.249295530119     1.007825032230
         H           -2.557444908019    -1.253382544360     1.264782730119     1.007825032230
         H           -3.888444908019    -1.269853544360     0.013810730119     1.007825032230
         H           -0.474427908019     2.146495455640    -0.279040269881     1.007825032230
         H           -0.474426908019    -2.146356544360    -0.279040269881     1.007825032230
         H            1.983159091981     2.148305455640     0.028812730119     1.007825032230
         H            1.983160091981    -2.148164544360     0.028812730119     1.007825032230
         H            4.119516091981    -0.885279544360    -0.157465269881     1.007825032230
         H            4.119516091981     0.885422455640    -0.157464269881     1.007825032230
         H            3.887101091981     0.000070455640     1.353878730119     1.007825032230

  Basis Set: AUG-CC-PVTZ
    Blend: AUG-CC-PVTZ
  Basis Set: (AUG-CC-PVTZ AUX)
    Blend: AUG-CC-PVTZ-JKFIT
	 Reference Energy          =    -385.7696064487716967 [Eh]
	 Singles Energy            =      -0.0000000000000000 [Eh]
	 Same-Spin Energy          =      -0.4316971312608436 [Eh]
	 Opposite-Spin Energy      =      -1.4113789451912453 [Eh]
	 Correlation Energy        =      -1.8430760764520888 [Eh]
	 Total Energy              =    -387.6126825252237609 [Eh]

	 ================> DF-SCS-MP2 Energies <==================
	-----------------------------------------------------------
	 SCS Same-Spin Scale       =       0.3333333333333333 [-]
	 SCS Opposite-Spin Scale   =       1.2000000000000000 [-]
	 SCS Same-Spin Energy      =      -0.1438990437536145 [Eh]
	 SCS Opposite-Spin Energy  =      -1.6936547342294943 [Eh]
	 SCS Correlation Energy    =      -1.8375537779831088 [Eh]
	 SCS Total Energy          =    -387.6071602267547860 [Eh]
	-----------------------------------------------------------

  Dipole Moment: [D]
     X:     0.1169      Y:     0.0045      Z:     0.0332     Total:     0.1216

*** Psi4 exiting successfully. Buy a developer a beer!
