                               Psi4 1.4a3.dev225

  ==> Input File <==

--------------------------------------------------------------------------
#psi4
#
memory 32 gb

molecule  {
0 1
  C       -2.1229620    -0.0000010    -0.5285820
  C       -3.0262580     0.7522420     0.4138790
  C       -3.0262580    -0.7522400     0.4138820
  C       -0.6463130    -0.0000010    -0.3104390
  C        0.0658190     1.2029900    -0.2211540
  C        0.0658190    -1.2029910    -0.2211540
  C        1.4498120     1.2013260    -0.0471800
  C        1.4498130    -1.2013260    -0.0471800
  C        2.1649180     0.0000000     0.0407490
  C        3.6537450     0.0000010     0.2729580
  H       -2.4338460    -0.0000040    -1.5729350
  H       -3.8872420     1.2699250     0.0031310
  H       -2.4696368     1.3458122     1.4089261
  H       -2.5562430    -1.2534530     1.2541090
  H       -3.8872430    -1.2699240     0.0031370
  H       -0.4732260     2.1464250    -0.2897140
  H       -0.4732250    -2.1464270    -0.2897140
  H        1.9843610     2.1482350     0.0181390
  H        1.9843620    -2.1482350     0.0181390
  H        4.1207180    -0.8853500    -0.1681390
  H        4.1207180     0.8853520    -0.1681380
  H        3.8883030     0.0000000     1.3432050
units angstrom
no_reorient  #important for SAPT in psi4, default
symmetry c1  #important for SAPT in psi4, default
}

set PROPERTIES_ORIGIN ["COM"]
properties('MP2/aug-cc-pvtz', properties = ['dipole'])
--------------------------------------------------------------------------

    Molecular point group: c1
  Charge       = 0
  Multiplicity = 1
  Basis Set: AUG-CC-PVTZ
    Blend: AUG-CC-PVTZ
  Basis Set: (AUG-CC-PVTZ AUX)
    Blend: AUG-CC-PVTZ-JKFIT

    Orbital Energies [Eh]
    ---------------------

    Doubly Occupied:

       1A    -11.246031     2A    -11.237898     3A    -11.235571
       4A    -11.234266     5A    -11.229259     6A    -11.228958
       7A    -11.227392     8A    -11.227273     9A    -11.226526
      10A    -11.222412    11A     -1.163386    12A     -1.129972
      13A     -1.039052    14A     -1.006682    15A     -0.936557
      16A     -0.833393    17A     -0.827770    18A     -0.800976
      19A     -0.762962    20A     -0.681175    21A     -0.654352
      22A     -0.633737    23A     -0.625124    24A     -0.592268
      25A     -0.576986    26A     -0.573059    27A     -0.538457
      28A     -0.527196    29A     -0.492297    30A     -0.489594
      31A     -0.483512    32A     -0.475147    33A     -0.425830
      34A     -0.412369    35A     -0.331332    36A     -0.312287

  @DF-RHF Final Energy:  -385.74809571924084

   => Energetics <=

    Nuclear Repulsion Energy =            481.8798345232530664
    One-Electron Energy =               -1475.9737448831883739
    Two-Electron Energy =                 608.3458146406944707
    Total Energy =                       -385.7480957192408368
  Basis Set: (AUG-CC-PVTZ AUX)
    Blend: AUG-CC-PVTZ-RI
    Molecular point group: c1

    Geometry (in Angstrom), charge = 0, multiplicity = 1:

       Center              X                  Y                   Z               Mass
    ------------   -----------------  -----------------  -----------------  -----------------
         C           -2.124890756613    -0.000705641849    -0.519207625386    12.000000000000
         C           -3.028186756613     0.751537358151     0.423253374614    12.000000000000
         C           -3.028186756613    -0.752944641849     0.423256374614    12.000000000000
         C           -0.648241756613    -0.000705641849    -0.301064625386    12.000000000000
         C            0.063890243387     1.202285358151    -0.211779625386    12.000000000000
         C            0.063890243387    -1.203695641849    -0.211779625386    12.000000000000
         C            1.447883243387     1.200621358151    -0.037805625386    12.000000000000
         C            1.447884243387    -1.202030641849    -0.037805625386    12.000000000000
         C            2.162989243387    -0.000704641849     0.050123374614    12.000000000000
         C            3.651816243387    -0.000703641849     0.282332374614    12.000000000000
         H           -2.435774756613    -0.000708641849    -1.563560625386     1.007825032230
         H           -3.889170756613     1.269220358151     0.012505374614     1.007825032230
         H           -2.471565556613     1.345107558151     1.418300474614     1.007825032230
         H           -2.558171756613    -1.254157641849     1.263483374614     1.007825032230
         H           -3.889171756613    -1.270628641849     0.012511374614     1.007825032230
         H           -0.475154756613     2.145720358151    -0.280339625386     1.007825032230
         H           -0.475153756613    -2.147131641849    -0.280339625386     1.007825032230
         H            1.982432243387     2.147530358151     0.027513374614     1.007825032230
         H            1.982433243387    -2.148939641849     0.027513374614     1.007825032230
         H            4.118789243387    -0.886054641849    -0.158764625386     1.007825032230
         H            4.118789243387     0.884647358151    -0.158763625386     1.007825032230
         H            3.886374243387    -0.000704641849     1.352579374614     1.007825032230

  Basis Set: AUG-CC-PVTZ
    Blend: AUG-CC-PVTZ
  Basis Set: (AUG-CC-PVTZ AUX)
    Blend: AUG-CC-PVTZ-JKFIT
	 Reference Energy          =    -385.7480957192408368 [Eh]
	 Singles Energy            =      -0.0000000000000000 [Eh]
	 Same-Spin Energy          =      -0.4319042881131248 [Eh]
	 Opposite-Spin Energy      =      -1.4132264263792764 [Eh]
	 Correlation Energy        =      -1.8451307144924012 [Eh]
	 Total Energy              =    -387.5932264337332640 [Eh]

	 ================> DF-SCS-MP2 Energies <==================
	-----------------------------------------------------------
	 SCS Same-Spin Scale       =       0.3333333333333333 [-]
	 SCS Opposite-Spin Scale   =       1.2000000000000000 [-]
	 SCS Same-Spin Energy      =      -0.1439680960377082 [Eh]
	 SCS Opposite-Spin Energy  =      -1.6958717116551316 [Eh]
	 SCS Correlation Energy    =      -1.8398398076928399 [Eh]
	 SCS Total Energy          =    -387.5879355269336770 [Eh]
	-----------------------------------------------------------

  Dipole Moment: [D]
     X:     0.0991      Y:    -0.0656      Z:    -0.0338     Total:     0.1236

*** Psi4 exiting successfully. Buy a developer a beer!
