                               Psi4 1.4a3.dev225

  ==> Input File <==

--------------------------------------------------------------------------
#psi4
#
memory 32 gb

molecule  {
0 1
  C       -2.1145743    -0.1560147    -0.5294072
  C       -3.0262580     0.7522420     0.4138790
  C       -3.0262580    -0.7522400     0.4138820
  C       -0.6463130    -0.0000010    -0.3104390
  C        0.0658190     1.2029900    -0.2211540
  C        0.0658190    -1.2029910    -0.2211540
  C        1.4498120     1.2013260    -0.0471800
  C        1.4498130    -1.2013260    -0.0471800
  C        2.1649180     0.0000000     0.0407490
  C        3.6537450     0.0000010     0.2729580
  H       -2.4338460    -0.0000040    -1.5729350
  H       -3.8872420     1.2699250     0.0031310
  H       -2.5562430     1.2534570     1.2541040
  H       -2.5562430    -1.2534530     1.2541090
  H       -3.8872430    -1.2699240     0.0031370
  H       -0.4732260     2.1464250    -0.2897140
  H       -0.4732250    -2.1464270    -0.2897140
  H        1.9843610     2.1482350     0.0181390
  H        1.9843620    -2.1482350     0.0181390
  H        4.1207180    -0.8853500    -0.1681390
  H        4.1207180     0.8853520    -0.1681380
  H        3.8883030     0.0000000     1.3432050
units angstrom
no_reorient  #important for SAPT in psi4, default
symmetry c1  #important for SAPT in psi4, default
}

set PROPERTIES_ORIGIN ["COM"]
properties('MP2/aug-cc-pvtz', properties = ['dipole'])
--------------------------------------------------------------------------

    Molecular point group: c1
  Charge       = 0
  Multiplicity = 1
  Basis Set: AUG-CC-PVTZ
    Blend: AUG-CC-PVTZ
  Basis Set: (AUG-CC-PVTZ AUX)
    Blend: AUG-CC-PVTZ-JKFIT

    Orbital Energies [Eh]
    ---------------------

    Doubly Occupied:

       1A    -11.238179     2A    -11.237372     3A    -11.235198
       4A    -11.231376     5A    -11.228695     6A    -11.228375
       7A    -11.227726     8A    -11.226505     9A    -11.222635
      10A    -11.221797    11A     -1.163629    12A     -1.129884
      13A     -1.039587    14A     -1.007154    15A     -0.937154
      16A     -0.838149    17A     -0.828196    18A     -0.809742
      19A     -0.765223    20A     -0.686795    21A     -0.651708
      22A     -0.634535    23A     -0.626061    24A     -0.598222
      25A     -0.577362    26A     -0.573334    27A     -0.539118
      28A     -0.527455    29A     -0.512271    30A     -0.491461
      31A     -0.483832    32A     -0.475227    33A     -0.451948
      34A     -0.382199    35A     -0.331802    36A     -0.311298

  @DF-RHF Final Energy:  -385.75607147778754

   => Energetics <=

    Nuclear Repulsion Energy =            482.5145973202664891
    One-Electron Energy =               -1477.1989271050099433
    Two-Electron Energy =                 608.9282583069559678
    Total Energy =                       -385.7560714777874864
  Basis Set: (AUG-CC-PVTZ AUX)
    Blend: AUG-CC-PVTZ-RI
    Molecular point group: c1

    Geometry (in Angstrom), charge = 0, multiplicity = 1:

       Center              X                  Y                   Z               Mass
    ------------   -----------------  -----------------  -----------------  -----------------
         C           -2.116604261163    -0.141841726178    -0.518776628185    12.000000000000
         C           -3.028287961163     0.766414973822     0.424509571815    12.000000000000
         C           -3.028287961163    -0.738067026178     0.424512571815    12.000000000000
         C           -0.648342961163     0.014171973822    -0.299808428185    12.000000000000
         C            0.063789038837     1.217162973822    -0.210523428185    12.000000000000
         C            0.063789038837    -1.188818026178    -0.210523428185    12.000000000000
         C            1.447782038837     1.215498973822    -0.036549428185    12.000000000000
         C            1.447783038837    -1.187153026178    -0.036549428185    12.000000000000
         C            2.162888038837     0.014172973822     0.051379571815    12.000000000000
         C            3.651715038837     0.014173973822     0.283588571815    12.000000000000
         H           -2.435875961163     0.014168973822    -1.562304428185     1.007825032230
         H           -3.889271961163     1.284097973822     0.013761571815     1.007825032230
         H           -2.558272961163     1.267629973822     1.264734571815     1.007825032230
         H           -2.558272961163    -1.239280026178     1.264739571815     1.007825032230
         H           -3.889272961163    -1.255751026178     0.013767571815     1.007825032230
         H           -0.475255961163     2.160597973822    -0.279083428185     1.007825032230
         H           -0.475254961163    -2.132254026178    -0.279083428185     1.007825032230
         H            1.982331038837     2.162407973822     0.028769571815     1.007825032230
         H            1.982332038837    -2.134062026178     0.028769571815     1.007825032230
         H            4.118688038837    -0.871177026178    -0.157508428185     1.007825032230
         H            4.118688038837     0.899524973822    -0.157507428185     1.007825032230
         H            3.886273038837     0.014172973822     1.353835571815     1.007825032230

  Basis Set: AUG-CC-PVTZ
    Blend: AUG-CC-PVTZ
  Basis Set: (AUG-CC-PVTZ AUX)
    Blend: AUG-CC-PVTZ-JKFIT
	 Reference Energy          =    -385.7560714777875432 [Eh]
	 Singles Energy            =      -0.0000000000000000 [Eh]
	 Same-Spin Energy          =      -0.4325034211008221 [Eh]
	 Opposite-Spin Energy      =      -1.4132019698238869 [Eh]
	 Correlation Energy        =      -1.8457053909247090 [Eh]
	 Total Energy              =    -387.6017768687122498 [Eh]

	 ================> DF-SCS-MP2 Energies <==================
	-----------------------------------------------------------
	 SCS Same-Spin Scale       =       0.3333333333333333 [-]
	 SCS Opposite-Spin Scale   =       1.2000000000000000 [-]
	 SCS Same-Spin Energy      =      -0.1441678070336073 [Eh]
	 SCS Opposite-Spin Energy  =      -1.6958423637886642 [Eh]
	 SCS Correlation Energy    =      -1.8400101708222716 [Eh]
	 SCS Total Energy          =    -387.5960816486098111 [Eh]
	-----------------------------------------------------------

  Dipole Moment: [D]
     X:     0.1403      Y:    -0.0937      Z:     0.0364     Total:     0.1726

*** Psi4 exiting successfully. Buy a developer a beer!
