                               Psi4 1.4a3.dev225

  ==> Input File <==

--------------------------------------------------------------------------
#psi4
#
memory 32 gb

molecule  {
0 1
  C       -2.1229620    -0.0000010    -0.5285820
  C       -3.0262580     0.7522420     0.4138790
  C       -3.0262580    -0.7522400     0.4138820
  C       -0.6463130    -0.0000010    -0.3104390
  C        0.0658190     1.2029900    -0.2211540
  C        0.0658190    -1.2029910    -0.2211540
  C        1.4498120     1.2013260    -0.0471800
  C        1.4496336    -1.2256704    -0.0472232
  C        2.1649180     0.0000000     0.0407490
  C        3.6537450     0.0000010     0.2729580
  H       -2.4338460    -0.0000040    -1.5729350
  H       -3.8872420     1.2699250     0.0031310
  H       -2.5562430     1.2534570     1.2541040
  H       -2.5562430    -1.2534530     1.2541090
  H       -3.8872430    -1.2699240     0.0031370
  H       -0.4732260     2.1464250    -0.2897140
  H       -0.4732250    -2.1464270    -0.2897140
  H        1.9843610     2.1482350     0.0181390
  H        1.9843620    -2.1482350     0.0181390
  H        4.1207180    -0.8853500    -0.1681390
  H        4.1207180     0.8853520    -0.1681380
  H        3.8883030     0.0000000     1.3432050
units angstrom
no_reorient  #important for SAPT in psi4, default
symmetry c1  #important for SAPT in psi4, default
}

set PROPERTIES_ORIGIN ["COM"]
properties('MP2/aug-cc-pvtz', properties = ['dipole'])
--------------------------------------------------------------------------

    Molecular point group: c1
  Charge       = 0
  Multiplicity = 1
  Basis Set: AUG-CC-PVTZ
    Blend: AUG-CC-PVTZ
  Basis Set: (AUG-CC-PVTZ AUX)
    Blend: AUG-CC-PVTZ-JKFIT

    Orbital Energies [Eh]
    ---------------------

    Doubly Occupied:

       1A    -11.240386     2A    -11.234045     3A    -11.232993
       4A    -11.229517     5A    -11.229350     6A    -11.227906
       7A    -11.227253     8A    -11.224584     9A    -11.223929
      10A    -11.222360    11A     -1.162492    12A     -1.128689
      13A     -1.038117    14A     -1.007354    15A     -0.936210
      16A     -0.834241    17A     -0.830349    18A     -0.808742
      19A     -0.766344    20A     -0.687397    21A     -0.652208
      22A     -0.632908    23A     -0.627610    24A     -0.600463
      25A     -0.578764    26A     -0.572692    27A     -0.539290
      28A     -0.527342    29A     -0.512249    30A     -0.489515
      31A     -0.483322    32A     -0.475402    33A     -0.423942
      34A     -0.412947    35A     -0.331897    36A     -0.310510

  @DF-RHF Final Energy:  -385.76857760760782

   => Energetics <=

    Nuclear Repulsion Energy =            482.2360732369717766
    One-Electron Energy =               -1476.6826681333670876
    Two-Electron Energy =                 608.6780172887874869
    Total Energy =                       -385.7685776076077673
  Basis Set: (AUG-CC-PVTZ AUX)
    Blend: AUG-CC-PVTZ-RI
    Molecular point group: c1

    Geometry (in Angstrom), charge = 0, multiplicity = 1:

       Center              X                  Y                   Z               Mass
    ------------   -----------------  -----------------  -----------------  -----------------
         C           -2.124213687528     0.002210546418    -0.518022468558    12.000000000000
         C           -3.027509687528     0.754453546418     0.424438531442    12.000000000000
         C           -3.027509687528    -0.750028453582     0.424441531442    12.000000000000
         C           -0.647564687528     0.002210546418    -0.299879468558    12.000000000000
         C            0.064567312472     1.205201546418    -0.210594468558    12.000000000000
         C            0.064567312472    -1.200779453582    -0.210594468558    12.000000000000
         C            1.448560312472     1.203537546418    -0.036620468558    12.000000000000
         C            1.448381912472    -1.223458853582    -0.036663668558    12.000000000000
         C            2.163666312472     0.002211546418     0.051308531442    12.000000000000
         C            3.652493312472     0.002212546418     0.283517531442    12.000000000000
         H           -2.435097687528     0.002207546418    -1.562375468558     1.007825032230
         H           -3.888493687528     1.272136546418     0.013690531442     1.007825032230
         H           -2.557494687528     1.255668546418     1.264663531442     1.007825032230
         H           -2.557494687528    -1.251241453582     1.264668531442     1.007825032230
         H           -3.888494687528    -1.267712453582     0.013696531442     1.007825032230
         H           -0.474477687528     2.148636546418    -0.279154468558     1.007825032230
         H           -0.474476687528    -2.144215453582    -0.279154468558     1.007825032230
         H            1.983109312472     2.150446546418     0.028698531442     1.007825032230
         H            1.983110312472    -2.146023453582     0.028698531442     1.007825032230
         H            4.119466312472    -0.883138453582    -0.157579468558     1.007825032230
         H            4.119466312472     0.887563546418    -0.157578468558     1.007825032230
         H            3.887051312472     0.002211546418     1.353764531442     1.007825032230

  Basis Set: AUG-CC-PVTZ
    Blend: AUG-CC-PVTZ
  Basis Set: (AUG-CC-PVTZ AUX)
    Blend: AUG-CC-PVTZ-JKFIT
	 Reference Energy          =    -385.7685776076078241 [Eh]
	 Singles Energy            =      -0.0000000000000000 [Eh]
	 Same-Spin Energy          =      -0.4316922659391351 [Eh]
	 Opposite-Spin Energy      =      -1.4116205662189252 [Eh]
	 Correlation Energy        =      -1.8433128321580603 [Eh]
	 Total Energy              =    -387.6118904397658866 [Eh]

	 ================> DF-SCS-MP2 Energies <==================
	-----------------------------------------------------------
	 SCS Same-Spin Scale       =       0.3333333333333333 [-]
	 SCS Opposite-Spin Scale   =       1.2000000000000000 [-]
	 SCS Same-Spin Energy      =      -0.1438974219797117 [Eh]
	 SCS Opposite-Spin Energy  =      -1.6939446794627102 [Eh]
	 SCS Correlation Energy    =      -1.8378421014424220 [Eh]
	 SCS Total Energy          =    -387.6064197090502716 [Eh]
	-----------------------------------------------------------

  Dipole Moment: [D]
     X:     0.1239      Y:    -0.0065      Z:     0.0321     Total:     0.1282

*** Psi4 exiting successfully. Buy a developer a beer!
