                               Psi4 1.4a3.dev225

  ==> Input File <==

--------------------------------------------------------------------------
#psi4
#
memory 32 gb

molecule  {
0 1
  C       -2.1229620    -0.0000010    -0.5285820
  C       -3.0262580     0.7522420     0.4138790
  C       -3.0262580    -0.7522400     0.4138820
  C       -0.6463130    -0.0000010    -0.3104390
  C        0.0658190     1.2029900    -0.2211540
  C        0.0658190    -1.2029910    -0.2211540
  C        1.4498120     1.2013260    -0.0471800
  C        1.4498130    -1.2013260    -0.0471800
  C        2.1649180     0.0000000     0.0407490
  C        3.6537450     0.0000010     0.2729580
  H       -2.4338460    -0.0000040    -1.5729350
  H       -3.8872420     1.2699250     0.0031310
  H       -2.5562430     1.2534570     1.2541040
  H       -2.5562430    -1.2534530     1.2541090
  H       -3.8872430    -1.2699240     0.0031370
  H       -0.4732260     2.1464250    -0.2897140
  H       -0.4732250    -2.1464270    -0.2897140
  H        1.9843610     2.1482350     0.0181390
  H        1.9843620    -2.1482350     0.0181390
  H        4.1207180    -0.8853500    -0.1681390
  H        4.2061007     1.0472321    -0.2487893
  H        3.8883030     0.0000000     1.3432050
units angstrom
no_reorient  #important for SAPT in psi4, default
symmetry c1  #important for SAPT in psi4, default
}

set PROPERTIES_ORIGIN ["COM"]
properties('MP2/aug-cc-pvtz', properties = ['dipole'])
--------------------------------------------------------------------------

    Molecular point group: c1
  Charge       = 0
  Multiplicity = 1
  Basis Set: AUG-CC-PVTZ
    Blend: AUG-CC-PVTZ
  Basis Set: (AUG-CC-PVTZ AUX)
    Blend: AUG-CC-PVTZ-JKFIT

    Orbital Energies [Eh]
    ---------------------

    Doubly Occupied:

       1A    -11.245396     2A    -11.240019     3A    -11.235125
       4A    -11.233632     5A    -11.230374     6A    -11.229670
       7A    -11.229141     8A    -11.228080     9A    -11.225192
      10A    -11.224538    11A     -1.164149    12A     -1.130781
      13A     -1.037381    14A     -1.007674    15A     -0.928824
      16A     -0.834657    17A     -0.829312    18A     -0.809288
      19A     -0.765921    20A     -0.687298    21A     -0.652774
      22A     -0.632085    23A     -0.626205    24A     -0.600080
      25A     -0.577921    26A     -0.571398    27A     -0.531325
      28A     -0.513736    29A     -0.509932    30A     -0.490789
      31A     -0.481551    32A     -0.473257    33A     -0.424661
      34A     -0.413385    35A     -0.332352    36A     -0.313033

  @DF-RHF Final Energy:  -385.74939881236713

   => Energetics <=

    Nuclear Repulsion Energy =            481.8549460374950399
    One-Electron Energy =               -1475.8868102704479952
    Two-Electron Energy =                 608.2824654205858224
    Total Energy =                       -385.7493988123671897
  Basis Set: (AUG-CC-PVTZ AUX)
    Blend: AUG-CC-PVTZ-RI
    Molecular point group: c1

    Geometry (in Angstrom), charge = 0, multiplicity = 1:

       Center              X                  Y                   Z               Mass
    ------------   -----------------  -----------------  -----------------  -----------------
         C           -2.124881421784    -0.001236089768    -0.517411055020    12.000000000000
         C           -3.028177421784     0.751006910232     0.425049944980    12.000000000000
         C           -3.028177421784    -0.753475089768     0.425052944980    12.000000000000
         C           -0.648232421784    -0.001236089768    -0.299268055020    12.000000000000
         C            0.063899578216     1.201754910232    -0.209983055020    12.000000000000
         C            0.063899578216    -1.204226089768    -0.209983055020    12.000000000000
         C            1.447892578216     1.200090910232    -0.036009055020    12.000000000000
         C            1.447893578216    -1.202561089768    -0.036009055020    12.000000000000
         C            2.162998578216    -0.001235089768     0.051919944980    12.000000000000
         C            3.651825578216    -0.001234089768     0.284128944980    12.000000000000
         H           -2.435765421784    -0.001239089768    -1.561764055020     1.007825032230
         H           -3.889161421784     1.268689910232     0.014301944980     1.007825032230
         H           -2.558162421784     1.252221910232     1.265274944980     1.007825032230
         H           -2.558162421784    -1.254688089768     1.265279944980     1.007825032230
         H           -3.889162421784    -1.271159089768     0.014307944980     1.007825032230
         H           -0.475145421784     2.145189910232    -0.278543055020     1.007825032230
         H           -0.475144421784    -2.147662089768    -0.278543055020     1.007825032230
         H            1.982441578216     2.146999910232     0.029309944980     1.007825032230
         H            1.982442578216    -2.149470089768     0.029309944980     1.007825032230
         H            4.118798578216    -0.886585089768    -0.156968055020     1.007825032230
         H            4.204181278216     1.045997010232    -0.237618355020     1.007825032230
         H            3.886383578216    -0.001235089768     1.354375944980     1.007825032230

  Basis Set: AUG-CC-PVTZ
    Blend: AUG-CC-PVTZ
  Basis Set: (AUG-CC-PVTZ AUX)
    Blend: AUG-CC-PVTZ-JKFIT
	 Reference Energy          =    -385.7493988123671329 [Eh]
	 Singles Energy            =      -0.0000000000000000 [Eh]
	 Same-Spin Energy          =      -0.4317405137556465 [Eh]
	 Opposite-Spin Energy      =      -1.4131419732026276 [Eh]
	 Correlation Energy        =      -1.8448824869582741 [Eh]
	 Total Energy              =    -387.5942812993254165 [Eh]

	 ================> DF-SCS-MP2 Energies <==================
	-----------------------------------------------------------
	 SCS Same-Spin Scale       =       0.3333333333333333 [-]
	 SCS Opposite-Spin Scale   =       1.2000000000000000 [-]
	 SCS Same-Spin Energy      =      -0.1439135045852155 [Eh]
	 SCS Opposite-Spin Energy  =      -1.6957703678431530 [Eh]
	 SCS Correlation Energy    =      -1.8396838724283686 [Eh]
	 SCS Total Energy          =    -387.5890826847955282 [Eh]
	-----------------------------------------------------------

  Dipole Moment: [D]
     X:    -0.0126      Y:    -0.0883      Z:     0.0626     Total:     0.1090

*** Psi4 exiting successfully. Buy a developer a beer!
