                               Psi4 1.4a3.dev225

  ==> Input File <==

--------------------------------------------------------------------------
#psi4
#
memory 32 gb

molecule  {
0 1
  C       -2.1229620    -0.0000010    -0.5285820
  C       -3.0262580     0.7522420     0.4138790
  C       -3.0262580    -0.7522400     0.4138820
  C       -0.6463130    -0.0000010    -0.3104390
  C        0.0658190     1.2029900    -0.2211540
  C        0.0658190    -1.2029910    -0.2211540
  C        1.4498120     1.2013260    -0.0471800
  C        1.4498130    -1.2013260    -0.0471800
  C        2.1649180     0.0000000     0.0407490
  C        3.6537450     0.0000010     0.2729580
  H       -2.4338460    -0.0000040    -1.5729350
  H       -3.8872420     1.2699250     0.0031310
  H       -2.5562430     1.2534570     1.2541040
  H       -2.5562430    -1.2534530     1.2541090
  H       -3.8872430    -1.2699240     0.0031370
  H       -0.4732260     2.1464250    -0.2897140
  H       -0.4732250    -2.1464270    -0.2897140
  H        1.9843610     2.1482350     0.0181390
  H        1.9843620    -2.1482350     0.0181390
  H        4.1207180    -0.8853500    -0.1681390
  H        4.0993723     0.8448820    -0.1479752
  H        3.8883030     0.0000000     1.3432050
units angstrom
no_reorient  #important for SAPT in psi4, default
symmetry c1  #important for SAPT in psi4, default
}

set PROPERTIES_ORIGIN ["COM"]
properties('MP2/aug-cc-pvtz', properties = ['dipole'])
--------------------------------------------------------------------------

    Molecular point group: c1
  Charge       = 0
  Multiplicity = 1
  Basis Set: AUG-CC-PVTZ
    Blend: AUG-CC-PVTZ
  Basis Set: (AUG-CC-PVTZ AUX)
    Blend: AUG-CC-PVTZ-JKFIT

    Orbital Energies [Eh]
    ---------------------

    Doubly Occupied:

       1A    -11.237514     2A    -11.233954     3A    -11.232885
       4A    -11.229033     5A    -11.228830     6A    -11.227339
       7A    -11.227078     8A    -11.224569     9A    -11.223916
      10A    -11.216298    11A     -1.163259    12A     -1.130125
      13A     -1.040213    14A     -1.006579    15A     -0.939873
      16A     -0.833906    17A     -0.832655    18A     -0.808704
      19A     -0.765902    20A     -0.687077    21A     -0.652642
      22A     -0.634906    23A     -0.626469    24A     -0.599389
      25A     -0.576979    26A     -0.575159    27A     -0.543824
      28A     -0.528417    29A     -0.512249    30A     -0.489581
      31A     -0.484005    32A     -0.476155    33A     -0.424172
      34A     -0.412699    35A     -0.331350    36A     -0.312147

  @DF-RHF Final Energy:  -385.76858780695778

   => Energetics <=

    Nuclear Repulsion Energy =            482.8404326712085322
    One-Electron Energy =               -1477.8783334948511765
    Two-Electron Energy =                 609.2693130166848050
    Total Energy =                       -385.7685878069578393
  Basis Set: (AUG-CC-PVTZ AUX)
    Blend: AUG-CC-PVTZ-RI
    Molecular point group: c1

    Geometry (in Angstrom), charge = 0, multiplicity = 1:

       Center              X                  Y                   Z               Mass
    ------------   -----------------  -----------------  -----------------  -----------------
         C           -2.124067125645     0.000307762714    -0.518180227353    12.000000000000
         C           -3.027363125645     0.752550762714     0.424280772647    12.000000000000
         C           -3.027363125645    -0.751931237286     0.424283772647    12.000000000000
         C           -0.647418125645     0.000307762714    -0.300037227353    12.000000000000
         C            0.064713874355     1.203298762714    -0.210752227353    12.000000000000
         C            0.064713874355    -1.202682237286    -0.210752227353    12.000000000000
         C            1.448706874355     1.201634762714    -0.036778227353    12.000000000000
         C            1.448707874355    -1.201017237286    -0.036778227353    12.000000000000
         C            2.163812874355     0.000308762714     0.051150772647    12.000000000000
         C            3.652639874355     0.000309762714     0.283359772647    12.000000000000
         H           -2.434951125645     0.000304762714    -1.562533227353     1.007825032230
         H           -3.888347125645     1.270233762714     0.013532772647     1.007825032230
         H           -2.557348125645     1.253765762714     1.264505772647     1.007825032230
         H           -2.557348125645    -1.253144237286     1.264510772647     1.007825032230
         H           -3.888348125645    -1.269615237286     0.013538772647     1.007825032230
         H           -0.474331125645     2.146733762714    -0.279312227353     1.007825032230
         H           -0.474330125645    -2.146118237286    -0.279312227353     1.007825032230
         H            1.983255874355     2.148543762714     0.028540772647     1.007825032230
         H            1.983256874355    -2.147926237286     0.028540772647     1.007825032230
         H            4.119612874355    -0.885041237286    -0.157737227353     1.007825032230
         H            4.098267174355     0.845190762714    -0.137573427353     1.007825032230
         H            3.887197874355     0.000308762714     1.353606772647     1.007825032230

  Basis Set: AUG-CC-PVTZ
    Blend: AUG-CC-PVTZ
  Basis Set: (AUG-CC-PVTZ AUX)
    Blend: AUG-CC-PVTZ-JKFIT
	 Reference Energy          =    -385.7685878069577825 [Eh]
	 Singles Energy            =      -0.0000000000000000 [Eh]
	 Same-Spin Energy          =      -0.4317107125428326 [Eh]
	 Opposite-Spin Energy      =      -1.4111962891491119 [Eh]
	 Correlation Energy        =      -1.8429070016919444 [Eh]
	 Total Energy              =    -387.6114948086497520 [Eh]

	 ================> DF-SCS-MP2 Energies <==================
	-----------------------------------------------------------
	 SCS Same-Spin Scale       =       0.3333333333333333 [-]
	 SCS Opposite-Spin Scale   =       1.2000000000000000 [-]
	 SCS Same-Spin Energy      =      -0.1439035708476109 [Eh]
	 SCS Opposite-Spin Energy  =      -1.6934355469789342 [Eh]
	 SCS Correlation Energy    =      -1.8373391178265450 [Eh]
	 SCS Total Energy          =    -387.6059269247843417 [Eh]
	-----------------------------------------------------------

  Dipole Moment: [D]
     X:     0.1391      Y:     0.0160      Z:     0.0236     Total:     0.1420

*** Psi4 exiting successfully. Buy a developer a beer!
