                               Psi4 1.4a3.dev225

  ==> Input File <==

--------------------------------------------------------------------------
#psi4
#
memory 32 gb

molecule  {
0 1
  C       -2.1229620    -0.0000010    -0.5285820
  C       -3.0262580     0.7522420     0.4138790
  C       -2.9063515    -0.6523853     0.2887762
  C       -0.6463130    -0.0000010    -0.3104390
  C        0.0658190     1.2029900    -0.2211540
  C        0.0658190    -1.2029910    -0.2211540
  C        1.4498120     1.2013260    -0.0471800
  C        1.4498130    -1.2013260    -0.0471800
  C        2.1649180     0.0000000     0.0407490
  C        3.6537450     0.0000010     0.2729580
  H       -2.4338460    -0.0000040    -1.5729350
  H       -3.8872420     1.2699250     0.0031310
  H       -2.5562430     1.2534570     1.2541040
  H       -2.5562430    -1.2534530     1.2541090
  H       -3.8872430    -1.2699240     0.0031370
  H       -0.4732260     2.1464250    -0.2897140
  H       -0.4732250    -2.1464270    -0.2897140
  H        1.9843610     2.1482350     0.0181390
  H        1.9843620    -2.1482350     0.0181390
  H        4.1207180    -0.8853500    -0.1681390
  H        4.1207180     0.8853520    -0.1681380
  H        3.8883030     0.0000000     1.3432050
units angstrom
no_reorient  #important for SAPT in psi4, default
symmetry c1  #important for SAPT in psi4, default
}

set PROPERTIES_ORIGIN ["COM"]
properties('MP2/aug-cc-pvtz', properties = ['dipole'])
--------------------------------------------------------------------------

    Molecular point group: c1
  Charge       = 0
  Multiplicity = 1
  Basis Set: AUG-CC-PVTZ
    Blend: AUG-CC-PVTZ
  Basis Set: (AUG-CC-PVTZ AUX)
    Blend: AUG-CC-PVTZ-JKFIT

    Orbital Energies [Eh]
    ---------------------

    Doubly Occupied:

       1A    -11.238569     2A    -11.235082     3A    -11.230654
       4A    -11.229422     5A    -11.228760     6A    -11.228422
       7A    -11.227778     8A    -11.224474     9A    -11.222864
      10A    -11.213708    11A     -1.208759    12A     -1.144501
      13A     -1.042694    14A     -1.007549    15A     -0.938100
      16A     -0.843272    17A     -0.826553    18A     -0.797520
      19A     -0.763919    20A     -0.694947    21A     -0.666909
      22A     -0.634527    23A     -0.630675    24A     -0.602180
      25A     -0.577753    26A     -0.573513    27A     -0.539965
      28A     -0.526726    29A     -0.500690    30A     -0.487608
      31A     -0.483452    32A     -0.467443    33A     -0.449465
      34A     -0.400908    35A     -0.332014    36A     -0.313212

  @DF-RHF Final Energy:  -385.71975683821205

   => Energetics <=

    Nuclear Repulsion Energy =            486.5587158434705088
    One-Electron Energy =               -1485.0877687857982892
    Two-Electron Energy =                 612.8092961041157878
    Total Energy =                       -385.7197568382119925
  Basis Set: (AUG-CC-PVTZ AUX)
    Blend: AUG-CC-PVTZ-RI
    Molecular point group: c1

    Geometry (in Angstrom), charge = 0, multiplicity = 1:

       Center              X                  Y                   Z               Mass
    ------------   -----------------  -----------------  -----------------  -----------------
         C           -2.135122827131    -0.009072254648    -0.506661223295    12.000000000000
         C           -3.038418827131     0.743170745352     0.435799776705    12.000000000000
         C           -2.918512327131    -0.661456554648     0.310696976705    12.000000000000
         C           -0.658473827131    -0.009072254648    -0.288518223295    12.000000000000
         C            0.053658172869     1.193918745352    -0.199233223295    12.000000000000
         C            0.053658172869    -1.212062254648    -0.199233223295    12.000000000000
         C            1.437651172869     1.192254745352    -0.025259223295    12.000000000000
         C            1.437652172869    -1.210397254648    -0.025259223295    12.000000000000
         C            2.152757172869    -0.009071254648     0.062669776705    12.000000000000
         C            3.641584172869    -0.009070254648     0.294878776705    12.000000000000
         H           -2.446006827131    -0.009075254648    -1.551014223295     1.007825032230
         H           -3.899402827131     1.260853745352     0.025051776705     1.007825032230
         H           -2.568403827131     1.244385745352     1.276024776705     1.007825032230
         H           -2.568403827131    -1.262524254648     1.276029776705     1.007825032230
         H           -3.899403827131    -1.278995254648     0.025057776705     1.007825032230
         H           -0.485386827131     2.137353745352    -0.267793223295     1.007825032230
         H           -0.485385827131    -2.155498254648    -0.267793223295     1.007825032230
         H            1.972200172869     2.139163745352     0.040059776705     1.007825032230
         H            1.972201172869    -2.157306254648     0.040059776705     1.007825032230
         H            4.108557172869    -0.894421254648    -0.146218223295     1.007825032230
         H            4.108557172869     0.876280745352    -0.146217223295     1.007825032230
         H            3.876142172869    -0.009071254648     1.365125776705     1.007825032230

  Basis Set: AUG-CC-PVTZ
    Blend: AUG-CC-PVTZ
  Basis Set: (AUG-CC-PVTZ AUX)
    Blend: AUG-CC-PVTZ-JKFIT
	 Reference Energy          =    -385.7197568382120494 [Eh]
	 Singles Energy            =      -0.0000000000000000 [Eh]
	 Same-Spin Energy          =      -0.4335931173856138 [Eh]
	 Opposite-Spin Energy      =      -1.4129813646858300 [Eh]
	 Correlation Energy        =      -1.8465744820714438 [Eh]
	 Total Energy              =    -387.5663313202834956 [Eh]

	 ================> DF-SCS-MP2 Energies <==================
	-----------------------------------------------------------
	 SCS Same-Spin Scale       =       0.3333333333333333 [-]
	 SCS Opposite-Spin Scale   =       1.2000000000000000 [-]
	 SCS Same-Spin Energy      =      -0.1445310391285379 [Eh]
	 SCS Opposite-Spin Energy  =      -1.6955776376229961 [Eh]
	 SCS Correlation Energy    =      -1.8401086767515340 [Eh]
	 SCS Total Energy          =    -387.5598655149635761 [Eh]
	-----------------------------------------------------------

  Dipole Moment: [D]
     X:     0.1630      Y:    -0.0674      Z:     0.0172     Total:     0.1772

*** Psi4 exiting successfully. Buy a developer a beer!
